G2.5Ocore-PETIM in water
33232
    1aaa     O1    1   2.795   5.665   6.386  0.2267 -0.0489  0.3688
    1aaa     C1    2   2.786   5.583   6.270 -0.0408 -0.2545  0.2033
    1aaa     H1    3   2.889   5.568   6.235 -0.2120 -0.1198 -0.3644
    1aaa     H2    4   2.728   5.630   6.190  1.3709  0.5196 -0.4178
    1aaa     C2    5   2.892   5.774   6.381  0.1703 -0.3248 -0.4602
    1aaa     H3    6   2.993   5.733   6.367 -0.0652 -1.1175  0.0917
    1aaa     H4    7   2.902   5.815   6.482 -0.4053 -1.2895 -0.0001
    1aaa     C3    8   2.712   5.457   6.310 -0.3821  0.1987 -0.1903
    1aaa     H5    9   2.777   5.418   6.390  0.9232 -2.2816 -2.2871
    1aaa     H6   10   2.710   5.378   6.234  0.2187 -1.1788  1.1692
    1aaa     C4   11   2.851   5.882   6.284  1.0513  0.2240  0.4545
    1aaa     H7   12   2.856   5.843   6.181 -0.1220 -0.2695  0.5732
    1aaa     H8   13   2.917   5.968   6.302  1.4194  0.4456 -1.6206
    1aaa     C5   14   2.570   5.484   6.360  0.0869 -0.2063  0.0338
    1aaa     H9   15   2.573   5.569   6.429  0.0050 -1.0594  1.1306
    1aaa    H10   16   2.517   5.522   6.273 -1.5092 -0.3389  0.8989
    1aaa     C6   17   2.706   5.916   6.325  0.1934 -0.9830 -0.3431
    1aaa    H11   18   2.709   5.956   6.426 -0.3079 -2.8800  0.4499
    1aaa    H12   19   2.640   5.830   6.334 -0.9125  0.0018  1.5836
    1aaa     N1   20   2.494   5.370   6.426  0.0089 -0.6443  0.1304
    1aaa     N2   21   2.621   6.010   6.230 -0.8892  1.0683 -0.1752
    1aaa     C7   22   2.476   6.025   6.297 -0.2360 -0.1183 -0.2535
    1aaa    H13   23   2.410   6.063   6.218  0.1026 -0.7365 -0.8410
    1aaa    H14   24   2.444   5.922   6.312  1.8067 -1.1212 -2.1328
    1aaa     C8   25   2.611   5.956   6.083 -0.2675 -0.8253  0.2597
    1aaa    H15   26   2.710   5.962   6.037 -0.6351 -0.5469 -0.5073
    1aaa    H16   27   2.580   5.851   6.086 -0.0933 -0.9041 -0.4844
    1aaa     C9   28   2.536   5.335   6.569 -0.3260  1.0415 -0.0954
    1aaa    H17   29   2.643   5.353   6.578  0.2210 -1.6076 -0.3085
    1aaa    H18   30   2.484   5.404   6.636 -0.6821  2.0247 -1.3416
    1aaa    C10   31   2.346   5.393   6.406 -0.1315 -0.0636  0.6112
    1aaa    H19   32   2.306   5.469   6.472 -1.2934 -0.8493  0.8433
    1aaa    H20   33   2.337   5.445   6.310 -0.3107  1.0954  1.2370
    1aaa    C11   34   2.469   6.110   6.420 -0.3887 -0.1408 -0.6432
    1aaa    H21   35   2.371   6.130   6.466 -0.0818  1.9953 -0.7988
    1aaa    H22   36   2.515   6.052   6.501 -2.6429  1.4030  1.9324
    1aaa    C12   37   2.513   6.032   5.989 -0.4687 -0.5075 -0.3543
    1aaa    H23   38   2.411   6.036   6.027 -0.1608 -0.3469  0.4720
    1aaa    H24   39   2.549   6.135   5.976  0.0515 -0.8044 -1.4856
    1aaa    C13   40   2.507   5.193   6.621  0.4398  0.5766  0.0654
    1aaa    H25   41   2.398   5.182   6.620  0.4260  0.4502 -1.9887
    1aaa    H26   42   2.548   5.122   6.548  2.0700  1.5832 -0.0434
    1aaa    C14   43   2.238   5.283   6.416  0.7270  0.6179  0.0251
    1aaa    H27   44   2.268   5.192   6.364  0.1606  0.4781 -0.0624
    1aaa    H28   45   2.229   5.252   6.521  0.8913 -3.2224 -0.9543
    1aaa    C15   46   2.098   5.323   6.371 -0.0642 -0.4169  0.5981
    1aaa    H29   47   2.021   5.251   6.399 -2.2266 -0.4983 -4.4293
    1aaa    H30   48   2.068   5.424   6.401  4.1725  0.9128  0.9970
    1aaa    C16   49   2.560   5.152   6.767 -0.2373  0.4207  1.1450
    1aaa    H31   50   2.503   5.212   6.839 -1.5770 -0.2178  0.6454
    1aaa    H32   51   2.540   5.045   6.783 -1.1421 -0.0877 -2.4348
    1aaa    C17   52   2.490   5.964   5.853  0.0311 -0.0936  0.3412
    1aaa    H33   53   2.468   5.858   5.871 -1.3525 -0.1677 -1.4926
    1aaa    H34   54   2.403   6.012   5.808 -0.5851 -0.4681  1.1014
    1aaa    C18   55   2.544   6.243   6.425  0.1236 -0.2451  0.4942
    1aaa    H35   56   2.634   6.242   6.363  0.5430  0.1054  1.0879
    1aaa    H36   57   2.484   6.328   6.389 -1.7277 -1.3951  0.7226
    1aaa    H38   58   2.522   5.301   6.354  0.4569 -0.1052 -0.2231
    1aaa    H37   59   2.675   6.097   6.223  3.4018 -1.2265  0.3132
    2bbb     N1   60   1.968   5.088   6.048 -0.2590  0.5461  0.7421
    2bbb     C1   61   1.882   4.981   6.109  0.2695 -0.1677 -0.7614
    2bbb     H1   62   1.933   4.885   6.096  1.4632  0.2343  0.6833
    2bbb     H2   63   1.790   4.979   6.051 -0.6654 -0.6450  0.6929
    2bbb     C2   64   2.025   5.030   5.917 -0.6467 -0.2874  0.2122
    2bbb     H3   65   2.072   5.105   5.853 -1.0754 -0.5165 -0.3875
    2bbb     H4   66   1.947   4.994   5.849  1.5276 -0.1322 -2.5140
    2bbb     C3   67   1.882   5.205   6.018  0.4993 -0.1085  0.4961
    2bbb     H5   68   1.796   5.202   6.086 -1.1577 -1.0836 -1.5398
    2bbb     H6   69   1.844   5.192   5.917  1.7731 -1.3814  0.1509
    2bbb     C4   70   1.957   5.339   6.027  0.1744  0.1272 -0.1011
    2bbb     H7   71   1.906   5.415   5.965  1.6914  1.9645  0.8035
    2bbb     H8   72   2.057   5.335   5.982 -0.0595  3.4358 -1.2334
    2bbb     C5   73   1.849   4.994   6.261  0.2363 -0.5864  0.1631
    2bbb     H9   74   1.791   5.083   6.287  0.8488 -0.2239  0.3136
    2bbb    H10   75   1.948   5.012   6.304 -0.0071  1.7536 -0.1212
    2bbb     C6   76   2.124   4.913   5.939  0.3639  0.1314  0.7566
    2bbb    H11   77   2.078   4.823   5.983 -0.7578 -0.1149 -0.8548
    2bbb    H12   78   2.193   4.953   6.014 -0.1356  1.6795  0.4284
    2bbb     C7   79   1.972   5.390   6.169  0.0112 -0.3479  0.5792
    2bbb    H13   80   1.878   5.367   6.223 -0.2799 -0.5562 -0.0120
    2bbb    H14   81   1.983   5.499   6.168 -1.7589 -0.1319  0.1046
    2bbb     C8   82   2.201   4.868   5.817 -0.5023  0.7181 -0.4955
    2bbb    H15   83   2.269   4.945   5.778  0.2762 -0.2585 -1.1397
    2bbb    H16   84   2.274   4.792   5.849 -0.9793 -0.1240 -1.3542
    2bbb     C9   85   1.787   4.874   6.329 -0.4002  0.1451  0.1193
    2bbb    H17   86   1.691   4.846   6.284 -0.1343 -0.9036  0.1750
    2bbb    H18   87   1.779   4.890   6.438  1.6189  2.0400  0.0633
    2bbb     O1   88   2.087   5.317   6.226  0.5730  0.1850  0.0003
    2bbb    H19   89   2.041   5.118   6.115 -1.1706  2.2041  1.0384
    3bbb     N1   90   3.131   5.298   6.802 -0.2285  0.5022 -0.4780
    3bbb     C1   91   3.156   5.441   6.752  0.2841 -0.0516 -0.1857
    3bbb     H1   92   3.261   5.470   6.748  0.3271  0.0662  1.3312
    3bbb     H2   93   3.123   5.516   6.825  0.1790 -1.1464  0.9163
    3bbb     C2   94   3.202   5.284   6.944 -0.2092  0.2565  0.0927
    3bbb     H3   95   3.180   5.182   6.976 -3.3065  0.0014 -2.4091
    3bbb     H4   96   3.154   5.346   7.021  0.7367 -0.0328  0.9425
    3bbb     C3   97   2.985   5.279   6.824  0.3305  0.3999 -0.4154
    3bbb     H5   98   2.937   5.316   6.733 -0.8749 -0.8772 -0.3288
    3bbb     H6   99   2.952   5.354   6.896 -1.0193  0.1095 -0.7016
    3bbb     C4  100   2.933   5.143   6.877 -0.4174 -0.3751 -0.4134
    3bbb     H7  101   2.980   5.129   6.975  0.3663  1.1377 -0.5550
    3bbb     H8  102   2.966   5.058   6.816  2.1415 -1.1820  1.9025
    3bbb     C5  103   3.099   5.486   6.614 -0.0746  0.5092 -0.1703
    3bbb     H9  104   3.138   5.588   6.599 -1.0159  0.8753 -0.1892
    3bbb    H10  105   2.991   5.506   6.618 -0.1263  0.1878  0.0629
    3bbb     C6  106   3.361   5.306   6.949  0.2849 -0.1638  0.1056
    3bbb    H11  107   3.376   5.413   6.932 -1.9211  0.3268  0.9923
    3bbb    H12  108   3.410   5.251   6.868  0.4151 -0.9737  0.7222
    3bbb     C7  109   2.776   5.152   6.892 -0.0832  0.4659 -0.5385
    3bbb    H13  110   2.760   5.234   6.962 -2.4367  0.0361 -0.4903
    3bbb    H14  111   2.744   5.055   6.932 -0.3393  0.5696 -0.4880
    3bbb     C8  112   3.416   5.269   7.082 -0.5651 -0.5238 -0.0166
    3bbb    H15  113   3.524   5.288   7.079 -0.9054  2.0383  1.3206
    3bbb    H16  114   3.366   5.333   7.155  0.8771  1.7461 -0.8961
    3bbb     C9  115   3.148   5.389   6.501 -0.2673  0.2633 -0.2863
    3bbb    H17  116   3.118   5.433   6.405  1.8092  1.2087 -0.5566
    3bbb    H18  117   3.096   5.294   6.514 -1.1896  0.7192 -0.5015
    3bbb     O1  118   2.704   5.173   6.762  0.0296  0.1155  0.3530
    3bbb    H19  119   3.173   5.234   6.732 -1.1064 -1.2174  0.4913
    4bbb     N1  120   2.947   6.033   5.486  0.0652 -0.9293  0.1833
    4bbb     C1  121   2.957   5.935   5.372  0.2459  0.0943  0.1415
    4bbb     H1  122   2.915   5.841   5.408 -0.8667 -0.2736 -1.9700
    4bbb     H2  123   3.063   5.910   5.358  0.6029  1.1543  0.8308
    4bbb     C2  124   3.011   6.170   5.440 -0.4963  0.3125  0.7580
    4bbb     H3  125   2.933   6.221   5.383 -0.2163  0.2518  0.3153
    4bbb     H4  126   3.093   6.141   5.375  0.7535 -1.6032  3.0110
    4bbb     C3  127   2.803   6.060   5.526  0.0661  0.0650 -0.3559
    4bbb     H5  128   2.745   6.115   5.451 -0.8821  0.5493  0.7097
    4bbb     H6  129   2.796   6.121   5.616 -2.6571  1.2868 -1.2776
    4bbb     C4  130   2.721   5.926   5.552  0.1774  0.6202 -0.0647
    4bbb     H7  131   2.784   5.847   5.596  0.7996  0.8075 -0.6001
    4bbb     H8  132   2.695   5.890   5.452 -1.4614  1.0476  0.1738
    4bbb     C5  133   2.897   5.984   5.236 -0.3390 -0.2444 -0.2349
    4bbb     H9  134   2.962   6.064   5.200  0.3335 -1.3971 -1.6747
    4bbb    H10  135   2.795   6.025   5.241  0.0889  0.9015 -0.6260
    4bbb     C6  136   3.062   6.253   5.561 -0.0316 -0.3093 -0.3905
    4bbb    H11  137   3.122   6.200   5.636  3.4865  1.3577 -1.8213
    4bbb    H12  138   2.976   6.298   5.613 -0.6125 -0.1360 -1.4908
    4bbb     C7  139   2.588   5.948   5.632 -1.0660 -0.4350  0.6469
    4bbb    H13  140   2.541   5.849   5.635  0.6589 -1.2664  1.8554
    4bbb    H14  141   2.524   6.023   5.584  2.4787  1.0387 -2.2350
    4bbb     C8  142   3.138   6.378   5.516 -0.2817 -0.1130  0.2946
    4bbb    H15  143   3.082   6.434   5.441 -2.2578 -0.0945  1.7028
    4bbb    H16  144   3.166   6.446   5.598  0.0583  0.0472  0.0487
    4bbb     C9  145   2.873   5.870   5.135  0.1514  0.1115  0.4907
    4bbb    H17  146   2.816   5.790   5.183  0.8031 -0.8691 -0.3246
    4bbb    H18  147   2.971   5.829   5.105 -0.1643 -0.4376  0.2067
    4bbb     O1  148   2.611   5.987   5.773  0.2627 -0.8046 -0.1365
    4bbb    H19  149   3.000   5.993   5.566 -2.6452 -0.6591  2.2609
    5bbb     N1  150   2.599   6.412   7.012 -0.5715  0.9441 -0.6187
    5bbb     C1  151   2.616   6.564   7.014 -0.4096  0.3797  0.7140
    5bbb     H1  152   2.524   6.605   6.972 -1.2142 -1.0547  0.9933
    5bbb     H2  153   2.699   6.591   6.949 -0.2741 -0.5694  0.4670
    5bbb     C2  154   2.489   6.366   7.101 -0.3125 -0.3401 -0.3162
    5bbb     H3  155   2.399   6.424   7.082  0.0750  0.4200  0.1094
    5bbb     H4  156   2.518   6.384   7.205  2.1970 -0.9289 -0.8352
    5bbb     C3  157   2.570   6.372   6.863  0.4542 -0.7914 -0.2152
    5bbb     H5  158   2.478   6.424   6.840  2.1361  1.9048 -1.3699
    5bbb     H6  159   2.548   6.265   6.868 -1.8077 -0.5924 -3.2638
    5bbb     C4  160   2.682   6.385   6.752 -0.7005 -0.2904 -0.2485
    5bbb     H7  161   2.738   6.291   6.759 -0.3501 -0.2395 -2.0178
    5bbb     H8  162   2.750   6.469   6.772  0.4226 -1.0845 -0.6360
    5bbb     C5  163   2.648   6.626   7.149 -0.6631 -0.8742 -0.2313
    5bbb     H9  164   2.741   6.576   7.179 -0.3784 -0.4263 -0.3504
    5bbb    H10  165   2.568   6.619   7.224  0.7769  1.3349  1.6683
    5bbb     C6  166   2.436   6.219   7.095  0.2367 -0.2695 -0.4452
    5bbb    H11  167   2.473   6.161   7.009  0.2284 -1.7760  0.5501
    5bbb    H12  168   2.328   6.228   7.083 -0.0846 -1.9944  0.8851
    5bbb     C7  169   2.626   6.396   6.606  0.2535 -0.3967 -0.1626
    5bbb    H13  170   2.711   6.427   6.543  0.5355  1.1729  0.9479
    5bbb    H14  171   2.553   6.477   6.596 -0.6504 -0.9153  1.7847
    5bbb     C8  172   2.463   6.144   7.223  0.0631  0.0800  0.8660
    5bbb    H15  173   2.431   6.040   7.217  0.0016  0.0907  1.0153
    5bbb    H16  174   2.569   6.138   7.252  0.7002 -0.0912 -1.2491
    5bbb     C9  175   2.681   6.775   7.121  0.1337 -0.1560  0.2644
    5bbb    H17  176   2.775   6.786   7.066 -1.0292  2.1919 -1.4025
    5bbb    H18  177   2.705   6.835   7.209  1.8933 -0.6196  0.1319
    5bbb     O1  178   2.584   6.261   6.568  0.0435  0.0410  0.1478
    5bbb    H19  179   2.683   6.360   7.039 -1.1745 -0.9437 -2.1423
    6ccc     C1  180   2.195   4.790   5.588 -0.1779 -0.6506 -0.0475
    6ccc     H1  181   2.229   4.889   5.554 -0.4598 -0.9536 -1.2352
    6ccc     H2  182   2.279   4.724   5.613 -0.2302  0.2252  2.8880
    6ccc     C2  183   2.092   4.728   5.501 -0.0778 -0.0316 -0.0117
    6ccc     H3  184   2.029   4.656   5.555 -1.4134 -0.0750 -1.5458
    6ccc     H4  185   2.139   4.669   5.421 -0.3447  1.4355 -1.3072
    6ccc     C3  186   1.995   4.835   5.436 -0.6645  0.4036  0.4631
    6ccc     H5  187   2.063   4.907   5.390  2.3797 -2.4457  0.1552
    6ccc     H6  188   1.951   4.890   5.520  2.7066  1.6077  1.6022
    6ccc     N1  189   1.894   4.776   5.332 -0.1197  0.0476  0.4706
    6ccc     C4  190   1.969   4.710   5.222  0.4576  0.1103  0.9770
    6ccc     H7  191   2.002   4.612   5.256  1.7295  0.6299  1.2878
    6ccc     H8  192   2.056   4.770   5.196  1.4417 -0.9947  1.6581
    6ccc     C5  193   1.890   4.693   5.092 -0.4696 -0.7083  0.3935
    6ccc     H9  194   1.784   4.665   5.098 -0.0781 -2.5225 -0.5545
    6ccc    H10  195   1.893   4.792   5.045  1.7399 -0.6491  0.5265
    6ccc     C6  196   1.954   4.597   4.996  0.2675  0.0147 -0.2033
    6ccc     O1  197   2.054   4.530   5.024  0.7004  0.2210 -0.0326
    6ccc     O2  198   1.889   4.570   4.886  0.0658  0.1694  0.3128
    6ccc    H11  199   1.947   4.502   4.849  1.0132  0.8788  0.4513
    6ccc     C7  200   1.789   4.668   5.386  0.4571  0.1643  0.0185
    6ccc    H12  201   1.755   4.600   5.309 -1.6288 -0.8516  1.7355
    6ccc    H13  202   1.834   4.609   5.466 -0.6692 -0.3432  0.2981
    6ccc     C8  203   1.668   4.738   5.434  0.7617  0.0199  0.1372
    6ccc    H14  204   1.694   4.791   5.527  1.0444 -1.6262  1.0307
    6ccc    H15  205   1.624   4.805   5.359 -1.1734 -0.0653  1.1277
    6ccc     C9  206   1.557   4.637   5.472  0.2563 -0.0563  0.1830
    6ccc     O3  207   1.482   4.597   5.393  0.3831  0.5359 -0.3024
    6ccc     O4  208   1.582   4.564   5.584 -0.1400 -0.1523  0.8217
    6ccc    H16  209   1.524   4.486   5.584  0.5023 -0.6364  1.2237
    6ccc     O5  210   2.119   4.811   5.711  0.0495  0.0055 -0.7366
    6ccc    H17  211   1.836   4.853   5.294 -1.6646 -2.0525 -1.7694
    7ccc     C1  212   1.859   4.635   6.358  0.4884  0.3986 -0.9857
    7ccc     H1  213   1.949   4.573   6.351 -0.4338 -1.0303 -0.7999
    7ccc     H2  214   1.839   4.638   6.466 -0.2264  1.8461 -1.1362
    7ccc     C2  215   1.759   4.554   6.267  0.2308  0.4642  0.8179
    7ccc     H3  216   1.657   4.585   6.290 -0.1820 -1.6791  2.0856
    7ccc     H4  217   1.767   4.449   6.298 -0.9946 -0.1559 -0.7839
    7ccc     C3  218   1.787   4.580   6.117 -0.0241 -0.1471  0.0022
    7ccc     H5  219   1.894   4.569   6.098 -0.1150 -0.6778 -0.2173
    7ccc     H6  220   1.772   4.682   6.084  2.0372  0.0874 -0.3521
    7ccc     N1  221   1.729   4.481   6.011  0.2994 -0.2577  0.0453
    7ccc     C4  222   1.575   4.507   5.997 -0.2086  0.1041  0.1678
    7ccc     H7  223   1.559   4.594   5.933 -1.2636 -0.6821 -0.6897
    7ccc     H8  224   1.537   4.517   6.098 -0.0764 -1.3557  0.3812
    7ccc     C5  225   1.511   4.383   5.918  0.3503 -0.3286  1.3441
    7ccc     H9  226   1.570   4.368   5.827  1.0518  1.6642  1.4117
    7ccc    H10  227   1.526   4.293   5.979  0.0880 -0.9120  0.5617
    7ccc     C6  228   1.368   4.397   5.866 -0.2278 -0.0752 -0.2799
    7ccc     O1  229   1.335   4.491   5.796  0.3282 -0.5368  0.2579
    7ccc     O2  230   1.283   4.304   5.914  0.0103  0.1590 -0.2447
    7ccc    H11  231   1.338   4.237   5.957  0.0008 -0.0726 -0.5874
    7ccc     C7  232   1.804   4.502   5.879 -0.3067  0.6513  0.2742
    7ccc    H12  233   1.773   4.429   5.804  1.0561  0.3685 -0.0297
    7ccc    H13  234   1.773   4.598   5.836  0.4742  1.2052  0.9194
    7ccc     C8  235   1.958   4.481   5.877 -0.4873  0.2578 -0.5757
    7ccc    H14  236   2.012   4.563   5.927 -0.5700  0.8077 -1.3808
    7ccc    H15  237   1.988   4.395   5.938  2.4772  2.1242  0.8531
    7ccc     C9  238   1.995   4.451   5.728  0.5515  0.3496  0.0774
    7ccc     O3  239   1.909   4.445   5.636 -0.1086  0.3173  0.0807
    7ccc     O4  240   2.109   4.380   5.715  0.1690 -0.1356 -0.0897
    7ccc    H16  241   2.171   4.419   5.780  0.9542 -1.6394  0.1103
    7ccc     O5  242   1.878   4.767   6.304 -0.0725 -0.3966  0.0598
    7ccc    H17  243   1.744   4.387   6.050 -2.4471  0.2205  2.5823
    8ccc     C1  244   3.433   5.071   7.235 -0.3562 -0.2592  0.0877
    8ccc     H1  245   3.540   5.089   7.253  0.0163  0.8154 -2.6631
    8ccc     H2  246   3.370   5.121   7.309  0.0118  0.4945 -0.0915
    8ccc     C2  247   3.403   4.927   7.221  0.0686 -0.4369  0.5796
    8ccc     H3  248   3.300   4.910   7.185 -0.2319  1.5650  0.4120
    8ccc     H4  249   3.399   4.880   7.320  0.7840  0.1450  0.8851
    8ccc     C3  250   3.507   4.844   7.149  0.1635 -0.2256 -0.5509
    8ccc     H5  251   3.538   4.755   7.205  0.7713 -0.8750 -1.8737
    8ccc     H6  252   3.600   4.899   7.136  0.2921 -0.6737 -1.5829
    8ccc     N1  253   3.466   4.790   7.009 -0.0479 -0.5464 -0.6740
    8ccc     C4  254   3.420   4.895   6.906  0.2267 -0.1489 -0.1043
    8ccc     H7  255   3.505   4.951   6.866  1.8663 -0.3321  2.8422
    8ccc     H8  256   3.350   4.960   6.959  1.6631  0.1003  1.6248
    8ccc     C5  257   3.348   4.828   6.788  0.3143 -0.3084  0.1831
    8ccc     H9  258   3.409   4.753   6.736  0.5583 -0.8005  1.1455
    8ccc    H10  259   3.260   4.765   6.808 -0.0121  0.0986  0.0425
    8ccc     C6  260   3.290   4.930   6.695 -0.0247  1.2157  0.0330
    8ccc     O1  261   3.225   5.027   6.725  0.2922 -0.2793 -0.1810
    8ccc     O2  262   3.278   4.882   6.572  0.1696  0.3454 -0.2474
    8ccc    H11  263   3.199   4.928   6.537 -0.3889  2.5775  3.4588
    8ccc     C7  264   3.579   4.710   6.943  0.0293 -0.3953 -0.2508
    8ccc    H12  265   3.561   4.715   6.836 -0.6217  0.7480 -0.1072
    8ccc    H13  266   3.675   4.760   6.952  0.1970 -0.9244  1.1568
    8ccc     C8  267   3.585   4.561   6.979  0.0600  0.6706  0.1610
    8ccc    H14  268   3.487   4.514   6.963  1.4198 -2.2086 -0.4362
    8ccc    H15  269   3.643   4.502   6.908 -1.3623  0.3728 -0.8012
    8ccc     C9  270   3.647   4.525   7.116  0.4143  0.0007  0.2264
    8ccc     O3  271   3.739   4.586   7.162 -0.3605 -0.3175 -0.0651
    8ccc     O4  272   3.571   4.448   7.195 -0.2233  1.0314  0.2780
    8ccc    H16  273   3.615   4.456   7.282  0.0528 -0.2750  0.2875
    8ccc     O5  274   3.391   5.127   7.103  0.2284  0.5423  0.2478
    8ccc    H17  275   3.387   4.727   7.028 -0.1180 -0.1782  0.3577
    9ccc     C1  276   3.359   5.265   6.435  0.0963 -0.0850 -0.3138
    9ccc     H1  277   3.450   5.222   6.479  0.9640  0.6593 -1.3223
    9ccc     H2  278   3.284   5.187   6.419  0.9060 -0.6274 -1.5933
    9ccc     C2  279   3.383   5.315   6.294 -0.2407 -0.2204  0.9328
    9ccc     H3  280   3.288   5.337   6.244  1.6316  2.1265 -1.9126
    9ccc     H4  281   3.422   5.237   6.228 -2.7514  0.2104 -1.1702
    9ccc     C3  282   3.474   5.442   6.300 -0.2043  0.1388  0.2814
    9ccc     H5  283   3.568   5.395   6.330 -0.7963 -1.8053 -0.7540
    9ccc     H6  284   3.448   5.513   6.379  0.3242  0.0927  0.5039
    9ccc     N1  285   3.503   5.520   6.175 -0.1246  0.3212  0.4729
    9ccc     C4  286   3.405   5.635   6.149  0.0583 -0.1712  0.1774
    9ccc     H7  287   3.450   5.687   6.064  0.6240  0.0876  0.6346
    9ccc     H8  288   3.417   5.702   6.234  0.9215  1.2528 -1.0229
    9ccc     C5  289   3.257   5.597   6.126  0.3606 -0.6974  0.0953
    9ccc     H9  290   3.247   5.502   6.071 -1.6591  0.6047 -2.0037
    9ccc    H10  291   3.200   5.591   6.219 -0.1717  0.3999 -0.1462
    9ccc     C6  292   3.193   5.697   6.037  0.3361 -0.4986  0.3547
    9ccc     O1  293   3.166   5.688   5.920 -0.0236 -0.2288 -0.4247
    9ccc     O2  294   3.182   5.812   6.099  0.7088 -0.5726  1.0077
    9ccc    H11  295   3.203   5.797   6.193 -0.2883  0.5472  1.4491
    9ccc     C7  296   3.641   5.589   6.194 -0.0899 -0.0032 -0.7064
    9ccc    H12  297   3.633   5.685   6.142 -3.1272  0.1243 -0.1752
    9ccc    H13  298   3.654   5.617   6.299 -0.4138  0.3509 -0.7560
    9ccc     C8  299   3.769   5.514   6.165 -0.1879  0.6881 -0.2604
    9ccc    H14  300   3.770   5.430   6.235  0.2515  1.3815  0.5903
    9ccc    H15  301   3.768   5.476   6.062 -0.5872 -1.3936  0.4645
    9ccc     C9  302   3.887   5.604   6.178 -0.1595  0.2799 -0.4250
    9ccc     O3  303   3.880   5.725   6.169 -0.5008  0.2708  0.2383
    9ccc     O4  304   4.003   5.540   6.177 -0.0896  0.3113  0.0298
    9ccc    H16  305   4.066   5.614   6.179 -0.7274  0.8654  1.7825
    9ccc     O5  306   3.300   5.380   6.507 -0.2252 -0.2436 -0.5422
    9ccc    H17  307   3.502   5.461   6.091  1.8276  0.9907 -0.0604
   10ccc     C1  308   3.310   6.422   5.347 -0.9169  0.6558 -0.6751
   10ccc     H1  309   3.234   6.411   5.270 -1.7591 -0.0037  0.2305
   10ccc     H2  310   3.307   6.524   5.388 -1.8566  0.3688  0.0010
   10ccc     C2  311   3.452   6.367   5.300  0.5695 -0.1468 -0.4151
   10ccc     H3  312   3.501   6.433   5.227 -0.8990  0.6640 -0.7160
   10ccc     H4  313   3.429   6.272   5.251 -1.5087  0.7106 -1.2519
   10ccc     C3  314   3.539   6.345   5.427  0.1146  0.4611  0.3775
   10ccc     H5  315   3.484   6.315   5.517  1.3645 -0.1189  0.9747
   10ccc     H6  316   3.581   6.441   5.458 -0.1811  0.5257  0.5856
   10ccc     N1  317   3.660   6.250   5.400  0.5557  0.1884 -0.0282
   10ccc     C4  318   3.748   6.332   5.305 -0.4258 -0.0970 -0.0836
   10ccc     H7  319   3.780   6.422   5.357 -1.6997  0.6718 -0.5776
   10ccc     H8  320   3.701   6.362   5.211  1.4826 -1.1733 -1.4566
   10ccc     C5  321   3.875   6.255   5.261 -0.0032  0.4421 -0.0420
   10ccc     H9  322   3.957   6.252   5.334  0.7360 -1.7445 -0.8881
   10ccc    H10  323   3.838   6.154   5.242 -1.6862  1.2761 -1.4804
   10ccc     C6  324   3.941   6.304   5.132  0.4042  0.1350  0.4094
   10ccc     O1  325   3.915   6.419   5.095 -0.1265 -0.2580 -0.8251
   10ccc     O2  326   4.017   6.226   5.062 -0.1089  0.7117  0.0360
   10ccc    H11  327   3.992   6.140   5.101 -0.1292  0.8123  0.2455
   10ccc     C7  328   3.725   6.227   5.534 -0.0088 -0.2862 -0.2225
   10ccc    H12  329   3.833   6.212   5.529 -0.0242 -1.1939  1.3913
   10ccc    H13  330   3.702   6.317   5.592 -1.3337 -0.0198 -1.1069
   10ccc     C8  331   3.672   6.104   5.605  0.2844 -0.1807 -0.4385
   10ccc    H14  332   3.564   6.084   5.604 -0.3331  2.7315  0.0665
   10ccc    H15  333   3.715   6.013   5.562 -0.1430 -0.7783  0.3528
   10ccc     C9  334   3.710   6.102   5.754  0.1717  0.2291 -0.3016
   10ccc     O3  335   3.781   6.187   5.811 -0.0186  0.4992 -0.1781
   10ccc     O4  336   3.704   5.979   5.804 -0.8077  0.2908  0.7915
   10ccc    H16  337   3.743   5.988   5.893  0.1901  0.1894  0.3699
   10ccc     O5  338   3.265   6.327   5.451 -0.2596 -0.6140 -0.2635
   10ccc    H17  339   3.626   6.164   5.355 -1.8025  1.0640 -0.0818
   11ccc     C1  340   2.721   5.831   4.949 -0.4218  0.1257 -0.3510
   11ccc     H1  341   2.797   5.771   4.898 -1.0898 -1.1098  0.0519
   11ccc     H2  342   2.646   5.782   5.012 -1.6385  0.3340 -1.5825
   11ccc     C2  343   2.639   5.917   4.846  0.3750 -0.0838 -0.3614
   11ccc     H3  344   2.583   5.851   4.777 -0.7151 -0.5216  0.8926
   11ccc     H4  345   2.708   5.978   4.786  1.3957 -0.7900  0.0631
   11ccc     C3  346   2.528   6.001   4.916  0.1944 -0.6437  0.6144
   11ccc     H5  347   2.571   6.083   4.974 -1.2844  2.2963 -2.0872
   11ccc     H6  348   2.476   5.935   4.985 -0.0248 -1.3919 -0.2572
   11ccc     N1  349   2.436   6.097   4.830 -0.2259  0.3367  0.0718
   11ccc     C4  350   2.344   6.171   4.930  0.0819  0.4760  0.3531
   11ccc     H7  351   2.301   6.259   4.884  0.9038  0.4954 -0.3974
   11ccc     H8  352   2.405   6.220   5.007 -0.3610 -0.5322  1.3868
   11ccc     C5  353   2.236   6.095   5.010  0.4625 -0.0081 -0.2354
   11ccc     H9  354   2.155   6.053   4.949  1.0210 -2.7724  0.7729
   11ccc    H10  355   2.283   6.004   5.049  0.6889 -0.1691 -0.8703
   11ccc     C6  356   2.177   6.171   5.134  0.2043  0.3297 -0.9475
   11ccc     O1  357   2.223   6.272   5.177 -0.5739  0.2026  0.2130
   11ccc     O2  358   2.084   6.105   5.214  0.0010 -0.5651 -0.0143
   11ccc    H11  359   2.063   6.013   5.193 -2.5591 -0.9037  3.3007
   11ccc     C7  360   2.518   6.197   4.752  0.3610  0.1926 -0.7832
   11ccc    H12  361   2.553   6.270   4.825 -1.9009 -0.9502  1.6036
   11ccc    H13  362   2.603   6.144   4.708  1.1032 -0.3737  1.2364
   11ccc     C8  363   2.442   6.263   4.641 -0.3409  0.3923  0.8313
   11ccc    H14  364   2.384   6.200   4.573  0.0020  1.4110 -0.4324
   11ccc    H15  365   2.375   6.342   4.676  1.0222  1.6634  0.6773
   11ccc     C9  366   2.538   6.341   4.545  1.7445 -0.2928  0.6381
   11ccc     O3  367   2.595   6.438   4.577  0.7982  0.4143  0.0698
   11ccc     O4  368   2.571   6.275   4.433 -0.0328 -0.0004  0.1166
   11ccc    H16  369   2.612   6.346   4.381  1.2964 -0.2908  0.7247
   11ccc     O5  370   2.793   5.928   5.034 -0.7014  0.1577 -0.4153
   11ccc    H17  371   2.376   6.041   4.767  0.5826  0.6488 -1.0051
   12ccc     C1  372   2.387   6.154   7.462  0.0932  0.3024  0.0822
   12ccc     H1  373   2.335   6.058   7.462  1.2904 -0.3642 -0.2618
   12ccc     H2  374   2.489   6.141   7.498 -0.5283 -0.1040  1.8044
   12ccc     C2  375   2.313   6.260   7.552  0.1822  0.6863 -0.0271
   12ccc     H3  376   2.339   6.233   7.655  0.7629 -1.2803 -0.6466
   12ccc     H4  377   2.205   6.241   7.550 -0.2560  2.9853 -0.6051
   12ccc     C3  378   2.345   6.402   7.504 -0.1158 -0.1166 -0.1765
   12ccc     H5  379   2.286   6.420   7.415  0.4044  0.2260 -0.4593
   12ccc     H6  380   2.453   6.398   7.488  0.2439  1.5888  1.4936
   12ccc     N1  381   2.311   6.509   7.600 -0.5575  0.2938 -0.4671
   12ccc     C4  382   2.381   6.492   7.734 -0.0863 -0.4472 -0.3076
   12ccc     H7  383   2.490   6.503   7.725 -0.2951  1.7804 -0.8580
   12ccc     H8  384   2.358   6.391   7.767 -1.8089  0.4910  1.5374
   12ccc     C5  385   2.324   6.583   7.847  0.3568 -0.1269  0.2364
   12ccc     H9  386   2.351   6.685   7.819  2.3598 -0.7004 -0.0998
   12ccc    H10  387   2.216   6.584   7.862  0.2870 -1.3278 -0.0521
   12ccc     C6  388   2.391   6.547   7.982 -0.3184  0.2453 -0.0599
   12ccc     O1  389   2.466   6.452   7.993 -0.1588 -1.1669  0.1476
   12ccc     O2  390   2.325   6.593   8.091 -0.0389 -0.1947 -0.4985
   12ccc    H11  391   2.269   6.663   8.054 -0.5488 -1.2369 -1.7600
   12ccc     C7  392   2.349   6.642   7.544  0.6068  0.3224  0.7839
   12ccc    H12  393   2.299   6.657   7.448 -0.7161 -0.9446  1.2496
   12ccc    H13  394   2.305   6.723   7.603  0.2046  1.3129 -0.8163
   12ccc     C8  395   2.496   6.675   7.522 -0.4029 -0.1585 -0.2145
   12ccc    H14  396   2.552   6.673   7.616 -2.2388 -2.8195  0.9717
   12ccc    H15  397   2.546   6.604   7.455 -1.0940 -0.1083 -0.7969
   12ccc     C9  398   2.523   6.812   7.456 -0.2198  0.8463  0.3836
   12ccc     O3  399   2.435   6.877   7.400  0.1083  0.4374  0.2078
   12ccc     O4  400   2.651   6.840   7.448 -0.1255 -0.2685 -0.2888
   12ccc    H16  401   2.649   6.932   7.414 -0.7492  0.2240  1.0376
   12ccc     O5  402   2.382   6.215   7.327  0.1128  1.0811  0.0174
   12ccc    H17  403   2.209   6.500   7.614 -0.2054 -2.8066  0.9915
   13ccc     C1  404   2.594   6.972   7.024 -0.2655  0.1915 -0.2105
   13ccc     H1  405   2.601   7.017   7.123 -0.2364 -1.1732  0.4334
   13ccc     H2  406   2.687   6.982   6.967  0.6008 -1.5118  0.8220
   13ccc     C2  407   2.483   7.021   6.925  0.3311  0.3254  0.1096
   13ccc     H3  408   2.466   6.943   6.850  2.0243  0.7617 -0.7756
   13ccc     H4  409   2.527   7.106   6.871  1.0366 -1.2224 -1.8903
   13ccc     C3  410   2.353   7.068   6.999  0.1301 -0.0079 -0.1785
   13ccc     H5  411   2.318   7.161   6.955 -1.3399  0.0372  0.9895
   13ccc     H6  412   2.384   7.096   7.100 -0.5850  1.9152 -0.4447
   13ccc     N1  413   2.232   6.973   7.004  0.7811  0.0226  0.0949
   13ccc     C4  414   2.263   6.857   7.105 -0.1061  0.4796 -0.2467
   13ccc     H7  415   2.272   6.908   7.201 -0.6673  0.7156 -0.3136
   13ccc     H8  416   2.359   6.813   7.076 -0.4288  0.5482 -1.5026
   13ccc     C5  417   2.153   6.752   7.107  0.4029 -0.5669  0.0142
   13ccc     H9  418   2.057   6.785   7.147  0.0797  0.4762 -1.5286
   13ccc    H10  419   2.138   6.729   7.001  0.6580 -0.0912 -0.1257
   13ccc     C6  420   2.197   6.626   7.174  0.2829  0.2226 -0.1326
   13ccc     O1  421   2.311   6.603   7.206  0.4531 -0.1848  0.3056
   13ccc     O2  422   2.114   6.524   7.156  0.0026  0.1474 -0.0548
   13ccc    H11  423   2.031   6.555   7.115 -2.0345 -1.4333  2.5369
   13ccc     C7  424   2.113   7.055   7.039 -0.3139 -0.4801 -0.0194
   13ccc    H12  425   2.094   7.113   6.950  0.5942 -0.8062 -0.4424
   13ccc    H13  426   2.029   6.987   7.053 -0.0168 -1.3934 -2.2752
   13ccc     C8  427   2.114   7.159   7.157  0.0495  0.6903 -0.1133
   13ccc    H14  428   2.122   7.096   7.246  1.6496 -1.0200 -1.3767
   13ccc    H15  429   2.191   7.236   7.150 -0.0896  0.7139 -1.7598
   13ccc     C9  430   1.982   7.226   7.165  0.5114 -0.0849 -1.1978
   13ccc     O3  431   1.901   7.247   7.077 -0.1097  0.2507 -0.3995
   13ccc     O4  432   1.987   7.309   7.270 -0.2056  0.0285 -0.4391
   13ccc    H16  433   1.895   7.340   7.271 -0.1355  0.2338 -0.3394
   13ccc     O5  434   2.572   6.831   7.050 -0.6496 -0.1571 -0.2290
   13ccc    H17  435   2.212   6.937   6.910  0.7065 -1.5429  0.6875
   14SOL     OW  436   0.543   4.858   5.040 -0.7532  0.4480  0.5543
   14SOL    HW1  437   0.466   4.801   5.042 -0.4077 -0.0308  0.4312
   14SOL    HW2  438   0.616   4.801   5.064 -0.6600  1.2974  2.4277
   15SOL     OW  439   3.042   0.701   2.549 -0.1921  0.4769  0.3355
   15SOL    HW1  440   3.109   0.728   2.612  0.2192  1.6868 -0.5745
   15SOL    HW2  441   3.057   0.608   2.536  3.1519  1.1177 -1.8476
   16SOL     OW  442   3.373   1.577   6.405  0.1218  0.5485 -0.5209
   16SOL    HW1  443   3.423   1.595   6.485  0.8707 -0.0520 -0.8442
   16SOL    HW2  444   3.288   1.546   6.437  0.6522 -0.3617  0.0576
   17SOL     OW  445   0.827   5.727   0.415 -0.0342 -0.0900 -0.6193
   17SOL    HW1  446   0.918   5.697   0.422 -0.2386 -0.3374  2.4676
   17SOL    HW2  447   0.833   5.818   0.386  1.2301 -0.0235 -0.2077
   18SOL     OW  448   6.603   4.154   5.209  0.1810  0.1257 -0.4567
   18SOL    HW1  449   6.692   4.119   5.197  0.3246  0.0970  0.6213
   18SOL    HW2  450   6.610   4.212   5.284 -0.3352  1.5384 -1.4544
   19SOL     OW  451   1.412   2.461   6.433 -0.3290 -0.2679  0.0922
   19SOL    HW1  452   1.403   2.366   6.443 -0.1588 -0.4923 -1.5949
   19SOL    HW2  453   1.501   2.473   6.400 -0.0542  0.5667  1.0899
   20SOL     OW  454   5.096   5.413   3.953  0.3711  0.1799  0.2843
   20SOL    HW1  455   5.070   5.386   4.041 -1.0295 -0.0796 -0.1878
   20SOL    HW2  456   5.185   5.380   3.943  0.7722  0.7509  1.8204
   21SOL     OW  457   2.364   3.828   5.705 -0.1171  0.2519 -0.5720
   21SOL    HW1  458   2.362   3.833   5.609  3.4714 -0.4819 -0.8010
   21SOL    HW2  459   2.378   3.736   5.724  2.4901  0.7694  0.4268
   22SOL     OW  460   6.219   4.916   3.731 -0.4237 -0.2066 -0.2114
   22SOL    HW1  461   6.131   4.882   3.750 -0.2234 -0.4969  0.2108
   22SOL    HW2  462   6.229   4.989   3.792 -1.2123  1.2263 -1.7411
   23SOL     OW  463   4.846   4.722   5.462  0.2143 -0.4617 -0.2292
   23SOL    HW1  464   4.925   4.703   5.412  0.8807  1.7650 -0.1129
   23SOL    HW2  465   4.874   4.784   5.529 -1.2648 -1.1113  1.0694
   24SOL     OW  466   0.248   0.690   1.871  0.2170 -0.9692 -1.1428
   24SOL    HW1  467   0.192   0.612   1.864 -2.0180  0.4195 -0.0101
   24SOL    HW2  468   0.235   0.736   1.788  1.6602 -1.8326 -1.8758
   25SOL     OW  469   1.481   3.557   3.984  0.1563  0.5887 -0.7143
   25SOL    HW1  470   1.482   3.550   3.888 -1.5288 -0.9347 -0.6932
   25SOL    HW2  471   1.451   3.646   4.002 -0.5059  0.5620 -1.6275
   26SOL     OW  472   6.210   0.596   0.422  0.0035 -0.3355 -0.2072
   26SOL    HW1  473   6.291   0.639   0.395  1.8953 -2.7927  1.1868
   26SOL    HW2  474   6.186   0.639   0.504  0.0583  0.1564 -0.4437
   27SOL     OW  475   1.522   1.028   2.394  0.6260  0.0977 -0.1551
   27SOL    HW1  476   1.543   0.937   2.416 -0.0979  0.1597  0.8425
   27SOL    HW2  477   1.544   1.078   2.472  0.3684  0.6860 -0.4502
   28SOL     OW  478   4.167   1.934   6.766 -0.0256 -0.5231  0.4764
   28SOL    HW1  479   4.246   1.899   6.727  0.2879 -0.9143  1.4233
   28SOL    HW2  480   4.182   2.029   6.770 -0.8432 -0.2339 -2.0086
   29SOL     OW  481   1.366   0.574   6.850 -0.5591 -0.0375 -0.4779
   29SOL    HW1  482   1.461   0.574   6.836 -0.6648 -1.7031 -1.4867
   29SOL    HW2  483   1.347   0.661   6.886  1.3316  0.3449 -0.2950
   30SOL     OW  484   4.183   3.063   3.847  0.2192  0.0316 -0.2006
   30SOL    HW1  485   4.244   3.105   3.787  1.2408  0.1573  0.9068
   30SOL    HW2  486   4.133   3.135   3.885 -0.1577 -0.0189 -0.5857
   31SOL     OW  487   5.197   0.951   2.739 -0.7734 -0.1179  0.1308
   31SOL    HW1  488   5.132   0.942   2.808 -0.5584  2.1453  0.6990
   31SOL    HW2  489   5.281   0.950   2.784 -0.4323 -1.7849 -0.4691
   32SOL     OW  490   1.355   6.410   3.373  0.1850 -0.0531 -0.3251
   32SOL    HW1  491   1.426   6.351   3.398 -0.7416 -0.5585  1.3340
   32SOL    HW2  492   1.398   6.492   3.350  1.4604 -1.1529 -2.0790
   33SOL     OW  493   1.364   6.178   5.118 -0.3919  0.1230 -0.5873
   33SOL    HW1  494   1.337   6.107   5.177 -1.3423 -0.6932 -1.9600
   33SOL    HW2  495   1.328   6.154   5.033 -0.1345  1.9208 -1.2463
   34SOL     OW  496   2.483   6.021   4.177 -0.0181 -0.1443 -0.1108
   34SOL    HW1  497   2.413   6.060   4.230  0.3380 -0.9148  0.9514
   34SOL    HW2  498   2.478   5.927   4.195  1.1826 -0.2298 -0.1416
   35SOL     OW  499   4.394   6.503   5.531 -0.2016 -0.3065  0.8726
   35SOL    HW1  500   4.403   6.493   5.436  0.2657 -3.2239  1.1520
   35SOL    HW2  501   4.307   6.542   5.542  0.7973  2.7678 -0.7632
   36SOL     OW  502   5.849   3.246   1.433  0.0045 -0.2207  0.0392
   36SOL    HW1  503   5.908   3.311   1.397 -0.3619  0.8011  1.2043
   36SOL    HW2  504   5.861   3.252   1.528  1.1514 -2.9957  0.1778
   37SOL     OW  505   1.831   0.748   4.912 -0.0482 -0.2955 -0.8409
   37SOL    HW1  506   1.850   0.656   4.929  0.6439  0.0011  0.0936
   37SOL    HW2  507   1.836   0.789   4.998  0.6541  0.7865 -1.3810
   38SOL     OW  508   1.710   6.731   6.161  0.2271 -0.9949  0.7033
   38SOL    HW1  509   1.803   6.736   6.183  1.0964 -1.1722 -2.4751
   38SOL    HW2  510   1.702   6.653   6.105 -1.8603 -1.0457  0.9924
   39SOL     OW  511   3.353   0.907   2.352 -0.0374  0.5477  0.1057
   39SOL    HW1  512   3.360   0.827   2.404 -1.5456 -0.1078 -0.6207
   39SOL    HW2  513   3.383   0.976   2.410  2.0296 -0.5974  0.5100
   40SOL     OW  514   4.583   1.498   6.083  0.0456  0.2251 -0.4238
   40SOL    HW1  515   4.495   1.498   6.047  0.0733 -0.0516 -0.4916
   40SOL    HW2  516   4.600   1.590   6.105 -0.0901  0.3468 -0.8203
   41SOL     OW  517   3.699   4.714   5.051 -0.2549  0.1403 -0.3826
   41SOL    HW1  518   3.698   4.799   5.095  0.9788  0.7358 -1.4148
   41SOL    HW2  519   3.741   4.731   4.967  0.8540 -1.6593 -0.2563
   42SOL     OW  520   5.934   6.945   5.470  0.5761 -0.3165  0.6347
   42SOL    HW1  521   5.849   6.908   5.495  0.6150 -1.4933 -0.8231
   42SOL    HW2  522   5.930   7.036   5.499 -1.3574 -0.2309  0.2215
   43SOL     OW  523   2.121   1.365   0.897  0.4279  0.0564  0.1833
   43SOL    HW1  524   2.151   1.401   0.814  0.2487 -0.6225 -0.1782
   43SOL    HW2  525   2.056   1.298   0.873  0.4274 -0.1961  0.8592
   44SOL     OW  526   4.199   2.448   2.468 -0.5137 -0.6573 -0.0057
   44SOL    HW1  527   4.177   2.395   2.544  0.0294  0.2524  0.8144
   44SOL    HW2  528   4.238   2.387   2.405  0.0355 -1.2382  0.8845
   45SOL     OW  529   1.438   1.995   2.328  0.2039  0.2290 -0.0646
   45SOL    HW1  530   1.427   1.935   2.254  0.1734 -0.3636  0.4116
   45SOL    HW2  531   1.401   2.077   2.298 -1.1925 -0.4192 -0.1956
   46SOL     OW  532   3.585   0.859   5.098 -0.0094 -0.1495  0.1019
   46SOL    HW1  533   3.653   0.874   5.164 -0.0840 -0.6275  0.2875
   46SOL    HW2  534   3.503   0.860   5.148 -0.0310 -0.9954  0.0987
   47SOL     OW  535   4.324   6.736   2.741  0.4116 -0.2737  0.1772
   47SOL    HW1  536   4.272   6.816   2.744 -1.6839 -1.5725  2.0375
   47SOL    HW2  537   4.388   6.751   2.671 -1.2939  2.1424 -1.0038
   48SOL     OW  538   4.534   3.519   5.868  0.1937 -0.0602  0.2707
   48SOL    HW1  539   4.490   3.536   5.784  0.2143 -0.0579  0.2605
   48SOL    HW2  540   4.549   3.424   5.867 -2.5477 -0.6110  1.5955
   49SOL     OW  541   3.067   1.769   1.176  0.4996  0.3117  0.4537
   49SOL    HW1  542   3.087   1.822   1.099 -1.9207 -0.2956 -0.6668
   49SOL    HW2  543   2.989   1.810   1.214 -1.2177 -2.1487 -0.2291
   50SOL     OW  544   1.311   4.595   4.337  0.2153  0.2482 -0.3885
   50SOL    HW1  545   1.300   4.541   4.416 -1.2136 -1.7616 -1.8607
   50SOL    HW2  546   1.244   4.663   4.344 -0.7041 -0.6313 -0.3757
   51SOL     OW  547   1.194   3.516   1.999 -0.4568  0.0973 -0.5179
   51SOL    HW1  548   1.163   3.432   2.032  0.0658 -0.1740 -0.7134
   51SOL    HW2  549   1.219   3.499   1.908  0.7768  0.1762 -0.2083
   52SOL     OW  550   2.282   2.547   1.456  0.2249  0.5501 -0.8180
   52SOL    HW1  551   2.268   2.495   1.377  1.5957 -0.9066 -0.1593
   52SOL    HW2  552   2.377   2.548   1.468  0.2787  3.4389 -0.9013
   53SOL     OW  553   6.255   6.135   1.062 -0.2431  0.4656  0.3997
   53SOL    HW1  554   6.286   6.217   1.102 -1.0355  0.0779  1.9040
   53SOL    HW2  555   6.331   6.078   1.063  0.4326  1.2880 -1.0395
   54SOL     OW  556   1.020   2.455   1.033 -0.1637  0.0617 -0.2122
   54SOL    HW1  557   1.066   2.392   1.089 -2.3303 -0.8986  0.6063
   54SOL    HW2  558   1.008   2.409   0.950  1.3015  0.7423 -0.8258
   55SOL     OW  559   1.835   0.771   0.265 -0.7254  0.1627  0.0239
   55SOL    HW1  560   1.929   0.759   0.281 -0.2658  1.5975 -1.3915
   55SOL    HW2  561   1.821   0.865   0.273 -1.5286  0.2885 -2.1389
   56SOL     OW  562   5.336   1.721   0.563 -0.1960 -0.0588  0.4649
   56SOL    HW1  563   5.422   1.762   0.556 -0.8823  1.4154  0.3385
   56SOL    HW2  564   5.326   1.673   0.480  1.2266 -1.7994  1.2282
   57SOL     OW  565   4.977   0.743   3.427 -0.1494  0.6301 -0.1094
   57SOL    HW1  566   4.888   0.774   3.442 -0.5386 -0.7562  0.6039
   57SOL    HW2  567   4.967   0.650   3.407  0.8893  1.0400 -3.0014
   58SOL     OW  568   1.762   4.859   4.717 -0.5990 -0.0773  1.1174
   58SOL    HW1  569   1.753   4.777   4.668 -0.2564 -0.2757  1.3783
   58SOL    HW2  570   1.837   4.902   4.678 -1.1796  0.4286  0.5438
   59SOL     OW  571   3.083   4.395   0.128  0.0057  0.0285 -0.4329
   59SOL    HW1  572   3.071   4.301   0.119  3.4683 -0.5689 -0.3539
   59SOL    HW2  573   3.073   4.412   0.222 -0.6406 -0.2526 -0.4515
   60SOL     OW  574   3.929   1.971   6.361 -0.8752  0.2946 -0.3404
   60SOL    HW1  575   3.841   1.986   6.395 -0.9901  0.9866 -0.9187
   60SOL    HW2  576   3.946   1.878   6.378 -0.4248  0.8146  2.7508
   61SOL     OW  577   0.806   1.453   0.761 -0.0608 -0.4265 -0.0781
   61SOL    HW1  578   0.899   1.467   0.748 -0.2973 -1.0898 -3.3543
   61SOL    HW2  579   0.795   1.358   0.759 -0.5946 -0.5333  3.0186
   62SOL     OW  580   0.181   5.679   1.048 -0.1514  0.2167 -0.0717
   62SOL    HW1  581   0.171   5.589   1.016 -0.7779  0.7394 -1.4452
   62SOL    HW2  582   0.110   5.689   1.112  0.6514 -0.6161  0.9785
   63SOL     OW  583   1.044   5.319   6.575 -0.3566 -0.9424  0.3487
   63SOL    HW1  584   0.959   5.334   6.617  0.7280  2.0268  1.7793
   63SOL    HW2  585   1.046   5.382   6.502  0.8107 -0.5232  0.7220
   64SOL     OW  586   6.173   4.967   3.280  0.0502 -0.0311  0.5923
   64SOL    HW1  587   6.080   4.986   3.294 -0.3949 -1.3506 -0.4306
   64SOL    HW2  588   6.204   5.040   3.226  0.3981  2.0244  3.3175
   65SOL     OW  589   0.085   1.633   6.033 -0.4773  0.2102 -0.0150
   65SOL    HW1  590   0.168   1.586   6.036 -0.2124  0.6446  2.9273
   65SOL    HW2  591   0.108   1.724   6.056 -1.6003  0.5973 -0.3638
   66SOL     OW  592   4.670   2.782   2.929 -0.3264  0.1807 -0.1449
   66SOL    HW1  593   4.638   2.846   2.865  1.7531  1.1369 -0.3099
   66SOL    HW2  594   4.765   2.788   2.923 -0.0632 -2.4535  0.3536
   67SOL     OW  595   5.237   2.820   6.703  0.0210 -0.1259 -0.6780
   67SOL    HW1  596   5.166   2.872   6.664 -0.1855 -1.0250 -1.5628
   67SOL    HW2  597   5.312   2.879   6.704 -0.5279  0.5774 -0.5099
   68SOL     OW  598   6.329   5.733   4.458 -0.3983  0.1348 -0.4341
   68SOL    HW1  599   6.276   5.692   4.526  0.6610  0.0967  0.3796
   68SOL    HW2  600   6.317   5.677   4.381 -1.0111 -0.2309 -0.0794
   69SOL     OW  601   3.691   0.417   2.900 -0.2818 -0.1583 -0.7210
   69SOL    HW1  602   3.770   0.407   2.846  0.2077 -1.1001  0.1478
   69SOL    HW2  603   3.712   0.374   2.983 -2.0971 -1.3877 -0.8448
   70SOL     OW  604   2.196   2.607   3.874 -0.8824 -0.1863  0.3855
   70SOL    HW1  605   2.186   2.590   3.780 -3.3820  0.3953  0.4878
   70SOL    HW2  606   2.269   2.668   3.879  1.4626 -2.6430 -0.8432
   71SOL     OW  607   6.047   2.762   1.431 -0.2079  0.1609  0.8687
   71SOL    HW1  608   6.136   2.738   1.407 -0.6755 -1.0347  0.2668
   71SOL    HW2  609   6.001   2.678   1.438 -1.0102  0.6910  2.2985
   72SOL     OW  610   3.125   1.310   5.300 -0.4940  0.0169  0.1274
   72SOL    HW1  611   3.048   1.348   5.259  0.1349  0.9165 -0.2329
   72SOL    HW2  612   3.092   1.230   5.342 -1.0725 -1.2458 -2.5313
   73SOL     OW  613   3.792   6.750   2.863  0.0195  0.1674  0.5568
   73SOL    HW1  614   3.853   6.752   2.937 -0.3475  0.1999  0.8602
   73SOL    HW2  615   3.848   6.741   2.786  0.9004  5.0502  0.2949
   74SOL     OW  616   6.714   4.191   6.261 -0.2276  0.0373  0.3964
   74SOL    HW1  617   6.664   4.271   6.252  0.4535  0.3120 -1.5541
   74SOL    HW2  618   6.673   4.130   6.199  0.9746 -0.1615 -0.2417
   75SOL     OW  619   1.632   6.503   4.007 -0.2996 -0.2292 -0.1699
   75SOL    HW1  620   1.639   6.451   4.088 -0.0544  0.9459  0.5868
   75SOL    HW2  621   1.720   6.502   3.971 -0.8377 -2.5546 -1.6234
   76SOL     OW  622   0.416   4.410   4.507  0.1009  0.4073  0.7468
   76SOL    HW1  623   0.408   4.367   4.422  0.8134  2.1517 -0.2634
   76SOL    HW2  624   0.330   4.402   4.547 -0.8493  1.2404 -1.0100
   77SOL     OW  625   2.767   2.472   4.310 -0.1878 -0.0762  0.0303
   77SOL    HW1  626   2.729   2.549   4.270 -0.0463 -0.3278 -0.5908
   77SOL    HW2  627   2.780   2.497   4.402 -2.0134 -0.0489  0.3128
   78SOL     OW  628   6.057   6.194   4.013  0.0919  0.2255  0.2543
   78SOL    HW1  629   6.097   6.112   3.981 -1.2062 -1.1495  1.9700
   78SOL    HW2  630   6.109   6.218   4.089  1.0301  1.5581 -0.7680
   79SOL     OW  631   3.853   4.423   6.285 -0.5152 -0.0998  0.4474
   79SOL    HW1  632   3.792   4.408   6.213  1.2109 -0.3211 -1.0456
   79SOL    HW2  633   3.877   4.516   6.277  0.1808 -0.2847  0.3154
   80SOL     OW  634   3.253   3.236   3.223  0.3490 -0.3749 -0.7859
   80SOL    HW1  635   3.166   3.266   3.195  1.5020  1.6674 -2.4299
   80SOL    HW2  636   3.254   3.250   3.318 -0.6487  0.9246 -0.9391
   81SOL     OW  637   4.654   0.572   4.277 -0.1243  0.1211 -0.0997
   81SOL    HW1  638   4.648   0.654   4.326 -0.7616  0.1740 -0.2569
   81SOL    HW2  639   4.655   0.504   4.344 -1.7376  0.1516 -0.0016
   82SOL     OW  640   4.935   2.955   0.820 -0.4650 -0.0152  0.0971
   82SOL    HW1  641   4.849   2.976   0.856  0.0035 -0.1815  1.3560
   82SOL    HW2  642   4.925   2.868   0.782 -0.9513  0.1267 -0.0994
   83SOL     OW  643   4.249   0.248   5.081  0.2024 -0.1739 -0.3236
   83SOL    HW1  644   4.173   0.307   5.076 -0.3284 -0.8107  0.0377
   83SOL    HW2  645   4.215   0.163   5.053  1.1569 -0.1565 -1.6448
   84SOL     OW  646   2.012   4.352   1.821  0.3762 -0.0474 -0.7349
   84SOL    HW1  647   2.094   4.371   1.866 -0.5879 -0.3042  1.2300
   84SOL    HW2  648   1.969   4.437   1.812  0.9160  0.1192 -1.9668
   85SOL     OW  649   2.789   3.883   2.252  0.5772  0.2126  0.2614
   85SOL    HW1  650   2.727   3.811   2.265 -0.1194  0.5943 -0.8189
   85SOL    HW2  651   2.751   3.956   2.301 -1.1924  1.1708 -2.3024
   86SOL     OW  652   5.688   6.272   0.229 -0.1863  0.1116  0.3340
   86SOL    HW1  653   5.632   6.252   0.154  0.9701  0.2522 -0.6124
   86SOL    HW2  654   5.679   6.367   0.240  1.7887  0.6162 -1.5297
   87SOL     OW  655   5.969   4.710   2.293  0.4579 -0.1322  0.1197
   87SOL    HW1  656   6.006   4.685   2.378  0.5985  0.9397  0.3887
   87SOL    HW2  657   6.043   4.705   2.233  0.3629 -0.8743  0.0486
   88SOL     OW  658   0.623   6.798   1.102 -0.1260 -0.3940 -0.5841
   88SOL    HW1  659   0.601   6.707   1.086 -0.5137 -0.2776 -0.7151
   88SOL    HW2  660   0.539   6.844   1.100  0.2084  0.1801 -1.9082
   89SOL     OW  661   6.510   0.362   3.433 -0.3005  0.1846 -0.2863
   89SOL    HW1  662   6.549   0.359   3.521 -0.4113 -2.1002 -0.2410
   89SOL    HW2  663   6.432   0.416   3.443  0.7989  1.6919  0.5067
   90SOL     OW  664   3.607   2.920   6.753 -0.0276 -0.1560 -0.0968
   90SOL    HW1  665   3.679   2.864   6.782 -1.1435 -2.6032 -1.6560
   90SOL    HW2  666   3.612   2.997   6.809  3.2922 -0.5642  0.3669
   91SOL     OW  667   6.419   2.246   2.410  0.4718 -0.3665 -0.1658
   91SOL    HW1  668   6.397   2.340   2.413  1.4036 -0.1485  0.7086
   91SOL    HW2  669   6.415   2.223   2.318  1.2333  0.8082 -0.5157
   92SOL     OW  670   2.470   0.293   3.443  0.1913 -0.6449  0.6196
   92SOL    HW1  671   2.562   0.297   3.469 -0.0215 -0.3394  1.3412
   92SOL    HW2  672   2.432   0.226   3.501  0.0133 -0.9497  0.1551
   93SOL     OW  673   0.879   5.496   3.347 -0.2441  0.1029  0.1441
   93SOL    HW1  674   0.900   5.567   3.286  2.0275 -0.9256 -0.3660
   93SOL    HW2  675   0.788   5.512   3.372 -0.5875  1.7400 -1.8995
   94SOL     OW  676   5.823   6.552   3.365 -0.1941 -0.3758 -0.2158
   94SOL    HW1  677   5.894   6.606   3.401 -1.4790  1.4364 -0.2618
   94SOL    HW2  678   5.792   6.501   3.440  0.4236 -0.3487  0.0682
   95SOL     OW  679   0.863   2.111   6.750  0.0791 -0.1262 -0.4850
   95SOL    HW1  680   0.876   2.069   6.835  0.2122  1.7579  0.4783
   95SOL    HW2  681   0.919   2.189   6.753  0.0837 -0.0167 -2.3111
   96SOL     OW  682   2.259   2.597   5.347 -0.2398  0.3446 -0.0855
   96SOL    HW1  683   2.186   2.656   5.366 -0.0988  0.7920 -0.8677
   96SOL    HW2  684   2.278   2.612   5.254 -1.2841 -2.1228 -0.7994
   97SOL     OW  685   6.234   0.629   4.529 -0.7774 -0.0416  0.5168
   97SOL    HW1  686   6.146   0.661   4.548 -1.1817 -0.6860 -0.2131
   97SOL    HW2  687   6.220   0.552   4.473  0.2779  0.3203 -0.2747
   98SOL     OW  688   5.146   1.288   0.162  0.0359  0.6630 -0.6386
   98SOL    HW1  689   5.146   1.199   0.128  1.1013  0.4943 -0.2409
   98SOL    HW2  690   5.221   1.291   0.221 -1.8544  0.8474  1.9358
   99SOL     OW  691   0.268   0.410   0.432 -0.5138 -0.0097 -0.0764
   99SOL    HW1  692   0.360   0.385   0.421  0.0178  1.0160  1.6611
   99SOL    HW2  693   0.271   0.505   0.444 -1.8353  0.0665 -0.2373
  100SOL     OW  694   3.580   5.321   1.727 -0.6437 -0.4071  0.3732
  100SOL    HW1  695   3.638   5.371   1.785  1.3643 -0.5879 -1.3656
  100SOL    HW2  696   3.605   5.230   1.741 -0.9126 -0.5374  0.0177
  101SOL     OW  697   3.227   1.937   0.536 -0.1415  0.5995 -0.1909
  101SOL    HW1  698   3.156   1.902   0.590 -1.9478  1.5780 -1.8183
  101SOL    HW2  699   3.306   1.918   0.586 -1.4446 -1.3103  1.3030
  102SOL     OW  700   1.088   3.960   3.467  0.4064 -0.4932  0.5659
  102SOL    HW1  701   1.103   4.034   3.525 -0.0587 -1.0477  1.4119
  102SOL    HW2  702   1.058   3.890   3.525 -0.2552 -0.9998 -0.3699
  103SOL     OW  703   3.329   3.936   3.469  0.1167  0.0378  0.4470
  103SOL    HW1  704   3.285   3.865   3.423 -1.4835 -0.1723  2.1563
  103SOL    HW2  705   3.422   3.921   3.453 -0.2950 -0.9793 -1.2491
  104SOL     OW  706   3.486   2.721   1.048 -0.1455  0.4029 -0.0169
  104SOL    HW1  707   3.488   2.778   1.125 -2.0149  0.1570  0.2700
  104SOL    HW2  708   3.560   2.749   0.995  1.1568  0.6294  1.8229
  105SOL     OW  709   6.894   6.813   5.634  0.2282 -0.2361 -0.1749
  105SOL    HW1  710   6.820   6.852   5.587  0.0820 -0.6498 -0.2880
  105SOL    HW2  711   6.853   6.759   5.702  0.4259 -0.8428 -0.5384
  106SOL     OW  712   1.957   0.096   6.087 -0.4096 -0.1701 -0.2047
  106SOL    HW1  713   1.887   0.135   6.034 -0.6451 -0.7805 -0.3631
  106SOL    HW2  714   1.911   0.032   6.143  0.0978 -1.1317 -0.8560
  107SOL     OW  715   5.526   6.619   2.019  0.3160  0.3498  0.5826
  107SOL    HW1  716   5.587   6.557   2.058  2.2723  2.0813  0.4738
  107SOL    HW2  717   5.544   6.614   1.925  0.1134  0.6893  0.5254
  108SOL     OW  718   4.915   6.196   2.594 -0.1692  0.1511  0.0567
  108SOL    HW1  719   4.891   6.190   2.687 -1.0060 -0.0859 -0.1692
  108SOL    HW2  720   4.841   6.159   2.547 -0.3753  1.5605 -0.7921
  109SOL     OW  721   3.196   5.739   2.854  0.3251 -0.0117 -0.0686
  109SOL    HW1  722   3.225   5.697   2.773  1.8447 -1.1780  1.0088
  109SOL    HW2  723   3.113   5.697   2.875 -0.2460  0.5361 -1.1662
  110SOL     OW  724   3.105   5.232   2.125 -0.1090 -0.4964  0.6603
  110SOL    HW1  725   3.043   5.251   2.054  0.7609 -1.6329 -0.4313
  110SOL    HW2  726   3.121   5.317   2.165 -0.0936  0.2933 -0.9386
  111SOL     OW  727   5.898   6.020   4.944  0.3398  0.3010 -0.5900
  111SOL    HW1  728   5.971   6.080   4.932 -0.2982  1.3555  0.6217
  111SOL    HW2  729   5.882   6.019   5.038  0.1458 -1.5751 -0.6018
  112SOL     OW  730   2.897   0.644   6.561  0.6483  0.5667 -1.0856
  112SOL    HW1  731   2.805   0.628   6.580  0.7751  1.3095  0.2966
  112SOL    HW2  732   2.896   0.715   6.496  0.2513  1.4721 -0.1106
  113SOL     OW  733   1.135   5.209   5.103 -0.3237 -0.1773 -0.1003
  113SOL    HW1  734   1.160   5.116   5.097 -1.2323 -0.3457 -1.9627
  113SOL    HW2  735   1.051   5.207   5.150 -1.5335 -0.5965 -2.1474
  114SOL     OW  736   2.742   5.494   6.830 -0.3446  0.3612  0.2183
  114SOL    HW1  737   2.728   5.403   6.806  0.3801  0.8943 -2.6820
  114SOL    HW2  738   2.764   5.492   6.923  2.5577 -2.7969 -0.3333
  115SOL     OW  739   4.725   6.012   3.114  0.1951  0.2381  0.0013
  115SOL    HW1  740   4.803   6.067   3.128 -0.2142  0.9437 -0.4446
  115SOL    HW2  741   4.664   6.068   3.067 -0.6835 -0.2417  0.5431
  116SOL     OW  742   5.026   4.564   1.813  0.2078 -0.2884 -0.5957
  116SOL    HW1  743   5.112   4.522   1.818  0.3420 -0.1667 -1.6252
  116SOL    HW2  744   5.044   4.657   1.827  0.0470 -0.4202  0.6084
  117SOL     OW  745   1.047   2.029   3.132  0.0677  0.0385 -0.4340
  117SOL    HW1  746   1.128   2.078   3.146 -0.0047 -0.1920  0.8727
  117SOL    HW2  747   1.024   2.048   3.041  1.0872  0.8474 -0.5508
  118SOL     OW  748   4.974   6.820   2.758 -0.7132  0.3157 -0.4081
  118SOL    HW1  749   5.040   6.758   2.727 -0.7168  0.6715 -1.1750
  118SOL    HW2  750   4.920   6.770   2.819  1.0060  0.3515  1.2311
  119SOL     OW  751   6.896   2.447   1.818  0.4170  0.3891  0.2359
  119SOL    HW1  752   6.846   2.520   1.781  0.4892  0.0653 -0.5026
  119SOL    HW2  753   6.846   2.369   1.794  0.3689  0.1807  0.9787
  120SOL     OW  754   3.108   2.076   1.618  0.1208 -0.1324 -0.1457
  120SOL    HW1  755   3.037   2.020   1.650  1.2661 -0.0945  2.7533
  120SOL    HW2  756   3.100   2.157   1.668  1.3014  0.4567 -0.8605
  121SOL     OW  757   2.839   6.798   6.165 -0.4637  0.4011 -0.3367
  121SOL    HW1  758   2.833   6.709   6.130  1.1275  0.3243 -0.4664
  121SOL    HW2  759   2.875   6.849   6.093 -1.0310  1.0916 -0.1404
  122SOL     OW  760   1.818   1.167   5.152 -0.2069  0.1530 -0.1436
  122SOL    HW1  761   1.811   1.204   5.065 -1.2026  0.8794  0.2197
  122SOL    HW2  762   1.891   1.214   5.193 -0.6544  0.8273 -0.1112
  123SOL     OW  763   6.889   4.633   6.703  0.1348 -0.4744 -0.5722
  123SOL    HW1  764   6.966   4.671   6.661 -0.5592  1.2347 -0.3885
  123SOL    HW2  765   6.854   4.703   6.759 -0.4011 -1.8641  0.9434
  124SOL     OW  766   0.267   5.287   2.271  0.1087 -0.1308  0.0487
  124SOL    HW1  767   0.190   5.243   2.307 -0.6307 -0.7220 -2.1033
  124SOL    HW2  768   0.265   5.375   2.310 -1.3474 -0.3037  0.4338
  125SOL     OW  769   4.132   6.666   0.649 -0.0128  0.2046 -0.1809
  125SOL    HW1  770   4.186   6.726   0.598  0.1936 -0.0651 -0.2754
  125SOL    HW2  771   4.176   6.582   0.644 -0.9303 -0.2518 -1.0616
  126SOL     OW  772   0.570   2.874   0.286 -0.5419  0.0035 -0.0263
  126SOL    HW1  773   0.563   2.837   0.198 -1.2549 -0.9017  0.3937
  126SOL    HW2  774   0.662   2.895   0.296 -0.2966 -0.7220 -0.6671
  127SOL     OW  775   5.428   4.149   0.358  0.0935  0.5019 -0.4561
  127SOL    HW1  776   5.452   4.176   0.446  0.5593  0.7012 -0.6427
  127SOL    HW2  777   5.460   4.059   0.350 -1.6439 -0.2113  0.2389
  128SOL     OW  778   6.491   5.529   5.135 -0.5686  0.2978 -0.1702
  128SOL    HW1  779   6.552   5.557   5.203 -1.3926  0.9180  0.3358
  128SOL    HW2  780   6.497   5.434   5.135  0.0688  0.3333  0.1800
  129SOL     OW  781   1.998   2.515   2.552 -0.5232  0.1149  0.2616
  129SOL    HW1  782   1.975   2.463   2.475  1.0061 -1.5084  0.8341
  129SOL    HW2  783   1.916   2.556   2.578 -1.4317 -0.6357 -1.2362
  130SOL     OW  784   6.110   5.409   1.333 -0.0900 -0.1565 -0.1986
  130SOL    HW1  785   6.167   5.467   1.384 -2.4364  2.0891  0.0882
  130SOL    HW2  786   6.077   5.346   1.397  1.3678 -0.9464 -0.1962
  131SOL     OW  787   2.669   0.671   1.475 -0.1141  0.2956 -0.5392
  131SOL    HW1  788   2.646   0.656   1.567 -1.1895  0.7948 -0.7099
  131SOL    HW2  789   2.699   0.762   1.473  1.6888 -0.2611 -0.3720
  132SOL     OW  790   2.453   5.616   3.221 -0.1978  0.1404  0.2892
  132SOL    HW1  791   2.369   5.578   3.196  0.7184 -2.3365  0.6420
  132SOL    HW2  792   2.443   5.639   3.313  0.1853 -2.5944  1.1160
  133SOL     OW  793   3.437   0.389   3.718 -0.3571  1.0162 -0.1052
  133SOL    HW1  794   3.373   0.339   3.769  0.9837 -1.4698 -0.7080
  133SOL    HW2  795   3.512   0.399   3.777  0.1645  0.5040 -0.6782
  134SOL     OW  796   6.630   2.021   2.338  0.1103  0.2465 -0.1653
  134SOL    HW1  797   6.557   2.059   2.289 -0.3896 -0.2797  0.1666
  134SOL    HW2  798   6.708   2.050   2.289 -0.3320  0.4585 -0.7653
  135SOL     OW  799   4.730   4.396   3.518  0.3522  0.3181  0.0133
  135SOL    HW1  800   4.648   4.407   3.566 -0.5579 -0.8905 -1.1863
  135SOL    HW2  801   4.777   4.328   3.565 -0.4815 -0.7776 -0.6887
  136SOL     OW  802   4.755   1.601   2.108 -0.6477 -0.7002 -0.0691
  136SOL    HW1  803   4.713   1.617   2.023  2.6365  4.7295 -1.1599
  136SOL    HW2  804   4.845   1.578   2.086  0.5367  1.7880  1.7828
  137SOL     OW  805   3.852   0.458   6.132  0.0975 -0.0646  0.1109
  137SOL    HW1  806   3.776   0.504   6.095  0.1157 -2.1298 -2.9059
  137SOL    HW2  807   3.927   0.505   6.096  0.1185 -1.4637 -1.8368
  138SOL     OW  808   4.054   3.580   4.872 -0.1495  0.4312 -0.4339
  138SOL    HW1  809   4.094   3.601   4.956 -1.0253  1.1854 -0.1879
  138SOL    HW2  810   3.960   3.592   4.886 -0.2639  1.1590 -1.6685
  139SOL     OW  811   1.650   0.416   2.669  0.3761 -0.6711  0.4864
  139SOL    HW1  812   1.745   0.430   2.664  0.4887 -1.1879  0.9547
  139SOL    HW2  813   1.624   0.461   2.750  0.1069  0.0374  0.0076
  140SOL     OW  814   2.276   2.342   3.879 -0.0134 -0.0513 -0.0397
  140SOL    HW1  815   2.258   2.435   3.866  1.2778  0.3140  0.6545
  140SOL    HW2  816   2.272   2.305   3.791  0.3019  0.8116 -0.4301
  141SOL     OW  817   1.768   2.050   4.387  0.3211  0.6573 -0.8687
  141SOL    HW1  818   1.769   1.986   4.316  1.1084  0.7216 -0.9188
  141SOL    HW2  819   1.714   2.009   4.455 -1.1013  0.9223 -1.7865
  142SOL     OW  820   1.881   4.123   3.226 -0.1776  0.1134 -0.3061
  142SOL    HW1  821   1.857   4.129   3.319 -1.3339 -0.8323 -0.5288
  142SOL    HW2  822   1.807   4.161   3.179  0.4433  0.6757 -0.8626
  143SOL     OW  823   4.420   6.440   1.575  0.0270 -0.1649  0.3879
  143SOL    HW1  824   4.392   6.489   1.498 -2.4246  0.0169  1.2997
  143SOL    HW2  825   4.410   6.502   1.648  2.5961 -0.2274  0.8927
  144SOL     OW  826   2.274   0.159   1.340 -0.5535 -0.0621  0.3012
  144SOL    HW1  827   2.345   0.105   1.306  0.0731  0.3004  0.9961
  144SOL    HW2  828   2.265   0.229   1.275 -1.4485 -1.0327 -0.6619
  145SOL     OW  829   6.062   6.782   6.737  0.3729  0.0548 -0.5640
  145SOL    HW1  830   6.096   6.860   6.694 -0.5138  0.1593 -1.0847
  145SOL    HW2  831   5.969   6.798   6.748  0.6389  0.3433  2.0452
  146SOL     OW  832   2.510   1.992   1.254 -0.3118  0.4229 -0.1434
  146SOL    HW1  833   2.417   2.010   1.236 -0.2961  0.2281 -0.4132
  146SOL    HW2  834   2.517   1.998   1.350 -0.9985 -1.4779  0.0655
  147SOL     OW  835   3.396   2.746   6.612 -0.9807  0.0033 -0.7531
  147SOL    HW1  836   3.411   2.833   6.650 -2.0621  0.8131 -2.0543
  147SOL    HW2  837   3.359   2.695   6.683 -0.3403  0.6163  0.0369
  148SOL     OW  838   0.185   2.365   1.724 -0.1342  0.5470  0.4618
  148SOL    HW1  839   0.111   2.394   1.777 -0.1298  0.6042  0.4372
  148SOL    HW2  840   0.232   2.303   1.779 -0.3942  0.2511  0.3481
  149SOL     OW  841   2.437   5.925   4.454 -0.1713  0.6836 -0.7690
  149SOL    HW1  842   2.407   5.855   4.396 -1.5376 -0.1039  0.7952
  149SOL    HW2  843   2.528   5.903   4.472 -0.5374 -0.6415 -0.4100
  150SOL     OW  844   4.659   1.769   6.086 -0.5808 -0.2138  0.5754
  150SOL    HW1  845   4.715   1.776   6.164  1.3231 -1.4636 -0.5741
  150SOL    HW2  846   4.674   1.850   6.038  0.5179 -0.6197  0.1747
  151SOL     OW  847   3.777   6.593   4.832 -0.3293 -0.1400  0.4696
  151SOL    HW1  848   3.869   6.610   4.852 -0.3184 -1.4188  1.6555
  151SOL    HW2  849   3.778   6.565   4.741  0.8611 -2.6506  1.1577
  152SOL     OW  850   3.196   0.583   1.538 -0.1343 -0.6852  0.4615
  152SOL    HW1  851   3.123   0.615   1.485  1.7991  2.7953 -0.4168
  152SOL    HW2  852   3.197   0.640   1.615  1.9910 -0.1350  0.0972
  153SOL     OW  853   6.425   0.790   3.193  0.0632  0.0848  0.2568
  153SOL    HW1  854   6.478   0.816   3.118  0.3721 -2.0862 -0.3519
  153SOL    HW2  855   6.476   0.817   3.269  0.7634  0.4232 -0.3264
  154SOL     OW  856   5.272   5.338   1.775 -0.1345 -0.2652  0.3476
  154SOL    HW1  857   5.263   5.261   1.719  1.6387  0.0218 -0.4029
  154SOL    HW2  858   5.357   5.327   1.818 -0.9518  0.0792  2.1724
  155SOL     OW  859   3.093   2.208   1.298  0.1146 -0.1593 -0.0600
  155SOL    HW1  860   3.152   2.279   1.323  0.5876 -0.5135 -0.1570
  155SOL    HW2  861   3.082   2.157   1.378 -0.1973 -0.0031  0.0003
  156SOL     OW  862   3.875   6.686   1.669 -0.2517 -0.6698 -0.1733
  156SOL    HW1  863   3.911   6.763   1.625  0.1222 -0.8254 -0.1463
  156SOL    HW2  864   3.952   6.631   1.688 -0.6700 -1.8074 -1.6206
  157SOL     OW  865   0.682   0.373   3.445  0.0717 -0.0891 -0.1316
  157SOL    HW1  866   0.732   0.436   3.497  0.3371  0.4783 -1.0454
  157SOL    HW2  867   0.593   0.409   3.444  0.0069 -0.2430  0.1576
  158SOL     OW  868   1.209   2.539   5.713  0.0486 -0.6392  0.0639
  158SOL    HW1  869   1.186   2.611   5.772 -0.1768 -0.8946  0.2859
  158SOL    HW2  870   1.305   2.543   5.706  0.1211 -0.9322  0.8550
  159SOL     OW  871   1.934   5.510   1.084  0.1379 -0.1435  0.1992
  159SOL    HW1  872   1.883   5.429   1.090 -0.7000  0.2039 -1.6314
  159SOL    HW2  873   1.972   5.508   0.996  0.9279  0.9841  0.5003
  160SOL     OW  874   6.734   6.026   5.398  0.0897  0.5784  0.2595
  160SOL    HW1  875   6.666   5.960   5.383 -0.3134  1.1940 -0.7695
  160SOL    HW2  876   6.691   6.093   5.451  0.2381  0.4341  0.5647
  161SOL     OW  877   1.646   1.389   2.124 -0.5159 -0.0305  0.2442
  161SOL    HW1  878   1.666   1.296   2.133  0.6028  0.0299 -1.2658
  161SOL    HW2  879   1.552   1.393   2.107 -0.8585 -0.7489  1.7696
  162SOL     OW  880   2.051   2.191   0.925  0.5748  0.1073  0.2887
  162SOL    HW1  881   2.005   2.228   0.849 -0.2148  0.1942  0.8009
  162SOL    HW2  882   2.138   2.169   0.891  0.4030  0.6091 -0.5172
  163SOL     OW  883   0.343   6.931   0.778 -0.0442 -0.0236  0.3450
  163SOL    HW1  884   0.418   6.987   0.758  0.0041  0.5060  1.8638
  163SOL    HW2  885   0.300   6.917   0.694  0.7972  1.0699 -0.2929
  164SOL     OW  886   2.833   4.781   2.369 -0.6526 -0.1573  0.1267
  164SOL    HW1  887   2.760   4.736   2.411  0.4475  0.1679  2.5717
  164SOL    HW2  888   2.886   4.712   2.331 -1.1720 -0.5701  0.1485
  165SOL     OW  889   5.879   2.377   5.959  0.2601 -0.1098  0.2219
  165SOL    HW1  890   5.945   2.365   6.026  0.5598  1.0714  0.1704
  165SOL    HW2  891   5.832   2.294   5.955  0.8155 -0.4841  1.2570
  166SOL     OW  892   2.796   6.292   4.814 -0.7394 -0.2334 -0.3171
  166SOL    HW1  893   2.830   6.216   4.862 -0.4514 -0.8594 -1.4679
  166SOL    HW2  894   2.795   6.264   4.723  0.2097  1.4759 -0.8914
  167SOL     OW  895   1.048   2.322   2.462 -0.2349 -0.4426 -0.0192
  167SOL    HW1  896   1.086   2.405   2.431 -1.4241 -0.3674 -1.3603
  167SOL    HW2  897   1.064   2.260   2.391 -0.3893 -1.0711  0.4869
  168SOL     OW  898   1.347   6.697   6.729  0.0027  0.2865  0.7196
  168SOL    HW1  899   1.395   6.778   6.746 -0.5897  0.6783  0.5468
  168SOL    HW2  900   1.405   6.628   6.762  1.0243  0.6797 -0.1810
  169SOL     OW  901   2.107   3.624   0.211  0.4572  0.5124 -0.1923
  169SOL    HW1  902   2.024   3.605   0.168  0.7301 -0.9983 -0.0921
  169SOL    HW2  903   2.150   3.539   0.219  1.3377  1.0554  1.1521
  170SOL     OW  904   0.855   5.115   0.604  0.2612  0.0482 -0.1376
  170SOL    HW1  905   0.944   5.106   0.637 -0.3625 -1.0628  1.4183
  170SOL    HW2  906   0.844   5.208   0.586  1.6486  0.2288 -0.1137
  171SOL     OW  907   1.930   0.899   2.528  0.1743 -0.3073  0.4522
  171SOL    HW1  908   1.900   0.813   2.499  1.2264 -1.6404  2.9866
  171SOL    HW2  909   2.011   0.914   2.478 -1.5177  0.6999 -2.2021
  172SOL     OW  910   5.042   1.669   0.191 -0.7811 -0.2748  1.0782
  172SOL    HW1  911   4.987   1.591   0.185 -1.4698  0.2682  0.1077
  172SOL    HW2  912   5.131   1.635   0.201 -1.0041 -1.2115  0.1015
  173SOL     OW  913   5.899   0.947   2.379  0.3457  0.5386 -0.0757
  173SOL    HW1  914   5.964   0.905   2.436  1.1485 -1.2241 -2.1418
  173SOL    HW2  915   5.889   0.886   2.305  0.5554  3.3534 -2.6190
  174SOL     OW  916   0.999   4.459   1.677 -0.3937  0.2050  0.5935
  174SOL    HW1  917   1.032   4.433   1.590 -0.3968  1.0331  0.3335
  174SOL    HW2  918   0.954   4.381   1.710  2.0674 -1.1161  1.0977
  175SOL     OW  919   0.829   6.002   4.606 -0.7950  0.1254 -0.1422
  175SOL    HW1  920   0.902   5.982   4.547  0.5313  0.7547  1.2113
  175SOL    HW2  921   0.751   5.998   4.550  0.2640 -0.5610 -1.6406
  176SOL     OW  922   1.142   4.696   2.759  0.2267  0.4932 -0.0283
  176SOL    HW1  923   1.162   4.618   2.812  0.1774 -0.6372 -1.6133
  176SOL    HW2  924   1.046   4.697   2.754  0.2462  0.3826 -0.4073
  177SOL     OW  925   3.151   5.214   5.910 -0.2935 -0.1532  0.0548
  177SOL    HW1  926   3.092   5.147   5.875 -0.6081 -1.4097  2.7934
  177SOL    HW2  927   3.212   5.232   5.838 -0.4895 -3.0144 -0.9430
  178SOL     OW  928   1.780   1.714   6.248  0.2016 -0.0072 -0.2200
  178SOL    HW1  929   1.799   1.730   6.340 -0.9378 -0.8324  0.1872
  178SOL    HW2  930   1.835   1.776   6.201 -0.4264  1.6340  1.0879
  179SOL     OW  931   1.827   6.897   4.754  0.1854  0.2929 -0.2336
  179SOL    HW1  932   1.798   6.982   4.722 -1.3053 -0.3896 -0.8016
  179SOL    HW2  933   1.888   6.865   4.688  1.3362  1.2077  0.3476
  180SOL     OW  934   2.917   4.853   5.493 -0.0357  0.1115 -0.2849
  180SOL    HW1  935   2.921   4.944   5.523 -1.3560  0.1618 -0.2365
  180SOL    HW2  936   2.946   4.856   5.402  0.6485  0.4580 -0.0667
  181SOL     OW  937   2.578   4.639   2.466 -0.1575  0.7591 -0.1250
  181SOL    HW1  938   2.548   4.549   2.450  2.5918 -0.5652  1.5211
  181SOL    HW2  939   2.569   4.651   2.561 -0.1511  2.1227 -0.2761
  182SOL     OW  940   1.156   6.176   3.566  0.0915 -0.2168  0.1966
  182SOL    HW1  941   1.199   6.232   3.631 -1.0372 -0.3282  1.0606
  182SOL    HW2  942   1.147   6.091   3.610 -1.0583 -0.1758  0.0515
  183SOL     OW  943   0.757   4.649   5.865 -0.0091 -0.2479 -0.3756
  183SOL    HW1  944   0.758   4.553   5.870  0.4160 -0.2552 -0.5245
  183SOL    HW2  945   0.688   4.676   5.926 -1.4355 -0.7292 -1.7168
  184SOL     OW  946   4.436   6.084   0.480  0.0606  0.0141 -0.1511
  184SOL    HW1  947   4.435   5.998   0.522 -1.2557 -0.5043 -1.1997
  184SOL    HW2  948   4.344   6.105   0.464  0.2896  2.0159  0.8217
  185SOL     OW  949   1.745   3.822   1.278  0.3128  0.9155 -0.3123
  185SOL    HW1  950   1.676   3.759   1.257  1.6781 -0.9032  0.4847
  185SOL    HW2  951   1.706   3.877   1.346 -0.7208  0.6326 -0.6517
  186SOL     OW  952   6.126   4.161   4.310 -0.0712  0.4972  0.3286
  186SOL    HW1  953   6.149   4.143   4.401  1.8722  0.5120 -0.1171
  186SOL    HW2  954   6.210   4.181   4.268 -0.5601 -1.7960 -1.9830
  187SOL     OW  955   4.275   6.376   2.478  0.3631  0.1384 -0.2382
  187SOL    HW1  956   4.287   6.298   2.532  1.7832  0.5743  0.1290
  187SOL    HW2  957   4.190   6.411   2.504 -0.1998 -1.1678 -0.2669
  188SOL     OW  958   6.188   1.507   6.674  0.3299 -0.6127 -0.3707
  188SOL    HW1  959   6.197   1.441   6.743 -0.0410 -0.3996 -0.1169
  188SOL    HW2  960   6.119   1.566   6.705  1.0777  0.2571 -0.3090
  189SOL     OW  961   2.069   5.857   0.601 -0.2200 -0.3702  0.2524
  189SOL    HW1  962   2.058   5.952   0.597  2.2888 -0.0423 -0.5296
  189SOL    HW2  963   2.024   5.824   0.524 -1.1257  0.1620  0.5380
  190SOL     OW  964   2.005   0.762   1.407  0.5477 -0.0056 -0.1897
  190SOL    HW1  965   1.937   0.725   1.351  1.0223 -0.2304 -0.6314
  190SOL    HW2  966   2.055   0.686   1.436  2.1333  0.3320 -1.8880
  191SOL     OW  967   1.334   4.336   4.101 -0.0193 -0.0681 -0.1328
  191SOL    HW1  968   1.246   4.365   4.126 -0.5930 -1.6042 -0.2773
  191SOL    HW2  969   1.374   4.308   4.184 -0.5975 -1.7008 -0.3605
  192SOL     OW  970   1.140   5.356   6.924  0.6878  0.3561 -0.3670
  192SOL    HW1  971   1.100   5.269   6.916  0.2863  0.2904  1.6515
  192SOL    HW2  972   1.066   5.417   6.923  0.7338  0.4548  0.6030
  193SOL     OW  973   4.597   4.398   3.766 -0.2080 -0.4730 -0.0635
  193SOL    HW1  974   4.592   4.328   3.831  1.2456 -0.8756 -0.3474
  193SOL    HW2  975   4.653   4.464   3.807  0.6701 -0.7027 -0.8642
  194SOL     OW  976   0.242   5.063   6.832  0.2050  0.7449 -0.1179
  194SOL    HW1  977   0.290   5.000   6.779 -0.6327 -0.0418  0.0419
  194SOL    HW2  978   0.187   5.110   6.769 -0.5707  0.0109 -0.0125
  195SOL     OW  979   3.615   0.164   4.559  0.3512 -0.4951  0.2189
  195SOL    HW1  980   3.530   0.201   4.535  0.4103 -0.3784  0.1907
  195SOL    HW2  981   3.660   0.151   4.475  0.7407  0.3468  0.2882
  196SOL     OW  982   4.819   4.970   3.667  0.0628  0.4404 -0.5111
  196SOL    HW1  983   4.786   5.006   3.585 -0.8624  0.3342 -0.2031
  196SOL    HW2  984   4.837   4.878   3.648 -3.5372 -0.5816  0.2183
  197SOL     OW  985   5.450   6.328   2.938  0.0186  0.3414 -0.5805
  197SOL    HW1  986   5.404   6.246   2.958 -1.6762  0.9756 -1.6636
  197SOL    HW2  987   5.439   6.382   3.016 -1.7480  0.7451 -1.0718
  198SOL     OW  988   2.705   3.732   2.988 -0.7491  0.4996 -0.3129
  198SOL    HW1  989   2.791   3.692   3.000 -0.3032  0.9388 -1.8964
  198SOL    HW2  990   2.651   3.692   3.057  0.5251 -0.3135  0.2576
  199SOL     OW  991   1.187   4.069   5.582  0.3777 -0.7508 -1.0099
  199SOL    HW1  992   1.128   4.145   5.576  1.9862  0.5294 -1.4427
  199SOL    HW2  993   1.135   3.996   5.550 -0.3147  0.7174 -3.5317
  200SOL     OW  994   4.358   6.625   6.921 -0.0237 -0.0464  0.2432
  200SOL    HW1  995   4.266   6.627   6.948 -0.7450 -0.8172 -1.8999
  200SOL    HW2  996   4.355   6.595   6.830  2.2667  1.2174 -0.3235
  201SOL     OW  997   3.467   0.342   1.155  0.0537  0.3146  0.2768
  201SOL    HW1  998   3.483   0.405   1.225 -0.1029  1.7245 -0.8956
  201SOL    HW2  999   3.413   0.390   1.091 -1.6929 -1.6046  0.1820
  202SOL     OW 1000   6.292   4.510   3.017  0.2373 -0.1299 -0.4342
  202SOL    HW1 1001   6.275   4.577   2.951 -0.2022 -0.7579 -0.9742
  202SOL    HW2 1002   6.205   4.487   3.050  0.3136 -0.9570 -0.7876
  203SOL     OW 1003   6.285   3.267   3.913 -0.1240  0.2441 -0.7700
  203SOL    HW1 1004   6.339   3.289   3.989  0.6289  0.7482 -1.4364
  203SOL    HW2 1005   6.214   3.212   3.948  1.2745 -1.1310 -0.0031
  204SOL     OW 1006   0.984   4.807   5.932  0.1902 -0.5639  0.1733
  204SOL    HW1 1007   0.892   4.809   5.957  0.1688  0.6803  0.0797
  204SOL    HW2 1008   1.004   4.715   5.917 -1.4992 -0.6905 -1.5788
  205SOL     OW 1009   6.504   1.007   6.142  0.1455 -0.0166  0.0894
  205SOL    HW1 1010   6.540   0.995   6.230 -1.8633  1.7785  1.2638
  205SOL    HW2 1011   6.519   1.099   6.123 -0.2896 -0.1751 -1.0561
  206SOL     OW 1012   4.488   5.060   1.247  0.4517  0.2140 -0.1448
  206SOL    HW1 1013   4.539   5.062   1.328  0.0282 -1.7405  0.2217
  206SOL    HW2 1014   4.500   4.971   1.213 -0.3369  0.6371 -1.6089
  207SOL     OW 1015   0.347   3.239   5.538 -0.2767 -0.1957 -0.0102
  207SOL    HW1 1016   0.267   3.290   5.527  1.0779  1.9220 -0.6260
  207SOL    HW2 1017   0.323   3.171   5.602 -2.1849  1.1801  0.8462
  208SOL     OW 1018   1.010   0.383   6.684 -0.3011  0.0440  0.2140
  208SOL    HW1 1019   1.101   0.358   6.667  0.8909  1.8371  3.0672
  208SOL    HW2 1020   1.001   0.469   6.644 -1.0049 -0.4133 -0.6438
  209SOL     OW 1021   6.839   3.740   1.796 -0.0208  0.0686  0.1298
  209SOL    HW1 1022   6.834   3.721   1.889  2.4036  0.0674  0.3064
  209SOL    HW2 1023   6.918   3.696   1.766  0.0247  1.2388 -1.6413
  210SOL     OW 1024   0.022   5.640   5.508 -0.1361  0.9482  0.2113
  210SOL    HW1 1025   0.116   5.660   5.505 -0.1207  0.8091 -2.2468
  210SOL    HW2 1026   0.014   5.571   5.573  1.4220  1.1542  0.6638
  211SOL     OW 1027   3.127   0.783   1.733  0.2190  0.6500  0.0643
  211SOL    HW1 1028   3.087   0.839   1.799  1.0900 -0.0972  1.2703
  211SOL    HW2 1029   3.220   0.804   1.737  0.5816 -0.9016  0.6279
  212SOL     OW 1030   1.766   6.146   6.649  0.4593 -0.1479  0.6141
  212SOL    HW1 1031   1.766   6.083   6.578 -0.6882  0.5787 -0.0721
  212SOL    HW2 1032   1.700   6.211   6.624  0.9388  0.8237  1.7279
  213SOL     OW 1033   3.610   2.389   5.929  0.0380 -0.5020  0.2961
  213SOL    HW1 1034   3.529   2.363   5.886 -0.0726  0.2742  0.0155
  213SOL    HW2 1035   3.669   2.412   5.857  0.7548 -1.7211  0.4681
  214SOL     OW 1036   4.362   2.864   4.249  0.0414 -0.0247 -0.3714
  214SOL    HW1 1037   4.306   2.900   4.318 -0.0447 -2.3846  0.9093
  214SOL    HW2 1038   4.313   2.877   4.168 -1.4418 -0.2098  0.4635
  215SOL     OW 1039   2.794   5.483   3.964 -0.0305  0.1336  0.0673
  215SOL    HW1 1040   2.800   5.574   3.934  0.0254 -0.1106 -0.6977
  215SOL    HW2 1041   2.841   5.433   3.897 -1.1084 -0.5918 -0.1888
  216SOL     OW 1042   4.060   0.403   1.184 -0.5452  0.4466  0.2292
  216SOL    HW1 1043   4.012   0.324   1.209  1.9799 -1.3128 -0.0846
  216SOL    HW2 1044   4.082   0.389   1.092  1.4926  0.6132  0.6479
  217SOL     OW 1045   0.095   1.423   1.339 -0.0361 -0.0589  0.0983
  217SOL    HW1 1046   0.105   1.375   1.257  0.2689 -0.8256  0.5735
  217SOL    HW2 1047   0.011   1.468   1.331 -0.5601 -1.0647 -0.1705
  218SOL     OW 1048   0.567   4.334   2.723 -0.7080  0.3178 -0.1884
  218SOL    HW1 1049   0.626   4.279   2.775 -1.7874 -1.7990 -1.1056
  218SOL    HW2 1050   0.568   4.419   2.768  0.6645 -0.5536  1.5464
  219SOL     OW 1051   5.510   1.152   3.542  0.3676 -0.0153 -0.0004
  219SOL    HW1 1052   5.416   1.144   3.523  0.1897  3.5107 -1.2839
  219SOL    HW2 1053   5.546   1.067   3.515 -2.3660 -1.3840  0.2719
  220SOL     OW 1054   5.030   0.994   5.191  0.3002  0.0923  0.9080
  220SOL    HW1 1055   5.028   1.045   5.110 -1.9434 -0.6405  0.4147
  220SOL    HW2 1056   5.076   1.049   5.253 -0.2070  1.8290 -0.1772
  221SOL     OW 1057   4.615   5.709   6.368 -0.0453 -0.6223 -0.0129
  221SOL    HW1 1058   4.608   5.779   6.303  0.5094 -0.1158  0.4525
  221SOL    HW2 1059   4.646   5.754   6.447  0.9734 -1.4986  0.1047
  222SOL     OW 1060   6.893   1.844   1.383  0.3745 -0.3357  0.3289
  222SOL    HW1 1061   6.878   1.768   1.438  1.3967 -1.4127 -0.8270
  222SOL    HW2 1062   6.961   1.894   1.428 -0.2313 -0.1417  1.0404
  223SOL     OW 1063   3.170   0.908   6.594  0.1963  0.2138  0.1080
  223SOL    HW1 1064   3.194   0.923   6.502  1.1607  0.4457  0.3872
  223SOL    HW2 1065   3.251   0.881   6.636  0.1428  1.6557  1.2246
  224SOL     OW 1066   4.497   5.951   3.616  0.4047  0.1218 -0.0773
  224SOL    HW1 1067   4.464   5.968   3.704 -0.8265 -0.4114 -0.4222
  224SOL    HW2 1068   4.437   5.999   3.558  2.2788  2.0277 -0.5722
  225SOL     OW 1069   3.376   5.087   3.281 -0.1834  0.2569  0.2734
  225SOL    HW1 1070   3.310   5.119   3.220 -1.0733 -1.6053  0.1726
  225SOL    HW2 1071   3.460   5.107   3.240 -0.7087  1.5968 -0.1669
  226SOL     OW 1072   2.493   1.212   3.572 -0.4939  0.3677  0.0864
  226SOL    HW1 1073   2.570   1.183   3.524 -0.5079  1.1994 -0.4777
  226SOL    HW2 1074   2.429   1.142   3.561 -0.1606  0.1222 -0.3013
  227SOL     OW 1075   4.357   4.341   0.564  0.5826  0.1756  0.4881
  227SOL    HW1 1076   4.336   4.251   0.591  1.7467 -0.4109 -0.4529
  227SOL    HW2 1077   4.390   4.383   0.644  1.4642 -0.7211  0.6238
  228SOL     OW 1078   3.348   2.471   5.024 -0.7634  0.1822 -0.3515
  228SOL    HW1 1079   3.318   2.491   5.113 -0.3575 -2.0896  0.3805
  228SOL    HW2 1080   3.320   2.380   5.010 -0.8473  0.5064 -2.5817
  229SOL     OW 1081   4.442   6.557   2.899  0.4646 -0.3090  0.0512
  229SOL    HW1 1082   4.379   6.618   2.859  0.6210 -0.4854 -0.4758
  229SOL    HW2 1083   4.441   6.579   2.992  0.2132  0.2255 -0.0731
  230SOL     OW 1084   5.424   5.686   0.831  0.6861 -0.0015  0.3680
  230SOL    HW1 1085   5.474   5.652   0.905  0.9282 -0.8830 -0.1815
  230SOL    HW2 1086   5.491   5.721   0.771  0.6705 -1.0937 -0.3231
  231SOL     OW 1087   6.764   4.122   5.856  0.4458  0.1197  0.0307
  231SOL    HW1 1088   6.794   4.181   5.926  0.7958  0.9338 -0.7896
  231SOL    HW2 1089   6.698   4.171   5.809  0.4969 -0.2760 -0.4624
  232SOL     OW 1090   1.038   4.321   2.701  0.0616 -0.0712  0.2788
  232SOL    HW1 1091   1.029   4.303   2.795 -1.2935 -2.2795 -0.2043
  232SOL    HW2 1092   0.950   4.342   2.672  0.4938  0.7154 -0.5204
  233SOL     OW 1093   3.365   6.554   2.103 -0.2010  0.6854 -0.1171
  233SOL    HW1 1094   3.410   6.610   2.166 -1.2810  1.2416  0.1917
  233SOL    HW2 1095   3.406   6.572   2.019  2.2278 -1.0904  0.5756
  234SOL     OW 1096   1.185   4.953   3.542  0.3696  0.2365  0.1550
  234SOL    HW1 1097   1.099   4.990   3.519  0.8118 -0.5122 -3.2496
  234SOL    HW2 1098   1.163   4.871   3.587 -0.6525  0.8176  0.7760
  235SOL     OW 1099   1.962   6.561   4.226  0.2271 -0.4067 -0.1831
  235SOL    HW1 1100   1.877   6.590   4.260  0.5767 -0.7094  1.0037
  235SOL    HW2 1101   1.998   6.639   4.183 -0.2135  0.0173  0.2023
  236SOL     OW 1102   3.400   4.908   2.628 -0.0398  0.1496 -0.0331
  236SOL    HW1 1103   3.474   4.850   2.644 -0.3582 -0.4791 -0.7924
  236SOL    HW2 1104   3.394   4.916   2.533 -1.5796 -0.6749 -0.0454
  237SOL     OW 1105   4.461   5.978   3.897  0.1257 -0.1463  0.2090
  237SOL    HW1 1106   4.396   5.913   3.923 -1.6340  0.9078 -1.3007
  237SOL    HW2 1107   4.410   6.057   3.878  2.0235  1.2101  0.4393
  238SOL     OW 1108   2.304   5.261   2.964 -0.5164  0.0005  0.2060
  238SOL    HW1 1109   2.373   5.198   2.984 -1.3375 -0.8225  0.5225
  238SOL    HW2 1110   2.283   5.246   2.872 -1.4060 -0.9028  0.5433
  239SOL     OW 1111   5.838   2.985   0.673 -0.1372  0.2400  0.3505
  239SOL    HW1 1112   5.777   2.968   0.745 -0.0014  1.5492  0.8058
  239SOL    HW2 1113   5.842   3.080   0.668 -0.6441  0.2031 -1.8375
  240SOL     OW 1114   6.832   0.416   1.350 -0.3744 -0.0479  0.0308
  240SOL    HW1 1115   6.782   0.495   1.328 -0.4900 -0.6110 -1.8730
  240SOL    HW2 1116   6.854   0.427   1.443 -0.4717  2.1788 -0.1511
  241SOL     OW 1117   2.681   3.722   5.285 -0.3291 -0.1771  0.0395
  241SOL    HW1 1118   2.653   3.669   5.359 -3.5211 -1.9575 -2.1835
  241SOL    HW2 1119   2.736   3.663   5.233 -2.0898 -0.7013 -1.3333
  242SOL     OW 1120   0.653   3.354   4.583  0.3353  0.3057  0.3323
  242SOL    HW1 1121   0.615   3.439   4.563  0.4735  0.1150 -0.7933
  242SOL    HW2 1122   0.640   3.344   4.678  0.4368  1.6213  0.5046
  243SOL     OW 1123   2.728   1.876   3.783  0.5068  0.3813 -0.8157
  243SOL    HW1 1124   2.789   1.949   3.770 -0.1772  0.9808 -0.7349
  243SOL    HW2 1125   2.758   1.808   3.722  1.0382  0.8024 -1.0323
  244SOL     OW 1126   0.082   1.624   5.295  0.0142  0.7454 -0.1023
  244SOL    HW1 1127   0.026   1.552   5.266 -0.6061  1.7122 -1.4097
  244SOL    HW2 1128   0.165   1.581   5.318 -0.8553 -0.5671  0.7523
  245SOL     OW 1129   5.201   0.118   1.414  0.3426 -0.0244  0.2092
  245SOL    HW1 1130   5.140   0.044   1.425 -0.8720  0.9302  0.1636
  245SOL    HW2 1131   5.145   0.191   1.389  1.3413  1.2444  1.4935
  246SOL     OW 1132   3.910   3.698   2.266  0.3863  0.6347  0.2950
  246SOL    HW1 1133   3.823   3.724   2.233  0.7791  0.5727 -0.8537
  246SOL    HW2 1134   3.892   3.656   2.350 -0.9881 -1.5535 -0.9857
  247SOL     OW 1135   6.864   0.815   6.173 -0.5857  0.3216 -0.0059
  247SOL    HW1 1136   6.820   0.801   6.089 -0.6025 -1.3973  0.2599
  247SOL    HW2 1137   6.944   0.763   6.168  0.0784  1.2421  0.5659
  248SOL     OW 1138   3.620   4.223   6.747  0.3727  0.1881  0.2709
  248SOL    HW1 1139   3.598   4.204   6.656  0.6091 -0.7969  0.4108
  248SOL    HW2 1140   3.552   4.179   6.799  1.2904 -0.8781  0.6169
  249SOL     OW 1141   5.606   6.106   4.572 -0.3470 -0.4897  0.2986
  249SOL    HW1 1142   5.624   6.106   4.666 -0.2403 -1.5772  0.2977
  249SOL    HW2 1143   5.574   6.017   4.554  0.6106 -0.6219 -0.8682
  250SOL     OW 1144   0.987   0.537   5.049 -0.3165  0.4578  0.7427
  250SOL    HW1 1145   0.994   0.528   5.144  2.0832 -1.1795  0.4807
  250SOL    HW2 1146   0.928   0.466   5.023  0.2315 -0.0644  0.8942
  251SOL     OW 1147   5.844   2.412   2.791 -0.0748  0.0440  0.3466
  251SOL    HW1 1148   5.920   2.356   2.810  0.8412  1.0670 -0.1362
  251SOL    HW2 1149   5.769   2.362   2.821  0.7847 -1.0679  0.7239
  252SOL     OW 1150   5.034   4.869   6.807  0.3647 -0.2700 -0.2430
  252SOL    HW1 1151   5.009   4.778   6.823  2.3289 -0.4929  2.0481
  252SOL    HW2 1152   4.954   4.919   6.825 -0.7946 -1.4799 -1.7060
  253SOL     OW 1153   2.884   1.091   0.967  0.0329 -0.1481 -0.5487
  253SOL    HW1 1154   2.904   1.072   0.875  1.9559  0.8646 -0.3897
  253SOL    HW2 1155   2.823   1.165   0.962 -2.4320 -2.0591 -1.0034
  254SOL     OW 1156   3.751   4.165   2.916  0.7479  0.0215  0.0623
  254SOL    HW1 1157   3.720   4.120   2.838 -2.6502  0.1821  1.1688
  254SOL    HW2 1158   3.801   4.239   2.882 -0.0736 -0.2774 -1.9636
  255SOL     OW 1159   3.216   4.653   1.527  0.2138  0.0220 -0.6226
  255SOL    HW1 1160   3.128   4.684   1.503 -0.0269  0.3552  0.5974
  255SOL    HW2 1161   3.235   4.583   1.465 -1.5164 -1.0149 -0.0479
  256SOL     OW 1162   0.227   3.168   4.986 -0.0201 -0.0002  0.7137
  256SOL    HW1 1163   0.184   3.243   4.944  0.6444 -0.0102 -0.0098
  256SOL    HW2 1164   0.283   3.208   5.053 -0.6500  0.0536  1.2215
  257SOL     OW 1165   0.186   0.348   6.453  0.5112  0.1230 -0.4528
  257SOL    HW1 1166   0.126   0.296   6.399 -0.0846  1.4535 -1.1317
  257SOL    HW2 1167   0.147   0.349   6.540  2.2498 -3.3215  0.5398
  258SOL     OW 1168   6.323   2.665   1.396 -0.2841 -0.3662 -0.0931
  258SOL    HW1 1169   6.406   2.712   1.404 -0.4978  0.3618 -1.6791
  258SOL    HW2 1170   6.319   2.638   1.304 -1.6154 -0.7134  0.0370
  259SOL     OW 1171   5.192   5.716   1.229  0.9922  0.8746 -0.0096
  259SOL    HW1 1172   5.155   5.768   1.301  0.4175 -0.7012  0.8879
  259SOL    HW2 1173   5.274   5.759   1.208  1.2563  1.2860  1.7300
  260SOL     OW 1174   0.632   5.228   1.723 -0.1199 -0.0216  0.5131
  260SOL    HW1 1175   0.577   5.163   1.680  1.7857 -2.6245  1.7318
  260SOL    HW2 1176   0.721   5.204   1.699  0.6815  2.1400  1.1004
  261SOL     OW 1177   3.213   5.711   5.099  0.1289  0.1156  0.0542
  261SOL    HW1 1178   3.205   5.624   5.060 -0.0378  0.2404 -0.1899
  261SOL    HW2 1179   3.199   5.772   5.026  1.3149  0.3541  0.0035
  262SOL     OW 1180   3.047   3.704   5.953  0.1617  0.0507 -0.1687
  262SOL    HW1 1181   3.128   3.722   6.000 -0.3061  1.4534  0.1619
  262SOL    HW2 1182   3.027   3.612   5.972  1.0885  0.0076  0.6465
  263SOL     OW 1183   0.977   2.379   6.786  0.2896 -0.0578  0.2432
  263SOL    HW1 1184   0.948   2.418   6.703 -0.2270  0.0151  0.4555
  263SOL    HW2 1185   0.922   2.420   6.852  1.4427  0.7194  0.7660
  264SOL     OW 1186   5.735   3.668   4.278 -0.0828 -0.0027  0.4499
  264SOL    HW1 1187   5.646   3.671   4.242  0.1886 -2.5235 -0.6233
  264SOL    HW2 1188   5.788   3.713   4.213 -0.1965 -0.9589 -0.3306
  265SOL     OW 1189   0.947   4.135   5.455 -0.3124  0.3894 -0.0388
  265SOL    HW1 1190   0.983   4.140   5.366  1.3315  1.5218  0.6423
  265SOL    HW2 1191   0.858   4.169   5.447 -0.7666 -0.9804 -1.4940
  266SOL     OW 1192   4.861   2.475   6.303  0.0532 -0.1604 -0.1000
  266SOL    HW1 1193   4.831   2.397   6.349 -1.9863  0.4517 -0.2875
  266SOL    HW2 1194   4.863   2.543   6.370 -0.8713  0.2430 -0.4653
  267SOL     OW 1195   6.844   5.725   5.274 -0.1981 -0.0823 -0.2842
  267SOL    HW1 1196   6.882   5.800   5.228 -0.8031 -0.1525 -0.9093
  267SOL    HW2 1197   6.906   5.707   5.345  0.4997  0.3300 -0.7761
  268SOL     OW 1198   6.156   1.303   4.643  0.1315  0.1419 -0.6296
  268SOL    HW1 1199   6.167   1.321   4.737  0.2878  2.1814 -0.9887
  268SOL    HW2 1200   6.221   1.235   4.624  0.4552  0.0634  0.6389
  269SOL     OW 1201   1.490   4.766   6.156 -0.2169  0.2387  0.7958
  269SOL    HW1 1202   1.453   4.820   6.087 -1.3592 -1.4840 -0.0211
  269SOL    HW2 1203   1.429   4.775   6.229 -1.0943 -0.8398  0.2326
  270SOL     OW 1204   4.987   5.199   3.689 -0.4296 -0.6466  0.4698
  270SOL    HW1 1205   4.925   5.127   3.676 -2.6842  1.2991 -0.2601
  270SOL    HW2 1206   4.947   5.254   3.756  0.0392  1.1578 -0.6622
  271SOL     OW 1207   3.944   3.769   1.534  0.1786 -0.1119  0.3262
  271SOL    HW1 1208   3.911   3.724   1.612 -1.2430  0.1303 -0.1065
  271SOL    HW2 1209   3.891   3.848   1.528 -0.3648 -0.5582 -1.3672
  272SOL     OW 1210   5.856   2.584   4.639  0.2145  0.1589 -0.4375
  272SOL    HW1 1211   5.842   2.677   4.624  2.4997  0.6764  0.2163
  272SOL    HW2 1212   5.920   2.581   4.710 -0.0312 -1.9297 -0.2459
  273SOL     OW 1213   4.536   4.983   4.243  0.4083 -0.4568  0.3661
  273SOL    HW1 1214   4.503   4.923   4.175 -0.8853  0.1537  0.4143
  273SOL    HW2 1215   4.457   5.017   4.285  1.1166  1.0190  0.5729
  274SOL     OW 1216   3.527   5.046   1.212 -0.0125  0.1514 -0.4389
  274SOL    HW1 1217   3.495   5.081   1.128 -0.8258  2.3384  0.6950
  274SOL    HW2 1218   3.616   5.080   1.220 -0.9540  2.5372  0.8652
  275SOL     OW 1219   3.236   5.860   4.023  0.6201  0.2516  0.8057
  275SOL    HW1 1220   3.236   5.871   3.928  1.0017 -1.6013  0.5545
  275SOL    HW2 1221   3.147   5.834   4.045  0.7270 -0.1065  0.8307
  276SOL     OW 1222   0.736   4.185   2.896 -0.1044 -0.2171  0.3441
  276SOL    HW1 1223   0.828   4.208   2.913  0.1639 -0.1800 -1.0489
  276SOL    HW2 1224   0.739   4.094   2.867 -0.4388 -0.0441 -0.2445
  277SOL     OW 1225   5.190   2.179   6.353 -0.7428  0.7086 -0.5760
  277SOL    HW1 1226   5.141   2.154   6.274  0.7935  1.1802 -1.7260
  277SOL    HW2 1227   5.166   2.270   6.368 -1.0932  0.5969 -0.4422
  278SOL     OW 1228   6.239   2.510   5.786  0.1792 -0.3021  0.5070
  278SOL    HW1 1229   6.303   2.538   5.720 -0.6460 -0.3275 -0.3242
  278SOL    HW2 1230   6.225   2.417   5.768 -2.5988  0.3724 -1.5895
  279SOL     OW 1231   2.733   5.298   5.022 -0.4337  0.3502 -0.2610
  279SOL    HW1 1232   2.814   5.305   5.072 -1.6650  0.4631  1.8745
  279SOL    HW2 1233   2.758   5.255   4.940  1.3442 -2.1012  1.4263
  280SOL     OW 1234   5.843   5.873   1.496 -0.5223  0.0789  0.0681
  280SOL    HW1 1235   5.921   5.837   1.538  1.0985  1.5022 -1.5716
  280SOL    HW2 1236   5.772   5.817   1.527  1.3120 -2.1163  0.5972
  281SOL     OW 1237   4.325   1.150   4.263  0.1674  0.7590  0.1871
  281SOL    HW1 1238   4.319   1.055   4.264  0.0239  0.7389 -1.2638
  281SOL    HW2 1239   4.241   1.180   4.298 -1.1369  0.3498 -2.4149
  282SOL     OW 1240   2.075   3.743   3.319 -0.0049  0.4317 -0.2734
  282SOL    HW1 1241   2.015   3.790   3.378  1.2517  1.0518  0.5719
  282SOL    HW2 1242   2.137   3.810   3.290  2.1467 -0.7060  1.3472
  283SOL     OW 1243   1.872   5.950   3.099 -0.9134 -0.2398 -0.2077
  283SOL    HW1 1244   1.815   6.022   3.069 -0.8559  0.1103  0.5050
  283SOL    HW2 1245   1.813   5.892   3.148 -0.8747 -0.4666 -0.4260
  284SOL     OW 1246   1.202   3.368   3.824  0.2606  0.1203  0.4934
  284SOL    HW1 1247   1.118   3.345   3.784  1.0831  0.5422 -1.6262
  284SOL    HW2 1248   1.223   3.454   3.787  2.3411 -0.6568 -0.2694
  285SOL     OW 1249   1.334   4.914   3.298  0.4960 -0.3281  0.4081
  285SOL    HW1 1250   1.293   4.923   3.383  1.7537 -1.5488  1.1931
  285SOL    HW2 1251   1.363   5.002   3.275 -2.5904  0.6094 -0.2716
  286SOL     OW 1252   0.230   2.659   1.733 -0.0128 -0.3871  0.1691
  286SOL    HW1 1253   0.271   2.606   1.801 -1.7351 -2.8360 -0.5801
  286SOL    HW2 1254   0.180   2.725   1.781 -0.2868 -1.3594  1.2568
  287SOL     OW 1255   2.363   0.804   3.955 -0.5030 -0.0826  0.4599
  287SOL    HW1 1256   2.402   0.887   3.929 -1.6984  0.6471  0.9636
  287SOL    HW2 1257   2.282   0.798   3.906  0.4715 -1.9047 -1.0850
  288SOL     OW 1258   1.333   2.882   5.481 -0.7285  0.5325 -0.6319
  288SOL    HW1 1259   1.378   2.848   5.558 -3.1166  0.3291  0.7808
  288SOL    HW2 1260   1.248   2.912   5.514 -1.5214  1.2010 -3.0600
  289SOL     OW 1261   3.433   1.408   2.894  0.0789 -0.0659  0.1204
  289SOL    HW1 1262   3.418   1.463   2.971 -1.6553  0.0744 -0.2852
  289SOL    HW2 1263   3.348   1.402   2.851  0.6425 -1.5094 -0.8942
  290SOL     OW 1264   2.798   0.755   4.720  0.2110  0.2039 -0.2553
  290SOL    HW1 1265   2.801   0.766   4.625 -1.1199  0.7323 -0.2577
  290SOL    HW2 1266   2.831   0.666   4.734  2.7446  0.9361 -0.9756
  291SOL     OW 1267   1.706   2.545   5.914  0.0914  0.2262 -0.1833
  291SOL    HW1 1268   1.729   2.454   5.929 -0.5335  0.1771  0.5498
  291SOL    HW2 1269   1.742   2.592   5.989 -0.7258  0.3846  0.1216
  292SOL     OW 1270   4.492   3.862   5.443 -0.1492  0.2995 -0.3311
  292SOL    HW1 1271   4.562   3.918   5.476  0.6735 -0.7381 -0.2458
  292SOL    HW2 1272   4.444   3.835   5.521  0.4751 -0.4296 -0.1893
  293SOL     OW 1273   4.979   2.460   6.792 -0.7152  0.7412  0.6104
  293SOL    HW1 1274   4.934   2.537   6.825 -0.2076  1.6367 -0.6967
  293SOL    HW2 1275   4.932   2.437   6.712 -0.3222  0.2451  0.5143
  294SOL     OW 1276   4.655   3.364   4.938  0.1130  0.6440  0.2699
  294SOL    HW1 1277   4.692   3.316   4.863 -0.4224 -1.9945  1.5843
  294SOL    HW2 1278   4.565   3.384   4.911  0.5193  1.4781 -0.5188
  295SOL     OW 1279   4.703   2.428   0.581 -0.5387 -0.8979  0.2338
  295SOL    HW1 1280   4.687   2.351   0.526  0.0458 -0.9286  0.0998
  295SOL    HW2 1281   4.657   2.499   0.536  2.9948 -0.0456 -2.5128
  296SOL     OW 1282   3.063   3.844   4.519  0.3576  0.0417 -0.4291
  296SOL    HW1 1283   3.156   3.826   4.533  0.3833 -0.2430 -0.9593
  296SOL    HW2 1284   3.058   3.874   4.429 -0.3964 -2.4778 -1.3101
  297SOL     OW 1285   1.982   6.233   3.077 -0.1973 -0.2428 -0.4368
  297SOL    HW1 1286   1.913   6.285   3.037  1.0677  2.2253  0.3740
  297SOL    HW2 1287   2.056   6.239   3.015 -0.2731 -1.9127 -0.7627
  298SOL     OW 1288   0.475   2.817   5.830 -0.2146  0.1288  0.4919
  298SOL    HW1 1289   0.417   2.749   5.797 -0.3910  0.2276  0.5994
  298SOL    HW2 1290   0.508   2.784   5.913  0.9904 -0.5525 -0.2225
  299SOL     OW 1291   3.819   0.848   1.512  0.5209 -0.4541  0.0335
  299SOL    HW1 1292   3.762   0.918   1.479  1.4421 -0.4781 -1.7356
  299SOL    HW2 1293   3.830   0.868   1.605 -2.5512 -0.5865  0.5437
  300SOL     OW 1294   5.902   6.640   4.981  0.2175  0.2574  0.1043
  300SOL    HW1 1295   5.844   6.630   5.056  0.1001 -1.3238 -0.1545
  300SOL    HW2 1296   5.875   6.571   4.921 -0.6009  2.2952 -2.0390
  301SOL     OW 1297   5.081   1.108   5.595 -0.2210  0.6552  0.5386
  301SOL    HW1 1298   5.101   1.181   5.536 -1.1246 -0.2561 -0.9704
  301SOL    HW2 1299   4.990   1.086   5.576  0.3266 -1.5464  0.1113
  302SOL     OW 1300   3.990   0.868   5.174 -0.1312 -0.0916  0.1718
  302SOL    HW1 1301   3.956   0.793   5.225  0.2480  1.2763  2.6092
  302SOL    HW2 1302   4.080   0.878   5.205 -0.6039  2.1964  1.0007
  303SOL     OW 1303   5.114   5.860   0.438 -0.0188 -0.3039  0.0922
  303SOL    HW1 1304   5.182   5.926   0.426 -0.8157  0.4154 -0.6738
  303SOL    HW2 1305   5.124   5.801   0.364  2.1453 -2.4485  1.9599
  304SOL     OW 1306   5.304   4.518   1.772  0.3662 -0.2607  0.4589
  304SOL    HW1 1307   5.346   4.590   1.820 -1.2405  0.3260  1.0737
  304SOL    HW2 1308   5.283   4.556   1.687 -0.2973 -0.0517  0.7104
  305SOL     OW 1309   4.802   1.303   6.534  0.3047  0.1772  0.1603
  305SOL    HW1 1310   4.898   1.296   6.532  0.5738  1.2469  3.1233
  305SOL    HW2 1311   4.780   1.354   6.456  2.2463  0.5658 -0.2027
  306SOL     OW 1312   0.748   6.004   0.327  0.2590 -0.3518 -0.3589
  306SOL    HW1 1313   0.726   6.078   0.271  0.3118  0.0962  0.2048
  306SOL    HW2 1314   0.693   5.933   0.295 -0.1367  0.0585 -0.6031
  307SOL     OW 1315   5.196   3.803   1.024  0.3664  0.2843  0.3519
  307SOL    HW1 1316   5.173   3.819   1.116 -1.0113 -2.6706  0.6229
  307SOL    HW2 1317   5.288   3.830   1.019  0.4292  0.7313  2.5444
  308SOL     OW 1318   1.545   1.034   5.850 -0.1042 -0.2351 -0.4278
  308SOL    HW1 1319   1.567   1.088   5.926  0.0133  1.3444 -1.5391
  308SOL    HW2 1320   1.619   0.974   5.841 -0.2493 -0.6246  0.8533
  309SOL     OW 1321   3.938   0.062   1.969 -0.0822  0.2565 -0.1386
  309SOL    HW1 1322   3.988   0.093   1.894  0.7464 -1.4301 -0.3394
  309SOL    HW2 1323   3.969  -0.027   1.983 -0.7891  0.2571  1.7289
  310SOL     OW 1324   1.258   3.546   1.036 -0.2096  0.1694 -0.2227
  310SOL    HW1 1325   1.188   3.595   1.078  0.3708  1.1782 -0.3955
  310SOL    HW2 1326   1.337   3.597   1.053  0.6791 -1.4640  0.8500
  311SOL     OW 1327   1.241   0.125   6.239 -0.2538  0.4327 -0.1649
  311SOL    HW1 1328   1.286   0.091   6.162  0.0708  1.3539 -0.3899
  311SOL    HW2 1329   1.180   0.190   6.206  0.1051  1.0613  0.3681
  312SOL     OW 1330   0.471   1.319   5.267  0.2880 -0.8530  0.2721
  312SOL    HW1 1331   0.527   1.268   5.208 -0.0943 -2.3052  1.1225
  312SOL    HW2 1332   0.525   1.333   5.345  0.5192  0.4055 -0.0878
  313SOL     OW 1333   0.949   6.354   4.553 -0.7247  0.0502 -0.2003
  313SOL    HW1 1334   0.924   6.340   4.645  0.8320 -2.5218 -0.0640
  313SOL    HW2 1335   1.042   6.377   4.558 -0.9552  1.2798 -1.1061
  314SOL     OW 1336   2.181   3.979   3.680  0.2567  0.0391  0.6309
  314SOL    HW1 1337   2.134   3.914   3.733 -0.4689 -0.3936 -0.5052
  314SOL    HW2 1338   2.269   3.942   3.670 -0.3308 -1.1268 -0.5491
  315SOL     OW 1339   0.284   1.250   4.338  0.3548  0.3528 -0.1939
  315SOL    HW1 1340   0.281   1.309   4.413 -1.3729  1.7660 -1.2857
  315SOL    HW2 1341   0.363   1.276   4.291  0.3390  0.8834  0.0588
  316SOL     OW 1342   2.428   2.724   4.355  0.5386  0.2877 -0.2677
  316SOL    HW1 1343   2.511   2.744   4.310  0.3539  1.5644 -0.0661
  316SOL    HW2 1344   2.360   2.749   4.292  0.2893  0.2358 -0.0204
  317SOL     OW 1345   6.566   1.279   6.155  0.2364 -0.0822 -0.7855
  317SOL    HW1 1346   6.629   1.304   6.223  0.2851 -1.8717 -0.1145
  317SOL    HW2 1347   6.618   1.271   6.076  0.7538 -0.8772 -0.3815
  318SOL     OW 1348   3.361   0.201   5.340 -0.2643 -0.0715 -0.4277
  318SOL    HW1 1349   3.328   0.112   5.332 -1.1556  0.1229  0.7945
  318SOL    HW2 1350   3.438   0.204   5.282  0.2794 -1.8653  0.1488
  319SOL     OW 1351   4.548   1.973   0.137 -0.2526  0.0727 -0.1098
  319SOL    HW1 1352   4.618   2.037   0.125 -0.4827  0.6109  1.2666
  319SOL    HW2 1353   4.558   1.912   0.063  2.5135 -0.6646  0.7657
  320SOL     OW 1354   5.686   1.275   3.702  0.1698  0.5568 -0.6644
  320SOL    HW1 1355   5.614   1.247   3.646  0.4871 -0.5581 -0.5298
  320SOL    HW2 1356   5.747   1.318   3.643 -1.1898  2.7489 -0.5894
  321SOL     OW 1357   4.332   3.711   5.946 -0.0227  0.2299  0.2289
  321SOL    HW1 1358   4.284   3.680   5.869 -3.2583 -1.8043  2.7784
  321SOL    HW2 1359   4.416   3.665   5.941 -0.9570 -1.4736 -1.0405
  322SOL     OW 1360   4.713   1.745   3.738 -0.3135 -0.4992  0.1985
  322SOL    HW1 1361   4.745   1.661   3.771  0.2989  0.7068  2.9322
  322SOL    HW2 1362   4.780   1.809   3.765 -1.9505  1.2173  0.4205
  323SOL     OW 1363   4.654   2.889   6.268  0.7536 -0.1675  0.0812
  323SOL    HW1 1364   4.748   2.902   6.275  0.8604 -0.6945 -0.3548
  323SOL    HW2 1365   4.617   2.977   6.281  1.1533 -0.2852  2.5459
  324SOL     OW 1366   0.341   5.086   6.188 -0.6414 -0.6003 -0.2297
  324SOL    HW1 1367   0.339   5.149   6.116 -0.7517 -2.0462 -1.5552
  324SOL    HW2 1368   0.322   5.002   6.146  0.1009 -1.6137  1.3675
  325SOL     OW 1369   3.535   6.688   2.676  0.5073 -0.2273 -0.2383
  325SOL    HW1 1370   3.471   6.618   2.662 -0.2328  0.1222  1.2615
  325SOL    HW2 1371   3.576   6.700   2.590  0.4942 -2.3301 -0.5857
  326SOL     OW 1372   0.061   6.667   3.422 -0.6114 -0.5300  0.1036
  326SOL    HW1 1373   0.029   6.751   3.389 -1.5664 -1.0422 -0.3471
  326SOL    HW2 1374   0.089   6.685   3.512  1.0072  0.6588 -0.5916
  327SOL     OW 1375   3.997   3.117   0.778  0.2192 -0.4809 -0.6286
  327SOL    HW1 1376   4.071   3.088   0.832  0.5270 -0.4238 -1.0146
  327SOL    HW2 1377   3.926   3.130   0.841  1.2780  2.0786  0.1675
  328SOL     OW 1378   3.055   1.139   4.850 -0.4969  0.0260  0.3032
  328SOL    HW1 1379   3.101   1.214   4.811 -0.2301  0.0022  0.5680
  328SOL    HW2 1380   3.124   1.083   4.884 -0.7300  0.2403  1.1649
  329SOL     OW 1381   5.934   2.037   6.158 -0.2112 -0.1013  0.2102
  329SOL    HW1 1382   6.026   2.059   6.174  0.0424 -0.2249 -0.9986
  329SOL    HW2 1383   5.887   2.079   6.230  0.5938  1.6695 -0.2318
  330SOL     OW 1384   1.710   4.334   3.156  0.1911 -0.5347 -0.1559
  330SOL    HW1 1385   1.665   4.415   3.129 -0.7373 -1.3517 -1.1376
  330SOL    HW2 1386   1.802   4.359   3.159  0.1796  0.0665 -2.5257
  331SOL     OW 1387   2.652   2.838   6.355 -0.2224 -0.3552 -0.0092
  331SOL    HW1 1388   2.683   2.829   6.265 -0.3441 -0.2070 -0.0675
  331SOL    HW2 1389   2.559   2.818   6.350 -0.7424  1.8764 -0.3396
  332SOL     OW 1390   5.846   1.895   4.385  0.3491  0.1233 -0.2057
  332SOL    HW1 1391   5.844   1.801   4.400 -1.3294  0.2266  0.4407
  332SOL    HW2 1392   5.930   1.924   4.421  0.1319 -0.8902  1.2008
  333SOL     OW 1393   6.663   3.532   6.753  0.0074 -0.3108 -0.3169
  333SOL    HW1 1394   6.605   3.466   6.790 -0.0863 -1.0193 -1.6631
  333SOL    HW2 1395   6.648   3.527   6.658  0.3258  1.3390 -0.4789
  334SOL     OW 1396   6.210   2.472   2.998  0.3246  0.1942  0.2334
  334SOL    HW1 1397   6.166   2.530   2.936 -1.4730 -1.2291  0.0818
  334SOL    HW2 1398   6.182   2.504   3.084  1.1261  0.8735  0.2560
  335SOL     OW 1399   5.960   5.735   4.537 -0.5000 -0.0757 -0.1062
  335SOL    HW1 1400   5.938   5.761   4.627 -0.8297  3.7512 -1.1174
  335SOL    HW2 1401   5.885   5.764   4.485  0.8486  0.3043 -1.9212
  336SOL     OW 1402   3.150   1.672   5.812 -0.1357  0.0399 -0.7262
  336SOL    HW1 1403   3.204   1.616   5.756 -1.9950 -0.4462 -2.1303
  336SOL    HW2 1404   3.190   1.758   5.805  0.2128 -0.2121 -2.0958
  337SOL     OW 1405   6.401   3.874   2.728  0.1438 -0.2239  0.1938
  337SOL    HW1 1406   6.414   3.969   2.718  1.8773 -0.3064  1.2258
  337SOL    HW2 1407   6.382   3.843   2.640 -0.4478  1.0721 -0.1621
  338SOL     OW 1408   4.971   4.944   5.571  0.0605  0.0163 -0.2827
  338SOL    HW1 1409   4.982   4.968   5.663  0.2443  0.0210 -0.3050
  338SOL    HW2 1410   4.996   5.022   5.522  0.2822 -0.0898 -0.3438
  339SOL     OW 1411   6.297   0.177   0.034 -0.3928  0.0838 -0.3600
  339SOL    HW1 1412   6.380   0.184  -0.014  0.5875 -1.1914  1.0495
  339SOL    HW2 1413   6.303   0.246   0.101 -1.0571  0.8389 -1.0742
  340SOL     OW 1414   0.666   3.733   4.355  0.3200  0.7055 -0.1254
  340SOL    HW1 1415   0.646   3.651   4.309  0.2473  0.1863  0.8052
  340SOL    HW2 1416   0.751   3.717   4.397 -0.1288  0.7662  0.8261
  341SOL     OW 1417   5.211   2.381   5.433  0.3713  0.8630 -0.0471
  341SOL    HW1 1418   5.209   2.394   5.528  0.7613  0.5657  0.0032
  341SOL    HW2 1419   5.263   2.455   5.400 -0.6922  1.5920 -0.1458
  342SOL     OW 1420   3.666   4.412   0.515 -0.0767 -0.2647  0.4722
  342SOL    HW1 1421   3.716   4.344   0.561  0.2997 -0.9845 -0.9211
  342SOL    HW2 1422   3.683   4.492   0.564 -0.1623 -1.0823  1.8940
  343SOL     OW 1423   4.719   0.106   2.716  0.0294  0.1617  0.5563
  343SOL    HW1 1424   4.706   0.063   2.632  1.3735 -0.1278  0.4826
  343SOL    HW2 1425   4.814   0.106   2.729 -0.1668 -0.2007  2.2707
  344SOL     OW 1426   5.838   4.876   3.993  0.2373 -0.0515 -0.6456
  344SOL    HW1 1427   5.743   4.871   3.993  0.2228  0.0681  0.5952
  344SOL    HW2 1428   5.862   4.889   4.085  1.5015 -1.0666 -0.8052
  345SOL     OW 1429   4.349   0.949   4.542  0.0885  0.2757 -0.2142
  345SOL    HW1 1430   4.318   1.021   4.598 -1.0744 -1.1086  1.0209
  345SOL    HW2 1431   4.424   0.912   4.590  1.0053  0.9401 -1.0924
  346SOL     OW 1432   1.851   3.535   0.141  0.3256  0.2222  0.0597
  346SOL    HW1 1433   1.847   3.440   0.155  0.1809  0.3846  1.1603
  346SOL    HW2 1434   1.783   3.570   0.198  0.3975  1.0037 -0.3265
  347SOL     OW 1435   0.424   6.221   4.286  0.1555 -0.2325 -0.7962
  347SOL    HW1 1436   0.500   6.190   4.336 -0.2094 -1.5582 -1.0216
  347SOL    HW2 1437   0.462   6.257   4.206  0.4973 -3.9712 -2.5256
  348SOL     OW 1438   4.994   4.482   4.328  0.0867 -0.1716  0.1706
  348SOL    HW1 1439   5.046   4.450   4.255  1.6079  1.3849  0.5275
  348SOL    HW2 1440   5.022   4.430   4.403 -0.8601 -1.1785 -0.1454
  349SOL     OW 1441   2.508   4.311   6.425 -0.3821  0.2366  0.1982
  349SOL    HW1 1442   2.586   4.271   6.462 -0.2101  0.6835  0.3321
  349SOL    HW2 1443   2.504   4.279   6.335 -2.1030 -2.7659  1.2085
  350SOL     OW 1444   3.816   1.430   1.098  0.3398 -0.2934 -0.5536
  350SOL    HW1 1445   3.759   1.503   1.071  0.0211 -0.2286  0.2511
  350SOL    HW2 1446   3.847   1.392   1.016  0.1574  0.4767 -0.9931
  351SOL     OW 1447   2.868   1.669   0.417 -0.5847 -0.4554  0.1875
  351SOL    HW1 1448   2.853   1.764   0.410  0.6955 -0.3656 -2.0083
  351SOL    HW2 1449   2.813   1.631   0.349  0.4159 -1.1058 -0.2747
  352SOL     OW 1450   1.071   5.307   4.514 -0.0233  0.6306 -0.5623
  352SOL    HW1 1451   0.993   5.353   4.544 -0.2456  1.0464 -1.7454
  352SOL    HW2 1452   1.041   5.252   4.442  0.5225 -0.2451 -0.1309
  353SOL     OW 1453   1.838   0.373   5.985 -0.1935  0.3800  0.0545
  353SOL    HW1 1454   1.823   0.368   6.079  0.0562  2.4346  0.2537
  353SOL    HW2 1455   1.751   0.385   5.947 -0.1425  1.4337  0.2271
  354SOL     OW 1456   0.427   1.556   5.127 -0.0808 -0.1913  0.1309
  354SOL    HW1 1457   0.377   1.534   5.048  0.8232 -0.4716 -0.3678
  354SOL    HW2 1458   0.430   1.474   5.177  0.1837 -0.2679 -0.0093
  355SOL     OW 1459   1.855   1.711   2.045  0.0057 -0.5508  0.1087
  355SOL    HW1 1460   1.773   1.707   1.995  1.6111  2.5376 -3.2271
  355SOL    HW2 1461   1.839   1.779   2.111  0.4751  2.0029 -2.2270
  356SOL     OW 1462   5.057   5.431   2.664 -0.2582 -0.5101 -0.7963
  356SOL    HW1 1463   5.123   5.379   2.619 -1.2720 -3.6692  1.0906
  356SOL    HW2 1464   4.983   5.434   2.603 -0.4609 -1.9816 -0.6450
  357SOL     OW 1465   2.331   5.394   4.071 -0.2076 -0.0792 -0.4215
  357SOL    HW1 1466   2.248   5.440   4.080  0.4488  0.7760  2.0333
  357SOL    HW2 1467   2.319   5.313   4.120  0.4215  0.1373  0.1147
  358SOL     OW 1468   5.701   2.911   3.854  0.1959 -0.2910 -0.4782
  358SOL    HW1 1469   5.630   2.962   3.894 -0.9179 -1.0803 -1.3718
  358SOL    HW2 1470   5.754   2.976   3.809 -1.4662  0.0964 -2.0069
  359SOL     OW 1471   6.814   4.294   0.320  0.0655 -0.7711  0.2617
  359SOL    HW1 1472   6.890   4.280   0.265 -0.2633 -0.0755 -0.3813
  359SOL    HW2 1473   6.815   4.387   0.340 -0.7970 -0.6875 -0.0336
  360SOL     OW 1474   6.140   6.659   6.237  0.5661 -0.0254 -0.1812
  360SOL    HW1 1475   6.151   6.665   6.331  0.0222 -0.8570 -0.0581
  360SOL    HW2 1476   6.062   6.605   6.225  2.1679 -2.2520 -1.1357
  361SOL     OW 1477   1.642   3.093   3.138  0.0502  0.2811  0.2795
  361SOL    HW1 1478   1.564   3.144   3.114  0.9780  1.5365 -0.1928
  361SOL    HW2 1479   1.675   3.058   3.055  1.9436  2.7020 -0.1014
  362SOL     OW 1480   0.677   5.736   2.789 -0.3657 -0.3456  0.2445
  362SOL    HW1 1481   0.694   5.658   2.842 -0.6820 -2.3133 -2.3533
  362SOL    HW2 1482   0.736   5.728   2.714  0.4451  2.6012  0.4414
  363SOL     OW 1483   3.343   3.484   1.260 -0.3127 -0.3470  0.8597
  363SOL    HW1 1484   3.349   3.401   1.213  1.1036  0.1119  0.1732
  363SOL    HW2 1485   3.314   3.460   1.348  0.7271 -1.6543  0.8743
  364SOL     OW 1486   2.522   0.550   1.226 -0.1111 -0.2077  0.1229
  364SOL    HW1 1487   2.567   0.562   1.310 -0.5541  3.3957  0.0039
  364SOL    HW2 1488   2.590   0.522   1.166  1.0829  0.9072  0.9002
  365SOL     OW 1489   3.648   4.320   5.695  0.6707  0.6059  0.0097
  365SOL    HW1 1490   3.694   4.355   5.771 -1.9650  1.0248  1.5093
  365SOL    HW2 1491   3.590   4.390   5.666 -1.9454 -1.0991  0.7152
  366SOL     OW 1492   4.157   1.188   4.697 -0.4041  0.5018  0.5317
  366SOL    HW1 1493   4.229   1.249   4.683  0.1385 -0.5868 -2.1495
  366SOL    HW2 1494   4.176   1.147   4.781  0.6211  2.1200  1.1379
  367SOL     OW 1495   6.102   1.444   6.230  0.6927  0.3361 -0.5159
  367SOL    HW1 1496   6.042   1.386   6.277 -0.2511 -0.0316 -2.0720
  367SOL    HW2 1497   6.189   1.413   6.254  0.2489  0.1249  0.8885
  368SOL     OW 1498   4.361   0.349   1.597 -0.1918 -0.0224  0.0621
  368SOL    HW1 1499   4.381   0.349   1.691 -0.1893  2.3796  0.1254
  368SOL    HW2 1500   4.439   0.309   1.556  2.0752  3.2329  0.8060
  369SOL     OW 1501   3.950   3.771   4.250  0.3776 -0.2455  0.4044
  369SOL    HW1 1502   3.858   3.749   4.234  0.0587  0.5918  1.0347
  369SOL    HW2 1503   3.958   3.776   4.345  0.4495  2.1583  0.3306
  370SOL     OW 1504   5.957   2.419   4.148  0.4193  0.6985 -0.3201
  370SOL    HW1 1505   5.908   2.491   4.188 -0.1818 -0.1578  0.5471
  370SOL    HW2 1506   5.940   2.344   4.206  0.6669 -0.2431 -1.4382
  371SOL     OW 1507   5.843   2.345   6.555  0.1885 -0.2228  0.2755
  371SOL    HW1 1508   5.773   2.337   6.619 -1.9781  1.7970 -1.6489
  371SOL    HW2 1509   5.912   2.394   6.601 -0.6984 -0.0646  1.4778
  372SOL     OW 1510   2.177   5.926   3.053 -0.0753  0.0724 -0.1443
  372SOL    HW1 1511   2.166   6.019   3.070 -0.6007 -0.3778  2.4480
  372SOL    HW2 1512   2.091   5.888   3.068  0.6000 -1.0794  1.0531
  373SOL     OW 1513   5.424   0.133   3.029  0.2669 -0.5424 -0.8540
  373SOL    HW1 1514   5.345   0.119   2.978  0.7538  0.5295 -1.9325
  373SOL    HW2 1515   5.406   0.211   3.081 -0.0112 -1.2967  0.2234
  374SOL     OW 1516   3.655   3.454   0.286  0.1457 -0.4403  0.0782
  374SOL    HW1 1517   3.622   3.452   0.376  1.1030  1.6945  0.5256
  374SOL    HW2 1518   3.706   3.535   0.281 -2.0114  0.8640 -3.1448
  375SOL     OW 1519   2.177   0.519   5.622 -0.5361 -0.2446  0.0870
  375SOL    HW1 1520   2.186   0.533   5.527 -0.5639 -0.9899 -0.0366
  375SOL    HW2 1521   2.184   0.424   5.632 -0.1746 -0.1400  0.8762
  376SOL     OW 1522   5.168   5.574   4.942  0.5556  0.6472 -0.0212
  376SOL    HW1 1523   5.074   5.590   4.930 -0.4213 -2.8690  1.5856
  376SOL    HW2 1524   5.198   5.543   4.857 -0.0984  0.5113 -0.2113
  377SOL     OW 1525   6.063   4.754   3.111  0.0710 -0.3823  0.2392
  377SOL    HW1 1526   6.054   4.696   3.186 -1.3516 -1.1939 -0.4982
  377SOL    HW2 1527   6.117   4.827   3.142  0.4149 -1.2285  1.7034
  378SOL     OW 1528   1.115   0.855   2.016  0.4841 -0.2343 -0.3159
  378SOL    HW1 1529   1.064   0.781   2.047  1.8213 -0.9158  0.3647
  378SOL    HW2 1530   1.198   0.849   2.065  1.6053  0.2312 -2.0754
  379SOL     OW 1531   3.790   5.596   2.986 -0.5790 -0.4390  0.2734
  379SOL    HW1 1532   3.787   5.634   3.074 -0.7790 -0.6923  0.3782
  379SOL    HW2 1533   3.728   5.650   2.935 -0.8644 -0.6223  0.4224
  380SOL     OW 1534   5.207   1.235   1.366 -0.0098  0.2639 -0.6106
  380SOL    HW1 1535   5.160   1.203   1.289 -1.8486  0.4229  0.3706
  380SOL    HW2 1536   5.255   1.311   1.335 -2.3603  1.5958 -1.2423
  381SOL     OW 1537   2.640   5.522   5.697 -0.4334 -0.2049  0.1298
  381SOL    HW1 1538   2.661   5.490   5.610  0.6081 -0.1182  0.3365
  381SOL    HW2 1539   2.553   5.486   5.716 -0.7129 -0.1496 -0.9673
  382SOL     OW 1540   2.003   0.699   2.795 -0.5232  0.3609 -0.0800
  382SOL    HW1 1541   2.070   0.766   2.783 -0.6645  0.4516 -0.3889
  382SOL    HW2 1542   2.052   0.619   2.814 -0.1842 -0.0383 -2.2896
  383SOL     OW 1543   4.544   0.713   6.882  0.4516 -0.3286 -0.0642
  383SOL    HW1 1544   4.591   0.787   6.919 -0.9161  1.3417 -1.4862
  383SOL    HW2 1545   4.605   0.675   6.818  1.1268 -0.3912  0.6054
  384SOL     OW 1546   2.133   0.154   2.614  0.4494 -0.0061 -0.6938
  384SOL    HW1 1547   2.184   0.195   2.684  1.8947 -0.8643 -1.2091
  384SOL    HW2 1548   2.114   0.067   2.647  0.3243 -0.0905 -0.9914
  385SOL     OW 1549   5.649   2.180   5.280 -0.3160  0.2375 -0.4441
  385SOL    HW1 1550   5.611   2.266   5.260  0.3042  0.2299 -1.7386
  385SOL    HW2 1551   5.728   2.176   5.227  1.0461 -0.1247  1.5346
  386SOL     OW 1552   5.054   1.866   6.630 -0.3937  0.0352 -0.2920
  386SOL    HW1 1553   5.110   1.896   6.558 -0.5038  1.4291  0.1704
  386SOL    HW2 1554   5.036   1.774   6.609  0.7108  0.0134 -1.3067
  387SOL     OW 1555   1.912   3.519   2.604 -0.2752  0.2249  0.3134
  387SOL    HW1 1556   1.864   3.601   2.599 -0.6831 -0.0830 -1.2576
  387SOL    HW2 1557   1.995   3.541   2.647 -0.8848  1.1885  1.0333
  388SOL     OW 1558   5.240   4.258   1.303  0.3241  0.2575 -0.0559
  388SOL    HW1 1559   5.326   4.241   1.342  0.3324 -2.3832 -1.0691
  388SOL    HW2 1560   5.191   4.302   1.373  1.9264  0.2131  1.1544
  389SOL     OW 1561   1.259   5.882   2.641 -0.0515 -0.0293 -0.0672
  389SOL    HW1 1562   1.189   5.935   2.680 -0.5270 -0.7098  0.0303
  389SOL    HW2 1563   1.235   5.876   2.548  0.9782  1.4308 -0.4672
  390SOL     OW 1564   2.091   0.886   1.793 -0.2019  0.2637  0.2670
  390SOL    HW1 1565   2.088   0.854   1.883  2.0077  3.7809  1.7735
  390SOL    HW2 1566   2.004   0.922   1.777 -1.4152 -2.5102 -0.0541
  391SOL     OW 1567   3.683   6.922   5.328 -0.2126  0.5127  0.5802
  391SOL    HW1 1568   3.641   6.941   5.244 -0.6591  2.4579  1.1986
  391SOL    HW2 1569   3.615   6.877   5.379  0.0782 -0.7228 -0.0947
  392SOL     OW 1570   1.555   3.558   4.248  0.5273  0.1400 -0.5546
  392SOL    HW1 1571   1.538   3.560   4.154 -1.8872  0.0103 -0.1630
  392SOL    HW2 1572   1.600   3.474   4.262  0.1513 -0.2264 -1.4604
  393SOL     OW 1573   0.727   1.573   5.381 -0.0369 -0.6163 -0.2946
  393SOL    HW1 1574   0.693   1.636   5.444  0.0812  0.0523 -0.8843
  393SOL    HW2 1575   0.691   1.489   5.409 -0.9751 -0.1473 -0.0507
  394SOL     OW 1576   6.133   5.266   4.676 -0.3274 -0.0542 -0.1044
  394SOL    HW1 1577   6.156   5.265   4.769  0.2979  2.4774 -0.1757
  394SOL    HW2 1578   6.069   5.195   4.667  1.7003 -2.2968  1.6341
  395SOL     OW 1579   4.292   1.571   6.748  0.4208  0.2032  0.1867
  395SOL    HW1 1580   4.327   1.658   6.724  1.7919 -0.5996 -0.8874
  395SOL    HW2 1581   4.236   1.547   6.675  0.8137 -0.2287  0.0275
  396SOL     OW 1582   0.816   2.971   0.222 -0.5098 -0.1461  0.0802
  396SOL    HW1 1583   0.827   2.953   0.128  1.6693 -0.1266  0.2859
  396SOL    HW2 1584   0.840   3.062   0.232  1.3623 -0.6954  0.9324
  397SOL     OW 1585   1.396   2.034   1.180 -0.2264 -0.0573  0.2832
  397SOL    HW1 1586   1.301   2.038   1.192 -0.1121  2.7755  0.8515
  397SOL    HW2 1587   1.419   2.119   1.142  1.9318 -1.2393 -1.2798
  398SOL     OW 1588   6.755   3.002   4.778 -0.7356  0.4000 -0.5434
  398SOL    HW1 1589   6.743   2.968   4.690 -0.6906  0.5491 -0.6075
  398SOL    HW2 1590   6.765   3.096   4.766  2.3627  0.1716 -0.7055
  399SOL     OW 1591   5.952   5.099   6.082 -0.5640  0.1593  0.0745
  399SOL    HW1 1592   5.881   5.034   6.086 -0.9261  0.5648  0.3581
  399SOL    HW2 1593   6.032   5.049   6.098 -0.8067 -0.2727 -0.0459
  400SOL     OW 1594   4.781   5.032   2.492 -0.1448 -0.1406  0.1120
  400SOL    HW1 1595   4.715   4.968   2.518  1.2246 -1.5413  0.2130
  400SOL    HW2 1596   4.837   5.042   2.569  0.5203  0.0619 -0.3866
  401SOL     OW 1597   2.062   4.753   2.649 -0.2360 -0.4878  0.1284
  401SOL    HW1 1598   1.972   4.735   2.679 -2.0434  1.4386 -3.5222
  401SOL    HW2 1599   2.084   4.837   2.689 -1.0639  0.1892 -0.7967
  402SOL     OW 1600   6.365   6.627   2.554 -0.3458  0.1431 -0.3730
  402SOL    HW1 1601   6.443   6.677   2.577 -0.0811 -1.0521  1.5137
  402SOL    HW2 1602   6.316   6.685   2.495  0.8815  1.8099  0.1692
  403SOL     OW 1603   3.200   6.149   3.134  0.9362  0.2554 -0.2881
  403SOL    HW1 1604   3.278   6.202   3.155  1.5009 -0.2810 -0.9786
  403SOL    HW2 1605   3.234   6.075   3.084 -0.1444  0.5805 -1.5651
  404SOL     OW 1606   2.487   4.155   5.711  0.3215 -0.4480 -0.2408
  404SOL    HW1 1607   2.407   4.110   5.738 -0.8158  0.2207 -2.2416
  404SOL    HW2 1608   2.524   4.099   5.642  0.6959  0.0425 -0.4424
  405SOL     OW 1609   0.697   0.969   3.348 -0.0233  0.8116 -0.2600
  405SOL    HW1 1610   0.742   1.002   3.425 -0.3491  1.0366 -0.1620
  405SOL    HW2 1611   0.697   0.874   3.359  1.5005  0.7174 -0.8725
  406SOL     OW 1612   0.715   5.431   3.700 -0.1524  0.1984 -0.0916
  406SOL    HW1 1613   0.769   5.354   3.681 -1.4302 -0.8694  0.4201
  406SOL    HW2 1614   0.627   5.395   3.714 -0.3947  1.4827  2.2728
  407SOL     OW 1615   4.309   0.564   6.865 -0.4413 -0.6204  0.1078
  407SOL    HW1 1616   4.299   0.562   6.770  1.3495 -1.0856 -0.1064
  407SOL    HW2 1617   4.386   0.620   6.880  0.1741 -1.7034  1.1839
  408SOL     OW 1618   1.502   3.181   6.741 -0.1497  0.0436 -0.3462
  408SOL    HW1 1619   1.480   3.111   6.680  1.7487  0.6748 -1.8647
  408SOL    HW2 1620   1.445   3.254   6.717 -0.2564 -0.1094 -0.5549
  409SOL     OW 1621   2.021   2.967   2.635  0.2063 -0.0141 -0.3840
  409SOL    HW1 1622   1.976   3.028   2.577 -1.0366  0.6933  1.2498
  409SOL    HW2 1623   2.059   2.901   2.577 -2.8015 -0.5570 -1.8952
  410SOL     OW 1624   5.968   3.255   6.251  0.4734 -0.6529  0.0928
  410SOL    HW1 1625   5.875   3.232   6.244  0.0623  1.1670 -1.3773
  410SOL    HW2 1626   5.976   3.298   6.336 -0.2979  0.0719 -0.1764
  411SOL     OW 1627   4.438   1.554   3.465 -0.2352  0.2117  0.2277
  411SOL    HW1 1628   4.513   1.602   3.429  0.8658 -0.8324  1.0433
  411SOL    HW2 1629   4.432   1.583   3.556  1.0160 -1.7508  1.0112
  412SOL     OW 1630   2.198   1.281   1.384  0.1021 -0.1570 -0.5295
  412SOL    HW1 1631   2.217   1.203   1.437 -0.1411  0.3695  0.3450
  412SOL    HW2 1632   2.229   1.258   1.296  0.6112 -1.0061 -0.1396
  413SOL     OW 1633   5.843   2.879   1.775 -0.0319 -0.7199 -0.5022
  413SOL    HW1 1634   5.760   2.874   1.823  0.6449  1.0622  0.9773
  413SOL    HW2 1635   5.820   2.916   1.690 -0.6550  0.7848  0.2873
  414SOL     OW 1636   2.854   5.599   2.714 -0.2379 -0.3223  0.2243
  414SOL    HW1 1637   2.905   5.553   2.781  2.0949 -2.1466 -2.5563
  414SOL    HW2 1638   2.900   5.581   2.632 -3.5538  0.7845 -2.1007
  415SOL     OW 1639   5.350   4.006   5.975  0.0739 -0.0809 -0.0184
  415SOL    HW1 1640   5.258   4.020   5.954  0.0137 -1.4129 -0.7619
  415SOL    HW2 1641   5.397   4.055   5.907 -0.1170 -1.4666 -1.1933
  416SOL     OW 1642   5.464   2.941   1.643  0.5655 -0.1335 -0.6503
  416SOL    HW1 1643   5.470   3.003   1.570  1.5568 -0.8305 -1.1890
  416SOL    HW2 1644   5.371   2.921   1.650  0.3832  0.4530 -1.2968
  417SOL     OW 1645   5.686   2.794   0.476  0.3079 -0.4465 -0.2645
  417SOL    HW1 1646   5.621   2.742   0.523 -0.1840  1.0543  0.8041
  417SOL    HW2 1647   5.717   2.858   0.541  1.6086 -0.0442 -1.2387
  418SOL     OW 1648   0.142   5.569   5.870 -0.0825  0.0422  0.9234
  418SOL    HW1 1649   0.068   5.516   5.900  0.4927 -0.3891  1.6277
  418SOL    HW2 1650   0.165   5.533   5.784 -0.1863 -0.3544  1.0598
  419SOL     OW 1651   0.526   2.838   0.017 -0.1599 -0.0502 -0.3772
  419SOL    HW1 1652   0.450   2.892  -0.003  0.5173  1.1545  0.1649
  419SOL    HW2 1653   0.541   2.787  -0.063  0.4441  2.1340 -1.7603
  420SOL     OW 1654   4.865   4.939   3.206  0.2548 -0.4276 -0.1896
  420SOL    HW1 1655   4.942   4.882   3.200 -0.7111 -1.6390 -1.6593
  420SOL    HW2 1656   4.877   5.003   3.136  0.4383  0.0902  0.2984
  421SOL     OW 1657   6.421   5.379   4.029 -0.0041 -0.2191  0.4477
  421SOL    HW1 1658   6.446   5.413   3.944  2.2399 -1.3656  0.5698
  421SOL    HW2 1659   6.490   5.407   4.088 -1.1218 -0.0845  1.7634
  422SOL     OW 1660   1.574   5.409   4.561  0.3369  0.3698 -0.6299
  422SOL    HW1 1661   1.488   5.367   4.554  0.5742 -0.2269 -0.0223
  422SOL    HW2 1662   1.558   5.488   4.611  0.3857 -0.5144  0.8309
  423SOL     OW 1663   1.114   6.683   3.267  0.2257  0.4543 -0.9132
  423SOL    HW1 1664   1.018   6.684   3.266  0.1816 -1.0351 -0.2883
  423SOL    HW2 1665   1.138   6.687   3.175 -0.3952  1.8572 -1.0441
  424SOL     OW 1666   3.561   0.831   2.656  0.2407  0.7297 -0.1007
  424SOL    HW1 1667   3.597   0.907   2.610 -0.8864 -0.1328 -2.5559
  424SOL    HW2 1668   3.535   0.771   2.586 -2.5420 -0.2422  1.6112
  425SOL     OW 1669   3.760   3.738   2.897  0.0277 -0.0938  0.2173
  425SOL    HW1 1670   3.734   3.824   2.930  1.0413  0.3002  0.0266
  425SOL    HW2 1671   3.794   3.756   2.809 -0.8995 -0.8687 -0.3252
  426SOL     OW 1672   2.407   4.506   5.318  0.5734 -0.1145 -0.5093
  426SOL    HW1 1673   2.452   4.576   5.366  0.8681 -0.9635  0.4841
  426SOL    HW2 1674   2.405   4.537   5.228  0.9306  1.0611 -0.1366
  427SOL     OW 1675   4.613   3.621   6.141  0.1081  0.5374 -0.5016
  427SOL    HW1 1676   4.595   3.596   6.050 -0.1941 -0.6722 -0.1358
  427SOL    HW2 1677   4.657   3.544   6.178 -0.7376  0.5976  0.6596
  428SOL     OW 1678   6.622   5.828   3.446  0.8420 -0.0669 -0.3353
  428SOL    HW1 1679   6.565   5.869   3.510  0.2966 -2.2327  0.6477
  428SOL    HW2 1680   6.706   5.818   3.492  1.0277  0.0732 -0.6363
  429SOL     OW 1681   1.303   5.363   4.652 -0.3800  0.1264  0.1177
  429SOL    HW1 1682   1.266   5.346   4.739 -0.1734  0.0707  0.1954
  429SOL    HW2 1683   1.250   5.310   4.593 -1.3736  1.1713  0.0381
  430SOL     OW 1684   2.965   6.292   6.455 -0.2589 -0.1575 -0.7402
  430SOL    HW1 1685   3.007   6.336   6.529  0.0198  0.4190 -1.2267
  430SOL    HW2 1686   2.986   6.347   6.379 -0.1795 -0.9559 -1.3212
  431SOL     OW 1687   3.939   4.387   2.556  0.1679 -0.0137 -0.0045
  431SOL    HW1 1688   3.913   4.378   2.464  0.8437  0.1484 -0.2135
  431SOL    HW2 1689   3.869   4.343   2.604 -0.1771 -0.1309 -0.5969
  432SOL     OW 1690   4.092   1.958   1.256 -0.3479  1.0045 -0.2443
  432SOL    HW1 1691   4.041   1.936   1.334 -0.9762  0.7561 -0.7150
  432SOL    HW2 1692   4.076   2.051   1.242  0.3706  1.2257  0.3505
  433SOL     OW 1693   3.466   3.609   5.560  0.2783  0.1385 -0.5504
  433SOL    HW1 1694   3.379   3.603   5.520 -0.1381 -0.1937  0.3589
  433SOL    HW2 1695   3.499   3.519   5.556 -0.0146 -0.0193  0.3543
  434SOL     OW 1696   6.205   5.945   4.788  0.3251 -0.2773 -0.1154
  434SOL    HW1 1697   6.270   5.888   4.747 -0.3088  0.1968 -1.8988
  434SOL    HW2 1698   6.255   6.015   4.828  0.9518 -0.2680 -0.8980
  435SOL     OW 1699   3.126   4.470   0.410  0.1481  0.4556 -0.1438
  435SOL    HW1 1700   3.201   4.512   0.453 -0.7228  2.4462 -0.4775
  435SOL    HW2 1701   3.068   4.445   0.482 -1.4560  4.0695  0.0263
  436SOL     OW 1702   2.860   4.071   2.060  0.0932  0.5976 -0.1516
  436SOL    HW1 1703   2.853   3.988   2.106 -1.3029  0.4795 -0.5237
  436SOL    HW2 1704   2.952   4.097   2.070  0.4960 -0.8709  0.1515
  437SOL     OW 1705   3.725   1.739   1.596  0.4190 -0.0120 -0.0014
  437SOL    HW1 1706   3.669   1.811   1.625 -0.4375 -0.5360 -0.3152
  437SOL    HW2 1707   3.707   1.667   1.657  0.1635 -0.4335 -0.5613
  438SOL     OW 1708   2.296   6.605   2.392  0.3402 -0.3801  0.0806
  438SOL    HW1 1709   2.243   6.679   2.362 -0.6384 -1.3650 -0.7170
  438SOL    HW2 1710   2.323   6.629   2.481 -0.5052  0.6454  0.0801
  439SOL     OW 1711   3.294   2.778   3.702 -0.0056 -0.5144  0.1341
  439SOL    HW1 1712   3.245   2.737   3.773 -0.4637  0.2622  0.2707
  439SOL    HW2 1713   3.385   2.777   3.732 -0.1338 -0.6125  0.5245
  440SOL     OW 1714   4.615   6.852   6.116  0.2256  0.0367  0.5494
  440SOL    HW1 1715   4.673   6.906   6.170  0.3491 -0.8755  1.3567
  440SOL    HW2 1716   4.624   6.764   6.152 -0.6120 -0.3746 -0.2099
  441SOL     OW 1717   5.535   5.253   1.716 -0.6799  0.0060 -0.0892
  441SOL    HW1 1718   5.513   5.228   1.626  3.2306  0.8636 -1.5245
  441SOL    HW2 1719   5.594   5.184   1.746 -0.3624  0.7439  1.0429
  442SOL     OW 1720   0.395   3.984   1.726 -0.2534  0.5768  0.2917
  442SOL    HW1 1721   0.392   4.033   1.644 -0.2802 -0.3183 -0.2570
  442SOL    HW2 1722   0.357   3.899   1.704 -1.4967  0.7783  1.5584
  443SOL     OW 1723   5.297   4.614   1.230 -0.0804  0.8253 -0.0996
  443SOL    HW1 1724   5.287   4.701   1.269 -2.0350 -0.1904  1.8761
  443SOL    HW2 1725   5.217   4.568   1.255  0.0823 -0.9971 -2.6481
  444SOL     OW 1726   2.124   1.804   5.264  0.0893 -0.3221  0.6372
  444SOL    HW1 1727   2.154   1.883   5.309  0.5099 -0.4288  0.5473
  444SOL    HW2 1728   2.060   1.835   5.200  0.1140 -0.0766  0.7302
  445SOL     OW 1729   1.572   4.758   1.334 -0.1943 -0.1759 -0.2860
  445SOL    HW1 1730   1.652   4.805   1.311  1.2743 -2.1222  0.5406
  445SOL    HW2 1731   1.573   4.681   1.277 -0.9946 -0.6937  0.3889
  446SOL     OW 1732   0.498   5.341   5.458  0.0163  0.1446 -0.1924
  446SOL    HW1 1733   0.443   5.280   5.506  1.2838 -0.8670  0.0274
  446SOL    HW2 1734   0.541   5.393   5.526 -0.5243  0.8298 -0.3572
  447SOL     OW 1735   6.511   2.180   3.542 -0.1547 -0.1764 -0.4069
  447SOL    HW1 1736   6.446   2.240   3.504  0.0117  0.0092 -0.3995
  447SOL    HW2 1737   6.564   2.235   3.600  1.2513  0.0957 -1.8759
  448SOL     OW 1738   4.942   4.160   1.235 -0.7640  0.3221  0.4005
  448SOL    HW1 1739   5.006   4.210   1.285  1.5811 -1.2156 -0.8623
  448SOL    HW2 1740   4.940   4.074   1.278 -0.6553 -0.1813 -0.5704
  449SOL     OW 1741   4.784   4.582   4.214  0.3337 -0.4934 -0.2180
  449SOL    HW1 1742   4.859   4.638   4.194 -0.5402  1.8845  2.4981
  449SOL    HW2 1743   4.816   4.521   4.281  0.3042 -0.7967 -0.4733
  450SOL     OW 1744   0.653   0.177   3.279  0.1809  0.5945 -0.1462
  450SOL    HW1 1745   0.656   0.259   3.328 -0.9226  1.5012 -1.5019
  450SOL    HW2 1746   0.743   0.166   3.246  0.2942  1.4018 -0.1419
  451SOL     OW 1747   2.527   6.184   1.014 -0.0409 -0.1300 -0.9418
  451SOL    HW1 1748   2.545   6.262   1.066  0.9962  1.2406 -3.2127
  451SOL    HW2 1749   2.432   6.177   1.011 -0.1340  0.9223 -0.5376
  452SOL     OW 1750   6.032   0.155   4.842  0.0041  0.9098 -0.1567
  452SOL    HW1 1751   5.964   0.087   4.848 -1.7069  2.5689  0.3064
  452SOL    HW2 1752   6.021   0.206   4.922  1.0560  1.9138 -0.6322
  453SOL     OW 1753   2.677   1.807   6.551  0.2554  0.4884  0.0769
  453SOL    HW1 1754   2.739   1.821   6.623 -0.5656  0.2020  0.8484
  453SOL    HW2 1755   2.591   1.809   6.592 -0.1884 -0.5813 -0.7552
  454SOL     OW 1756   5.652   1.932   5.726 -0.3232 -0.1124  0.0862
  454SOL    HW1 1757   5.660   1.854   5.780 -1.2592  0.5587  1.2582
  454SOL    HW2 1758   5.584   1.984   5.770 -1.2439  0.3880 -1.8335
  455SOL     OW 1759   4.675   2.530   6.133  0.1175  0.4813  0.5619
  455SOL    HW1 1760   4.755   2.524   6.184  1.1760  2.2497 -0.7612
  455SOL    HW2 1761   4.615   2.583   6.186  1.0395  1.9133  0.2253
  456SOL     OW 1762   4.319   5.208   0.583 -0.4506  0.4095 -0.2578
  456SOL    HW1 1763   4.381   5.281   0.587  1.1133 -0.8325 -0.6635
  456SOL    HW2 1764   4.232   5.250   0.587  0.3237  2.0582  3.1605
  457SOL     OW 1765   0.103   0.371   6.717  0.0602  0.5383  0.0620
  457SOL    HW1 1766   0.154   0.407   6.789  2.2977 -1.2712 -0.4869
  457SOL    HW2 1767   0.100   0.277   6.735 -0.6697  0.2576 -1.4079
  458SOL     OW 1768   6.668   1.796   6.299  0.1929  0.0388 -0.5034
  458SOL    HW1 1769   6.574   1.785   6.315  0.5839 -0.0500  2.2402
  458SOL    HW2 1770   6.673   1.831   6.210 -2.3886 -0.3926 -0.9117
  459SOL     OW 1771   2.508   5.098   0.975  0.0259  0.2072  0.2372
  459SOL    HW1 1772   2.493   5.004   0.983 -1.9616  0.5525  1.0329
  459SOL    HW2 1773   2.558   5.107   0.894 -2.9277 -1.2770 -1.9404
  460SOL     OW 1774   5.747   4.055   2.050 -0.2271  0.1266  0.1861
  460SOL    HW1 1775   5.722   4.129   2.106  0.1214  0.7768 -0.4907
  460SOL    HW2 1776   5.812   4.092   1.990  0.2582 -0.8415  0.1015
  461SOL     OW 1777   6.325   0.615   1.424  0.0661  0.5345  0.3395
  461SOL    HW1 1778   6.265   0.602   1.498  0.7596 -0.2720  0.7757
  461SOL    HW2 1779   6.271   0.655   1.356 -0.9612 -0.1302  0.7386
  462SOL     OW 1780   5.122   2.757   0.005  0.9909  0.2105  0.3048
  462SOL    HW1 1781   5.028   2.738   0.015  1.0068 -0.4503 -0.7242
  462SOL    HW2 1782   5.130   2.791  -0.084  1.6119  1.0733  0.6797
  463SOL     OW 1783   6.498   6.462   4.696  0.0369 -0.1784  0.6743
  463SOL    HW1 1784   6.579   6.424   4.730 -0.0169  0.8362  1.9918
  463SOL    HW2 1785   6.438   6.388   4.689  0.9873 -0.9029 -0.1099
  464SOL     OW 1786   0.094   4.374   0.202  0.2223  0.2231  0.1349
  464SOL    HW1 1787   0.153   4.343   0.134 -0.3195  0.1726 -0.3176
  464SOL    HW2 1788   0.116   4.467   0.213 -0.6199  0.5989 -1.1093
  465SOL     OW 1789   1.420   4.035   5.776 -0.6312 -0.0785  0.9047
  465SOL    HW1 1790   1.393   3.946   5.799 -0.9878 -1.0365 -2.5984
  465SOL    HW2 1791   1.345   4.072   5.729  0.4332  1.1081  0.0463
  466SOL     OW 1792   0.839   4.229   2.307 -0.2889 -0.5497  0.0440
  466SOL    HW1 1793   0.934   4.227   2.316 -0.1384 -0.6374 -1.3053
  466SOL    HW2 1794   0.821   4.309   2.257 -0.7962 -1.1725 -0.8135
  467SOL     OW 1795   2.415   6.744   3.514 -0.4012 -0.7545  0.0757
  467SOL    HW1 1796   2.496   6.718   3.471 -0.5599  0.6397 -1.1808
  467SOL    HW2 1797   2.377   6.663   3.547  0.0369 -1.8465 -1.9574
  468SOL     OW 1798   3.001   5.401   3.210 -0.0011 -0.1344 -0.1244
  468SOL    HW1 1799   3.017   5.490   3.242 -0.8169  0.4836 -1.3213
  468SOL    HW2 1800   2.916   5.378   3.247 -1.0964  0.7057 -1.9664
  469SOL     OW 1801   1.104   3.874   0.742  0.1841 -0.3347 -0.1485
  469SOL    HW1 1802   1.010   3.858   0.727  0.2020 -1.6151  0.9418
  469SOL    HW2 1803   1.141   3.787   0.755  1.4826  0.1898 -0.2197
  470SOL     OW 1804   4.955   3.366   5.927  0.1611  0.1290 -0.2249
  470SOL    HW1 1805   5.001   3.406   6.001  1.4080 -2.2432  0.3773
  470SOL    HW2 1806   4.885   3.428   5.907 -0.7001  0.5654  3.3992
  471SOL     OW 1807   5.435   6.336   1.015 -0.1472  0.4257 -0.5067
  471SOL    HW1 1808   5.463   6.375   1.098  0.2825 -1.7803  0.4539
  471SOL    HW2 1809   5.371   6.398   0.980 -0.3480  1.4201  1.4610
  472SOL     OW 1810   3.531   0.755   4.623  0.5571 -0.7172 -0.1944
  472SOL    HW1 1811   3.568   0.726   4.705 -0.0953 -2.3845 -0.4608
  472SOL    HW2 1812   3.491   0.840   4.643  1.3304 -0.6045  0.9262
  473SOL     OW 1813   4.090   3.562   2.649  0.1358  0.0103 -0.3009
  473SOL    HW1 1814   4.174   3.525   2.623  1.1725  2.4169 -0.6150
  473SOL    HW2 1815   4.112   3.634   2.708 -1.8693 -1.0043  1.8656
  474SOL     OW 1816   0.814   2.533   3.629  0.0959  0.2435  0.4302
  474SOL    HW1 1817   0.803   2.616   3.583  0.4704 -0.2485 -0.6028
  474SOL    HW2 1818   0.908   2.514   3.624  0.1381  0.1565  1.3881
  475SOL     OW 1819   0.178   0.778   0.174  0.2195 -0.1661 -0.6587
  475SOL    HW1 1820   0.273   0.784   0.175  0.2487 -0.6150 -0.3411
  475SOL    HW2 1821   0.157   0.717   0.245 -0.4304  1.7367  0.8649
  476SOL     OW 1822   5.684   5.398   4.829 -0.4373 -0.4389  0.0814
  476SOL    HW1 1823   5.737   5.460   4.880  1.3640 -0.7445 -1.2862
  476SOL    HW2 1824   5.730   5.315   4.839 -1.1449 -0.9014 -0.4864
  477SOL     OW 1825   2.465   2.010   3.928 -0.6834 -0.0532 -0.1481
  477SOL    HW1 1826   2.497   2.099   3.943  0.1522 -0.4247  0.3346
  477SOL    HW2 1827   2.534   1.969   3.875 -0.3610 -0.8546  0.8740
  478SOL     OW 1828   4.975   2.107   4.202 -0.0798 -0.0915 -0.3094
  478SOL    HW1 1829   5.020   2.182   4.240 -1.4019  1.6512 -1.9926
  478SOL    HW2 1830   4.894   2.099   4.252  0.0177 -0.3465 -0.1896
  479SOL     OW 1831   1.305   1.514   0.422  0.0793 -0.2441 -0.4604
  479SOL    HW1 1832   1.224   1.479   0.385  0.6013 -1.8317 -0.1690
  479SOL    HW2 1833   1.314   1.470   0.506  0.6266  0.8303  0.0601
  480SOL     OW 1834   2.261   4.259   4.210  0.2664 -0.3879  0.6353
  480SOL    HW1 1835   2.278   4.299   4.124 -0.8719 -0.1332  0.5213
  480SOL    HW2 1836   2.296   4.170   4.202 -0.3689 -0.5665 -0.2962
  481SOL     OW 1837   6.550   5.259   5.084  0.1327 -0.0508 -0.5017
  481SOL    HW1 1838   6.552   5.163   5.081  1.1912 -0.0680  0.0976
  481SOL    HW2 1839   6.619   5.286   5.022  0.0114  0.3194 -0.4773
  482SOL     OW 1840   0.784   1.448   6.876  0.0259  0.1732 -0.0465
  482SOL    HW1 1841   0.772   1.353   6.886 -1.4849  0.2977 -0.4180
  482SOL    HW2 1842   0.697   1.485   6.891  0.5532  1.4908 -0.1159
  483SOL     OW 1843   6.834   1.644   1.015 -0.3751  0.8613 -1.0803
  483SOL    HW1 1844   6.909   1.604   1.058 -1.1582 -0.7360 -1.1409
  483SOL    HW2 1845   6.838   1.737   1.040  1.1721  0.6524 -0.4807
  484SOL     OW 1846   1.001   1.656   6.388  0.5911 -0.0595 -0.0818
  484SOL    HW1 1847   1.090   1.623   6.374  0.7401  0.1050  0.4316
  484SOL    HW2 1848   0.981   1.705   6.309  1.2949  0.6201  0.1445
  485SOL     OW 1849   3.854   0.841   2.653  0.0405  0.0396  0.1713
  485SOL    HW1 1850   3.779   0.851   2.713  0.6197  0.3649  0.8563
  485SOL    HW2 1851   3.929   0.828   2.711  0.3253 -1.6922 -0.5376
  486SOL     OW 1852   5.115   6.452   0.536  0.1174  0.1612 -0.2791
  486SOL    HW1 1853   5.179   6.480   0.601  0.1292  0.9098 -0.6075
  486SOL    HW2 1854   5.101   6.529   0.481 -0.7229 -0.1293 -0.4885
  487SOL     OW 1855   4.637   3.012   2.722  0.1894 -0.0211  0.3317
  487SOL    HW1 1856   4.645   3.074   2.649  0.6164 -2.8478 -2.2397
  487SOL    HW2 1857   4.543   2.999   2.733  0.1340 -0.1769 -0.2978
  488SOL     OW 1858   2.546   6.693   1.831 -0.0754  0.5987  0.8868
  488SOL    HW1 1859   2.635   6.718   1.809 -0.2933  0.1621 -0.5676
  488SOL    HW2 1860   2.490   6.748   1.777 -0.5855 -1.6432 -1.0478
  489SOL     OW 1861   6.340   2.121   1.674 -0.7353  0.2532  0.0128
  489SOL    HW1 1862   6.361   2.172   1.752 -0.7423  3.6121 -1.9671
  489SOL    HW2 1863   6.425   2.099   1.636 -0.7129  0.8566 -0.3064
  490SOL     OW 1864   3.848   3.821   2.662  0.1717 -0.4699 -0.8101
  490SOL    HW1 1865   3.867   3.910   2.633 -0.0736  0.1249  0.7965
  490SOL    HW2 1866   3.915   3.767   2.619  0.1345  0.4181 -2.0403
  491SOL     OW 1867   1.206   3.228   0.247 -0.2255 -0.5598  0.7104
  491SOL    HW1 1868   1.187   3.152   0.301  1.2083 -1.6084 -0.1611
  491SOL    HW2 1869   1.262   3.194   0.177  0.9303  1.3952  0.6027
  492SOL     OW 1870   3.348   6.672   1.150  0.1094  0.6822 -0.1385
  492SOL    HW1 1871   3.273   6.731   1.157 -0.2718  0.1604  0.1863
  492SOL    HW2 1872   3.337   6.609   1.221 -0.8756 -1.3395 -1.9843
  493SOL     OW 1873   3.285   4.696   4.085  0.2356  0.8158  0.1896
  493SOL    HW1 1874   3.339   4.672   4.010 -1.9442  1.4565 -1.7150
  493SOL    HW2 1875   3.274   4.791   4.076 -2.6336  0.4948 -0.6225
  494SOL     OW 1876   1.990   5.786   0.340 -0.2057 -0.0531  0.4014
  494SOL    HW1 1877   2.081   5.815   0.335 -0.9405  2.4520  0.5250
  494SOL    HW2 1878   1.963   5.776   0.248 -0.6924  2.4095  0.2055
  495SOL     OW 1879   5.895   0.423   2.475  0.0805 -0.2336  0.6082
  495SOL    HW1 1880   5.853   0.427   2.561 -1.1834  0.1012 -0.0032
  495SOL    HW2 1881   5.826   0.396   2.416  1.2848 -1.9196 -0.1117
  496SOL     OW 1882   0.414   2.276   5.427  0.2193 -0.1584 -0.3010
  496SOL    HW1 1883   0.387   2.342   5.362  0.0041  0.3986  0.3412
  496SOL    HW2 1884   0.358   2.200   5.409 -0.7614  0.4530  0.0537
  497SOL     OW 1885   4.085   1.911   3.881  0.0560  0.4207  0.2289
  497SOL    HW1 1886   4.030   1.863   3.819  1.3362 -0.2299 -0.4239
  497SOL    HW2 1887   4.077   2.002   3.854  0.4756  0.1625 -0.7955
  498SOL     OW 1888   2.623   3.350   4.487  0.2227 -0.4111 -0.5072
  498SOL    HW1 1889   2.682   3.423   4.469  0.1601 -0.2814 -0.2029
  498SOL    HW2 1890   2.551   3.390   4.535 -0.2665 -0.5167 -1.1483
  499SOL     OW 1891   6.028   5.213   1.497  0.0291  0.0266  0.2362
  499SOL    HW1 1892   5.962   5.145   1.490 -2.0142  1.8553  0.4337
  499SOL    HW2 1893   6.097   5.175   1.551 -1.2482 -1.7023  0.7397
  500SOL     OW 1894   2.516   0.876   2.632  0.5473 -0.0642  0.1829
  500SOL    HW1 1895   2.525   0.888   2.537  0.0862 -0.5170  0.0791
  500SOL    HW2 1896   2.428   0.840   2.643  1.1347 -1.4052  0.6609
  501SOL     OW 1897   2.312   6.490   4.997 -0.3955 -0.1653 -0.3242
  501SOL    HW1 1898   2.309   6.562   4.934 -0.9479 -0.6188 -0.8328
  501SOL    HW2 1899   2.244   6.511   5.061  0.1070  0.2514  0.0804
  502SOL     OW 1900   3.099   0.144   5.694 -0.4506  0.2713 -0.0865
  502SOL    HW1 1901   3.106   0.240   5.700  0.0629  0.3077 -1.0427
  502SOL    HW2 1902   3.073   0.117   5.782  0.3290  1.2152  0.4638
  503SOL     OW 1903   4.970   6.145   6.914 -0.0108 -0.2024  0.1897
  503SOL    HW1 1904   4.922   6.218   6.875  0.3795  0.0305  0.1366
  503SOL    HW2 1905   5.062   6.165   6.897  0.1292 -0.4267  0.6711
  504SOL     OW 1906   4.322   4.078   0.706  0.6487  0.2625 -0.2628
  504SOL    HW1 1907   4.273   4.015   0.654  0.7262 -0.2086  0.2346
  504SOL    HW2 1908   4.279   4.080   0.791 -1.4561  3.3491 -1.2147
  505SOL     OW 1909   5.344   2.882   2.662  0.0614 -0.1762  0.0769
  505SOL    HW1 1910   5.376   2.969   2.682 -1.9714  0.0933  2.6601
  505SOL    HW2 1911   5.361   2.831   2.741 -2.2762 -0.9992  0.1289
  506SOL     OW 1912   5.133   4.784   5.994 -0.8377  0.0118  0.3838
  506SOL    HW1 1913   5.177   4.731   5.928  0.7120 -0.6052  1.8547
  506SOL    HW2 1914   5.169   4.755   6.078 -1.0784  2.2960  1.3751
  507SOL     OW 1915   0.800   5.485   0.264  0.1022 -0.5755 -0.3800
  507SOL    HW1 1916   0.815   5.576   0.290 -0.0390 -0.1227 -1.7743
  507SOL    HW2 1917   0.861   5.434   0.318 -0.7931  0.1810  1.4218
  508SOL     OW 1918   4.092   6.800   5.574  0.6792  0.0587  0.0198
  508SOL    HW1 1919   4.058   6.797   5.664  0.6696 -1.4286 -0.0069
  508SOL    HW2 1920   4.150   6.876   5.573 -0.9113  1.3325  0.6867
  509SOL     OW 1921   1.642   2.867   4.928 -0.4048  0.2592  0.2965
  509SOL    HW1 1922   1.694   2.835   4.854 -0.8619 -1.8832  0.8418
  509SOL    HW2 1923   1.694   2.845   5.005 -1.8936 -1.6492  0.8346
  510SOL     OW 1924   3.733   0.420   4.773 -0.2640 -0.4838  0.0433
  510SOL    HW1 1925   3.764   0.358   4.707 -2.8849 -0.9328 -0.8909
  510SOL    HW2 1926   3.771   0.503   4.747 -0.4126 -0.8532 -1.4839
  511SOL     OW 1927   6.277   1.362   5.723 -0.1846  0.3608 -0.6513
  511SOL    HW1 1928   6.357   1.315   5.749 -1.6986 -1.7900  0.3946
  511SOL    HW2 1929   6.247   1.404   5.803 -0.9342 -0.1805 -0.6375
  512SOL     OW 1930   1.844   6.427   2.945  0.3907  0.0791 -0.3207
  512SOL    HW1 1931   1.750   6.436   2.935  0.2284 -1.1659 -0.0396
  512SOL    HW2 1932   1.881   6.467   2.866 -0.3235  1.2958 -0.0540
  513SOL     OW 1933   1.399   0.059   6.007  0.2220 -0.7741  0.3949
  513SOL    HW1 1934   1.371   0.135   5.956  1.7536 -0.3158  0.1879
  513SOL    HW2 1935   1.369  -0.016   5.956  0.7674 -0.3110 -0.6369
  514SOL     OW 1936   5.827   2.873   6.762 -0.7013 -0.3418 -0.0513
  514SOL    HW1 1937   5.823   2.837   6.674 -1.6940  0.0520 -0.1857
  514SOL    HW2 1938   5.873   2.956   6.752 -0.3719 -0.5281 -0.1085
  515SOL     OW 1939   4.088   6.474   0.257  0.0526 -0.0988 -0.2114
  515SOL    HW1 1940   4.006   6.504   0.297 -0.6954 -0.6179 -1.2772
  515SOL    HW2 1941   4.082   6.503   0.166  1.5289  0.7148 -0.0798
  516SOL     OW 1942   1.361   3.032   4.664 -0.2908 -0.0782 -0.4305
  516SOL    HW1 1943   1.392   3.122   4.650 -0.8586  0.2485  0.3556
  516SOL    HW2 1944   1.283   3.042   4.718 -0.2851 -1.0633 -0.2305
  517SOL     OW 1945   6.030   4.657   5.331  0.4454  0.1744 -0.2584
  517SOL    HW1 1946   6.011   4.606   5.410 -0.4881  0.1654 -0.4772
  517SOL    HW2 1947   6.032   4.592   5.261 -1.3793  0.4808 -0.6359
  518SOL     OW 1948   3.502   0.587   0.707  0.1718 -0.3011 -0.0592
  518SOL    HW1 1949   3.458   0.621   0.785  1.1932  0.6566  0.1254
  518SOL    HW2 1950   3.456   0.506   0.687 -0.5759 -0.1883  1.1126
  519SOL     OW 1951   2.652   1.682   1.629 -0.4760  0.1278  0.8655
  519SOL    HW1 1952   2.717   1.751   1.637  0.1731 -0.2881 -0.5204
  519SOL    HW2 1953   2.702   1.601   1.643 -0.5512 -0.2273 -0.7778
  520SOL     OW 1954   1.867   5.395   4.385 -0.1933 -0.5212  0.3535
  520SOL    HW1 1955   1.958   5.426   4.392  0.2814 -0.8584 -2.6635
  520SOL    HW2 1956   1.817   5.454   4.441  1.7531  0.3284  1.2861
  521SOL     OW 1957   2.445   1.404   4.452 -0.3731  0.3183  0.5610
  521SOL    HW1 1958   2.384   1.413   4.525 -1.6182 -2.1915 -0.0557
  521SOL    HW2 1959   2.413   1.468   4.387 -0.4191  1.2050  1.4365
  522SOL     OW 1960   3.237   4.647   5.433  0.0117  0.2331  0.0718
  522SOL    HW1 1961   3.288   4.593   5.372  0.7926  0.7531  0.2581
  522SOL    HW2 1962   3.146   4.634   5.405 -0.0138 -2.4250  1.0848
  523SOL     OW 1963   0.561   3.833   0.374  0.3828 -0.0139  0.5590
  523SOL    HW1 1964   0.588   3.743   0.394  0.9656 -0.1988 -0.9427
  523SOL    HW2 1965   0.597   3.850   0.287 -1.8974  0.7510 -0.3058
  524SOL     OW 1966   2.787   2.372   1.308  0.1667 -0.2090 -0.1839
  524SOL    HW1 1967   2.756   2.322   1.232 -0.0966 -0.2325 -0.0618
  524SOL    HW2 1968   2.870   2.409   1.280  0.5643 -1.0373 -0.1541
  525SOL     OW 1969   2.378   2.609   6.470 -0.5898  0.0482  0.2757
  525SOL    HW1 1970   2.462   2.612   6.517  0.4233  0.1764 -1.4382
  525SOL    HW2 1971   2.312   2.597   6.539  0.6750  1.4899  1.8324
  526SOL     OW 1972   3.928   4.900   1.564  0.3786 -0.2296 -0.1112
  526SOL    HW1 1973   4.021   4.907   1.585  0.7633 -1.7182 -1.1922
  526SOL    HW2 1974   3.925   4.854   1.480 -1.2417  2.1922 -1.5065
  527SOL     OW 1975   2.460   4.289   2.094  0.2046  0.1821  0.0230
  527SOL    HW1 1976   2.512   4.218   2.056  0.0610  0.0038  0.1628
  527SOL    HW2 1977   2.522   4.362   2.102  0.0640  0.4874 -1.3030
  528SOL     OW 1978   6.045   6.598   5.703  0.9851 -0.3789 -0.5165
  528SOL    HW1 1979   6.048   6.658   5.778 -0.9155 -0.7144 -0.1302
  528SOL    HW2 1980   6.065   6.653   5.627 -2.5211  1.2832 -0.4271
  529SOL     OW 1981   0.090   4.109   5.781  0.2297  0.5058 -0.5829
  529SOL    HW1 1982   0.000   4.081   5.797  0.3400  0.0204 -0.8011
  529SOL    HW2 1983   0.105   4.179   5.845  0.3697 -0.7862  0.8532
  530SOL     OW 1984   4.809   3.319   1.806  0.1866  0.0373  0.1497
  530SOL    HW1 1985   4.878   3.343   1.868  1.5061  1.9816 -1.8986
  530SOL    HW2 1986   4.834   3.234   1.772  0.5774 -0.0927  0.7586
  531SOL     OW 1987   0.633   2.166   2.924  0.1614  0.0125 -0.8210
  531SOL    HW1 1988   0.683   2.213   2.857  2.2247 -0.3646  0.3683
  531SOL    HW2 1989   0.609   2.233   2.988  1.0309 -0.1367 -0.3248
  532SOL     OW 1990   3.958   3.119   4.210  0.0874  1.0405 -0.3044
  532SOL    HW1 1991   4.012   3.157   4.279  1.3998  0.5551 -1.0453
  532SOL    HW2 1992   4.015   3.057   4.165 -1.1406  0.3629 -0.9960
  533SOL     OW 1993   5.944   3.567   6.795  0.2414 -0.2415 -0.2639
  533SOL    HW1 1994   5.921   3.639   6.854 -0.7773 -0.0075 -0.9142
  533SOL    HW2 1995   5.895   3.586   6.715 -1.6135 -2.6395  0.1745
  534SOL     OW 1996   6.675   6.448   2.092  0.4432  0.6962  0.0550
  534SOL    HW1 1997   6.746   6.460   2.029 -0.7954  1.8816 -1.1470
  534SOL    HW2 1998   6.668   6.533   2.136  1.3655 -0.1395  1.9422
  535SOL     OW 1999   2.448   4.086   6.919 -0.3503 -0.4118 -0.0175
  535SOL    HW1 2000   2.355   4.077   6.898 -0.4080 -3.6662  1.1215
  535SOL    HW2 2001   2.492   4.085   6.834 -1.2579 -0.4900 -0.5010
  536SOL     OW 2002   1.254   3.391   6.207 -0.1946  0.8350 -0.5583
  536SOL    HW1 2003   1.189   3.322   6.224  1.1861 -0.5937 -0.8261
  536SOL    HW2 2004   1.224   3.465   6.259 -1.4026 -0.1643  0.2341
  537SOL     OW 2005   4.079   0.550   0.656  0.2039 -0.3299  0.1011
  537SOL    HW1 2006   4.040   0.589   0.578  0.3480 -0.2766  0.0555
  537SOL    HW2 2007   4.005   0.537   0.715 -0.2770 -2.3613 -0.8560
  538SOL     OW 2008   6.435   2.593   3.752  0.1056 -0.6378 -0.1215
  538SOL    HW1 2009   6.467   2.634   3.671  1.5537 -0.4052  0.5420
  538SOL    HW2 2010   6.500   2.527   3.773  0.6564  0.4328  1.7409
  539SOL     OW 2011   2.099   2.606   4.123 -0.1448  0.9383 -0.0201
  539SOL    HW1 2012   2.117   2.623   4.031 -0.2385 -1.5833 -0.5499
  539SOL    HW2 2013   2.141   2.522   4.142 -0.8616  0.9650  2.0099
  540SOL     OW 2014   6.858   4.411   4.566 -0.4059 -0.2545 -0.4076
  540SOL    HW1 2015   6.849   4.483   4.627 -1.3940 -0.6989 -0.0118
  540SOL    HW2 2016   6.770   4.375   4.557  0.2418 -2.2230  0.4069
  541SOL     OW 2017   2.299   0.460   0.393 -1.0430  0.0977 -0.9594
  541SOL    HW1 2018   2.294   0.540   0.341 -1.1125  0.1574 -0.8609
  541SOL    HW2 2019   2.217   0.457   0.442 -1.3829 -0.4438 -1.5539
  542SOL     OW 2020   0.667   5.908   1.250  0.4784 -0.1485 -0.6368
  542SOL    HW1 2021   0.690   5.930   1.340 -1.7609  1.7334 -0.4289
  542SOL    HW2 2022   0.620   5.825   1.257  1.8408 -0.9187 -0.3399
  543SOL     OW 2023   1.897   1.522   2.582 -0.2528 -0.2307  0.5041
  543SOL    HW1 2024   1.982   1.516   2.627 -0.4887 -1.5879  0.8234
  543SOL    HW2 2025   1.912   1.484   2.496 -0.0072  1.6224 -0.3251
  544SOL     OW 2026   1.639   5.197   0.716  0.5425  0.0228  0.2508
  544SOL    HW1 2027   1.687   5.172   0.637  1.5079  0.8906  0.5460
  544SOL    HW2 2028   1.548   5.204   0.687  0.8158 -0.0980 -0.6790
  545SOL     OW 2029   2.112   5.903   1.561 -0.4278 -0.0995  0.4321
  545SOL    HW1 2030   2.160   5.833   1.516  1.0791 -0.7292  2.8541
  545SOL    HW2 2031   2.026   5.903   1.520  0.6580 -0.9777 -2.0318
  546SOL     OW 2032   1.396   2.308   4.546 -0.1060  0.4277 -0.1361
  546SOL    HW1 2033   1.455   2.304   4.622  2.1630  0.9866 -1.7524
  546SOL    HW2 2034   1.348   2.390   4.557  1.1736  1.1820  0.0642
  547SOL     OW 2035   4.887   5.612   5.943 -0.1779 -0.0330  0.1467
  547SOL    HW1 2036   4.804   5.626   5.896 -0.1149  1.1561  0.3624
  547SOL    HW2 2037   4.928   5.539   5.896 -0.3060  0.8343 -1.4009
  548SOL     OW 2038   4.552   0.592   4.708  0.0631 -0.3460  0.0037
  548SOL    HW1 2039   4.526   0.556   4.624 -0.6722  0.4019 -0.1048
  548SOL    HW2 2040   4.600   0.521   4.751  0.8719 -0.5663 -1.2378
  549SOL     OW 2041   1.990   2.404   0.328 -0.1481  0.6066 -0.4343
  549SOL    HW1 2042   1.961   2.339   0.392 -0.6425  0.3489 -0.9154
  549SOL    HW2 2043   2.030   2.352   0.259 -2.2155  0.6406 -1.7318
  550SOL     OW 2044   4.220   0.535   4.455 -0.1683 -0.3119  0.1267
  550SOL    HW1 2045   4.145   0.476   4.464  0.7873 -1.4260  1.1429
  550SOL    HW2 2046   4.194   0.614   4.503 -0.8420 -0.5297  0.1325
  551SOL     OW 2047   5.652   2.156   2.198  0.6408 -0.5870  0.3413
  551SOL    HW1 2048   5.681   2.065   2.198  1.9876 -0.1935 -0.9290
  551SOL    HW2 2049   5.636   2.176   2.106  0.2617  0.4269  0.6177
  552SOL     OW 2050   5.791   3.385   2.238 -0.5298  0.0193 -0.0152
  552SOL    HW1 2051   5.801   3.311   2.297 -1.1127  1.4302  1.9622
  552SOL    HW2 2052   5.727   3.356   2.173 -0.7700 -1.1817  0.7397
  553SOL     OW 2053   0.356   4.247   0.694  0.6832  0.1028  0.1964
  553SOL    HW1 2054   0.392   4.334   0.711  4.0843 -1.0409 -0.2983
  553SOL    HW2 2055   0.350   4.242   0.599 -0.2349  0.0142  0.2490
  554SOL     OW 2056   5.927   4.129   2.683 -0.6482 -0.1244 -0.4138
  554SOL    HW1 2057   5.902   4.053   2.630 -0.9290  1.1885 -2.2666
  554SOL    HW2 2058   5.851   4.187   2.677 -0.3214  0.4492  0.7371
  555SOL     OW 2059   0.479   6.186   1.169  0.5723  0.1701 -0.2682
  555SOL    HW1 2060   0.414   6.199   1.237  1.3118 -2.3330  1.0314
  555SOL    HW2 2061   0.447   6.112   1.117  1.3007  0.3283 -0.9748
  556SOL     OW 2062   1.915   0.988   4.305  0.3773  0.2897  0.0373
  556SOL    HW1 2063   1.824   1.014   4.289  0.0901 -1.1773 -0.8998
  556SOL    HW2 2064   1.956   0.990   4.218  0.9169 -0.1905  0.2746
  557SOL     OW 2065   6.941   1.521   4.739  0.8235 -0.4866 -0.1060
  557SOL    HW1 2066   6.849   1.508   4.761  1.3044 -1.9605  1.2302
  557SOL    HW2 2067   6.946   1.502   4.646 -0.1819 -0.6221 -0.1451
  558SOL     OW 2068   1.948   6.602   2.768 -0.2456  0.3636  0.6025
  558SOL    HW1 2069   1.960   6.697   2.770 -0.7291  0.4459 -0.1157
  558SOL    HW2 2070   1.880   6.588   2.703 -1.0047 -0.3970  1.5353
  559SOL     OW 2071   6.665   6.421   0.993  0.2848 -0.3604  0.1199
  559SOL    HW1 2072   6.717   6.471   1.057  1.2323 -1.1931  0.0363
  559SOL    HW2 2073   6.689   6.459   0.909  1.1246 -1.0182  0.0421
  560SOL     OW 2074   3.591   3.753   1.076 -0.6957  0.4826 -0.5371
  560SOL    HW1 2075   3.578   3.848   1.073  2.0035  0.8895 -2.6440
  560SOL    HW2 2076   3.514   3.717   1.032 -1.5225  1.7010 -0.1492
  561SOL     OW 2077   1.284   4.857   2.924 -0.2744  0.2492  0.1016
  561SOL    HW1 2078   1.235   4.807   2.859 -0.6640  0.2926  0.3614
  561SOL    HW2 2079   1.265   4.815   3.007  0.4138  0.0462  0.1647
  562SOL     OW 2080   2.376   5.277   5.844  0.0156 -0.2680  0.5326
  562SOL    HW1 2081   2.291   5.303   5.809 -0.0198 -0.8759  0.1544
  562SOL    HW2 2082   2.438   5.296   5.773  0.3843  1.2501  1.2072
  563SOL     OW 2083   0.560   3.288   2.717  0.4238  0.0709  0.5112
  563SOL    HW1 2084   0.632   3.243   2.761  0.5665 -0.9085 -0.6598
  563SOL    HW2 2085   0.523   3.222   2.658 -0.1601  1.1395 -0.3582
  564SOL     OW 2086   4.885   2.096   5.106 -0.2536 -0.5215 -0.8903
  564SOL    HW1 2087   4.936   2.101   5.025 -0.3517 -0.8182 -0.9724
  564SOL    HW2 2088   4.948   2.111   5.176 -0.3317  0.6883 -1.0633
  565SOL     OW 2089   2.186   4.713   3.454 -0.0686  0.6345 -0.4250
  565SOL    HW1 2090   2.275   4.678   3.456 -0.1314  0.4773  1.3676
  565SOL    HW2 2091   2.137   4.658   3.515 -1.7057 -0.0102 -2.2270
  566SOL     OW 2092   2.360   6.400   6.134  0.3130 -0.2496 -0.2743
  566SOL    HW1 2093   2.317   6.486   6.132  1.2294  0.2222 -0.4070
  566SOL    HW2 2094   2.301   6.345   6.186 -0.7988  0.1651 -1.0518
  567SOL     OW 2095   6.223   2.674   1.992  0.9090  0.1305  0.2914
  567SOL    HW1 2096   6.165   2.721   2.052 -0.2172 -2.6432  1.5705
  567SOL    HW2 2097   6.192   2.696   1.905 -1.7301 -0.6937  0.9190
  568SOL     OW 2098   0.824   5.900   5.053  0.4582 -0.0285 -0.3340
  568SOL    HW1 2099   0.834   5.984   5.099  1.0478 -0.6613  0.7168
  568SOL    HW2 2100   0.859   5.917   4.965 -0.5718  1.1644 -0.5478
  569SOL     OW 2101   0.537   0.117   1.390  0.2636 -0.0802  0.2274
  569SOL    HW1 2102   0.467   0.112   1.455  0.6054  1.0360  0.7045
  569SOL    HW2 2103   0.513   0.190   1.334  0.9264  0.1790  0.2682
  570SOL     OW 2104   6.365   2.049   4.509 -0.3667  0.0727  0.3199
  570SOL    HW1 2105   6.301   2.016   4.572  0.4126 -0.1804  1.0018
  570SOL    HW2 2106   6.394   2.133   4.546 -1.3495  0.9001 -0.7210
  571SOL     OW 2107   3.835   0.888   3.864 -0.3399  0.7353 -0.2691
  571SOL    HW1 2108   3.929   0.897   3.849 -0.2591  0.9830  0.3675
  571SOL    HW2 2109   3.821   0.922   3.952 -0.8309 -0.4982  0.1568
  572SOL     OW 2110   1.838   0.639   1.217 -0.5006  0.3728  0.2968
  572SOL    HW1 2111   1.778   0.703   1.180 -0.9280 -0.2858 -0.1745
  572SOL    HW2 2112   1.793   0.555   1.207 -1.1448  0.2445  3.3485
  573SOL     OW 2113   2.277   3.063   4.642  0.3533  0.9647  0.1150
  573SOL    HW1 2114   2.347   2.998   4.635  0.6089  1.1448  0.9501
  573SOL    HW2 2115   2.203   3.014   4.678 -0.0260  0.7327 -0.9312
  574SOL     OW 2116   3.211   2.710   5.653 -0.1520 -0.2322  0.4089
  574SOL    HW1 2117   3.303   2.732   5.665 -0.1342 -0.2815  0.3652
  574SOL    HW2 2118   3.186   2.751   5.570  0.0630 -0.9295 -0.0114
  575SOL     OW 2119   6.079   5.704   3.021 -0.0171 -0.0872 -0.0966
  575SOL    HW1 2120   6.032   5.620   3.015 -1.1885  0.4586  1.0567
  575SOL    HW2 2121   6.067   5.744   2.935 -2.7216  0.5442  0.4766
  576SOL     OW 2122   4.083   0.087   3.931  0.5202 -0.1739  0.1467
  576SOL    HW1 2123   4.026   0.023   3.973 -0.2711  0.2290 -0.2967
  576SOL    HW2 2124   4.087   0.160   3.993 -1.1663  0.6955 -0.7158
  577SOL     OW 2125   3.666   4.656   0.649 -0.2487  0.2590  0.0653
  577SOL    HW1 2126   3.714   4.663   0.732 -0.6442  1.1170  0.2274
  577SOL    HW2 2127   3.574   4.658   0.674 -0.3715 -0.1488 -0.3480
  578SOL     OW 2128   2.583   1.521   6.523  0.5723 -0.9388 -0.2823
  578SOL    HW1 2129   2.648   1.474   6.471  1.1036  0.2222 -0.6845
  578SOL    HW2 2130   2.605   1.613   6.512  0.3955 -0.6229  1.5778
  579SOL     OW 2131   0.115   6.824   4.346  0.0284 -0.0447 -0.6877
  579SOL    HW1 2132   0.038   6.853   4.394  0.9912  0.4776  0.6088
  579SOL    HW2 2133   0.147   6.748   4.395  0.2849 -0.3159 -1.2646
  580SOL     OW 2134   6.340   5.583   0.653 -0.0740 -0.0755 -0.1132
  580SOL    HW1 2135   6.301   5.531   0.583  0.5462 -2.0571  0.9562
  580SOL    HW2 2136   6.434   5.581   0.636  0.0684 -0.4563  0.6763
  581SOL     OW 2137   2.530   1.785   4.721  0.7378 -0.2513  0.2855
  581SOL    HW1 2138   2.600   1.817   4.664  0.6324 -0.1691  0.2009
  581SOL    HW2 2139   2.453   1.783   4.664  0.3766  0.8791  0.7064
  582SOL     OW 2140   5.639   2.207   2.763 -0.3317  0.5263  0.7514
  582SOL    HW1 2141   5.582   2.219   2.688 -0.3931 -0.4467  0.6331
  582SOL    HW2 2142   5.580   2.183   2.835 -0.0244 -1.1446  0.4688
  583SOL     OW 2143   6.910   4.758   0.871  1.1596  0.0020  0.3154
  583SOL    HW1 2144   6.865   4.721   0.795  1.3597  1.6644 -0.6700
  583SOL    HW2 2145   6.946   4.840   0.839  0.9199  0.9440  2.3401
  584SOL     OW 2146   3.629   2.826   1.530 -0.3296 -0.2972  0.7435
  584SOL    HW1 2147   3.597   2.817   1.441 -0.6292  2.5066  0.4827
  584SOL    HW2 2148   3.724   2.829   1.522 -0.3731  2.8304  0.0391
  585SOL     OW 2149   4.412   0.722   1.066  0.3834  0.6994  0.1706
  585SOL    HW1 2150   4.344   0.702   1.130 -0.1657  1.3785 -0.1865
  585SOL    HW2 2151   4.368   0.714   0.981  0.3577  2.4479 -0.0257
  586SOL     OW 2152   3.963   4.744   2.793  0.6760 -0.6546  0.2142
  586SOL    HW1 2153   3.941   4.784   2.877  1.0156 -0.8441  0.3963
  586SOL    HW2 2154   4.013   4.665   2.817  6.1188  2.1674 -0.1065
  587SOL     OW 2155   4.776   3.638   0.384 -0.1224  0.2616 -0.4659
  587SOL    HW1 2156   4.867   3.613   0.368  0.5358  0.0480  2.9200
  587SOL    HW2 2157   4.733   3.557   0.410 -0.5141  0.8489  0.7728
  588SOL     OW 2158   4.719   5.067   3.401 -0.2009  0.1477  0.3076
  588SOL    HW1 2159   4.633   5.057   3.361 -0.7016  2.7625  0.5646
  588SOL    HW2 2160   4.781   5.050   3.330 -0.9087 -0.9072 -0.0878
  589SOL     OW 2161   2.654   3.829   0.386 -0.1918  0.0780 -0.8843
  589SOL    HW1 2162   2.654   3.861   0.296 -2.8417  2.6193 -0.1464
  589SOL    HW2 2163   2.743   3.846   0.418  0.3317  0.5859 -2.5335
  590SOL     OW 2164   3.583   1.471   6.168  0.3139 -0.3157 -0.5714
  590SOL    HW1 2165   3.668   1.490   6.209  0.6807 -2.5596 -0.1317
  590SOL    HW2 2166   3.532   1.551   6.178  1.6757  0.4036  0.9991
  591SOL     OW 2167   1.599   0.221   2.225 -0.6148 -0.1460 -0.1588
  591SOL    HW1 2168   1.629   0.160   2.294 -0.4742  0.1451  0.0392
  591SOL    HW2 2169   1.665   0.289   2.223 -1.2443  0.4968  0.2686
  592SOL     OW 2170   2.540   2.969   2.956 -0.4286 -0.0033 -0.4472
  592SOL    HW1 2171   2.614   3.022   2.926 -0.1860 -0.8085 -1.3309
  592SOL    HW2 2172   2.520   3.003   3.043 -0.2396  1.4881 -0.9546
  593SOL     OW 2173   5.041   4.699   5.033 -0.1617 -0.4954  0.2146
  593SOL    HW1 2174   5.102   4.713   4.961 -1.6995  1.5289 -0.7855
  593SOL    HW2 2175   5.009   4.610   5.020  1.4832 -1.0835 -0.0502
  594SOL     OW 2176   3.880   2.011   3.044 -0.0964 -0.1621 -0.4277
  594SOL    HW1 2177   3.912   2.092   3.004  0.8074 -0.5166 -0.4401
  594SOL    HW2 2178   3.927   1.941   2.998  2.4852 -0.5334  2.4998
  595SOL     OW 2179   2.290   3.950   4.986  0.0522 -0.4931  0.0319
  595SOL    HW1 2180   2.373   3.955   5.034  2.3416 -1.8034 -3.4332
  595SOL    HW2 2181   2.277   4.039   4.953  0.2073 -0.3586  0.3202
  596SOL     OW 2182   1.456   6.900   1.731  0.2488  0.5228  0.1547
  596SOL    HW1 2183   1.455   6.815   1.687  0.6137  1.1100 -1.0428
  596SOL    HW2 2184   1.526   6.893   1.796  1.1358  0.3007 -0.7948
  597SOL     OW 2185   5.222   5.425   4.396 -0.1012  0.2611  0.5878
  597SOL    HW1 2186   5.142   5.393   4.355 -1.2121  0.3907  2.5049
  597SOL    HW2 2187   5.249   5.500   4.342 -1.5149  0.4686  0.1358
  598SOL     OW 2188   1.578   3.748   4.963 -0.1203  0.1790 -0.4401
  598SOL    HW1 2189   1.666   3.735   5.000 -0.4764 -0.4314  0.2179
  598SOL    HW2 2190   1.552   3.836   4.992 -0.0747  0.0167  0.1013
  599SOL     OW 2191   6.370   1.500   4.477  0.4532 -0.3653 -0.0192
  599SOL    HW1 2192   6.380   1.576   4.533  2.5266 -0.3488 -0.3613
  599SOL    HW2 2193   6.406   1.526   4.393  2.0379 -1.9747  0.1065
  600SOL     OW 2194   1.898   3.698   6.852 -0.6367  0.1707 -0.3203
  600SOL    HW1 2195   1.865   3.688   6.941 -1.7808 -1.2283 -0.8659
  600SOL    HW2 2196   1.835   3.651   6.797 -0.4535  1.7436 -1.9855
  601SOL     OW 2197   6.687   0.564   0.332  0.2421 -0.2970  0.6049
  601SOL    HW1 2198   6.740   0.572   0.252  0.1365  0.0804  0.5713
  601SOL    HW2 2199   6.598   0.553   0.300  0.4136 -2.0716  0.6381
  602SOL     OW 2200   4.104   6.336   3.363 -0.7499  0.1400 -0.2162
  602SOL    HW1 2201   4.105   6.426   3.331 -1.3904  0.1918 -0.0993
  602SOL    HW2 2202   4.017   6.325   3.401 -0.6454 -0.5041 -0.1549
  603SOL     OW 2203   3.712   6.701   5.797 -0.3145  0.0551  0.4734
  603SOL    HW1 2204   3.807   6.708   5.796 -0.3035  3.6497  3.4250
  603SOL    HW2 2205   3.694   6.612   5.827  2.0863 -0.4717  0.5241
  604SOL     OW 2206   4.338   3.422   6.913 -0.0836 -0.1816 -0.2529
  604SOL    HW1 2207   4.403   3.411   6.983 -0.0793 -1.2127 -0.4046
  604SOL    HW2 2208   4.308   3.513   6.922  1.3080  0.2897 -0.1264
  605SOL     OW 2209   5.154   3.553   5.445 -0.3029 -0.3603  0.1444
  605SOL    HW1 2210   5.247   3.565   5.424 -0.2843 -0.4561  0.1745
  605SOL    HW2 2211   5.108   3.584   5.367 -0.2177 -1.3021 -0.2838
  606SOL     OW 2212   0.025   3.293   2.427 -0.4926 -0.2067  0.0416
  606SOL    HW1 2213   0.011   3.370   2.482 -1.2750 -0.8197  0.7095
  606SOL    HW2 2214  -0.062   3.270   2.395 -0.1230 -0.1774 -1.0439
  607SOL     OW 2215   5.421   2.263   2.585  0.1378 -0.5152  0.1898
  607SOL    HW1 2216   5.341   2.286   2.633 -0.5706 -0.1215 -1.1294
  607SOL    HW2 2217   5.455   2.347   2.554  0.6966 -0.7428  0.1852
  608SOL     OW 2218   5.731   5.259   4.004 -0.3242  0.4888  0.5657
  608SOL    HW1 2219   5.642   5.225   4.015 -0.9543  1.9203  0.1237
  608SOL    HW2 2220   5.721   5.354   4.007  1.0294  0.7066 -0.6570
  609SOL     OW 2221   0.042   0.432   2.186  0.0633 -0.5013 -0.5372
  609SOL    HW1 2222   0.027   0.370   2.115  1.9038 -0.1657 -1.2685
  609SOL    HW2 2223  -0.018   0.504   2.169  0.3919 -0.4880 -1.6875
  610SOL     OW 2224   0.222   6.887   5.614  0.7460 -0.2859 -0.4527
  610SOL    HW1 2225   0.129   6.868   5.608  1.2770 -3.1349 -1.3014
  610SOL    HW2 2226   0.234   6.923   5.702 -1.2728  1.2978 -0.7654
  611SOL     OW 2227   0.494   1.328   3.903 -0.2081 -0.1455  0.0841
  611SOL    HW1 2228   0.433   1.386   3.949 -0.4697 -0.1013 -0.3108
  611SOL    HW2 2229   0.570   1.322   3.961 -0.4075  0.1513  0.3805
  612SOL     OW 2230   6.080   1.408   5.533 -0.4783  0.0130  0.1354
  612SOL    HW1 2231   6.166   1.381   5.566 -0.9397  1.0904  2.3690
  612SOL    HW2 2232   6.068   1.497   5.566 -2.6389 -0.2713  0.2239
  613SOL     OW 2233   3.394   6.345   0.655  0.3639  0.7210 -0.4172
  613SOL    HW1 2234   3.313   6.376   0.615 -0.3031 -0.9219 -0.3974
  613SOL    HW2 2235   3.372   6.332   0.747 -1.0173 -4.5285 -1.1633
  614SOL     OW 2236   0.814   0.568   3.632  0.5081 -0.3477  0.4657
  614SOL    HW1 2237   0.764   0.628   3.577 -2.3513  0.7492  3.8594
  614SOL    HW2 2238   0.902   0.604   3.632 -0.0326  1.1437 -1.2185
  615SOL     OW 2239   1.741   6.236   5.975 -0.4514 -0.7076 -0.2397
  615SOL    HW1 2240   1.828   6.226   5.935 -0.1133  0.9643  0.0079
  615SOL    HW2 2241   1.702   6.310   5.929 -0.4592  0.6117  1.7451
  616SOL     OW 2242   2.988   4.833   6.707  0.3393  0.2649 -0.5277
  616SOL    HW1 2243   2.923   4.890   6.665 -0.8665 -0.6016  0.1199
  616SOL    HW2 2244   3.002   4.762   6.644 -0.6426 -0.4484  0.0309
  617SOL     OW 2245   1.189   2.535   0.334  0.1451  0.3331  0.1763
  617SOL    HW1 2246   1.155   2.446   0.333  1.0047 -0.0880 -3.4917
  617SOL    HW2 2247   1.111   2.590   0.331 -0.3769 -0.4418 -1.5752
  618SOL     OW 2248   4.542   2.288   1.734  0.4030 -0.0190 -0.3587
  618SOL    HW1 2249   4.560   2.270   1.642  0.3731 -0.6962 -0.2343
  618SOL    HW2 2250   4.447   2.289   1.740  0.4046 -0.2503 -0.2840
  619SOL     OW 2251   6.067   6.568   3.118 -0.1387 -0.0067  0.3412
  619SOL    HW1 2252   6.003   6.632   3.087 -0.7608 -1.4554 -1.5874
  619SOL    HW2 2253   6.122   6.550   3.041  1.4235 -0.1891  1.4424
  620SOL     OW 2254   0.699   3.517   2.559 -0.3568  0.1636 -0.1698
  620SOL    HW1 2255   0.785   3.528   2.599 -1.7311  1.7870  2.6568
  620SOL    HW2 2256   0.665   3.436   2.597 -1.0471  0.8918  0.8284
  621SOL     OW 2257   6.320   3.617   3.308 -0.0250 -0.2961  0.0356
  621SOL    HW1 2258   6.331   3.522   3.314  2.3798 -0.0085  1.6881
  621SOL    HW2 2259   6.243   3.636   3.361  0.7568 -1.1728  1.5605
  622SOL     OW 2260   5.454   0.886   4.949  0.1510  0.1317  0.1108
  622SOL    HW1 2261   5.383   0.835   4.988  0.6598 -0.8090 -0.1564
  622SOL    HW2 2262   5.454   0.861   4.857  1.2436 -0.3976  0.2298
  623SOL     OW 2263   3.060   6.402   1.416  0.0817 -0.3210  0.2507
  623SOL    HW1 2264   3.067   6.325   1.473 -2.2643 -1.5108 -0.9217
  623SOL    HW2 2265   2.996   6.458   1.460  0.5331  0.1744  0.2739
  624SOL     OW 2266   5.588   4.208   6.034  0.0321 -0.0928  0.5358
  624SOL    HW1 2267   5.629   4.122   6.044 -0.1089 -0.1160  0.9366
  624SOL    HW2 2268   5.613   4.237   5.946  1.5698  0.2372  1.0483
  625SOL     OW 2269   6.662   3.125   5.550  0.6862 -0.4360 -0.3037
  625SOL    HW1 2270   6.618   3.062   5.493  1.7497  1.9949 -4.1645
  625SOL    HW2 2271   6.593   3.184   5.579  0.3854 -0.6663 -0.5427
  626SOL     OW 2272   4.412   1.845   6.629  0.0670  0.3491 -0.2540
  626SOL    HW1 2273   4.477   1.792   6.583  0.8997  1.0019  0.1454
  626SOL    HW2 2274   4.418   1.931   6.587 -0.0726  0.5909  0.2218
  627SOL     OW 2275   2.266   4.389   2.513 -0.5992  0.6296 -0.1379
  627SOL    HW1 2276   2.191   4.341   2.480 -0.0476 -0.9345  0.7709
  627SOL    HW2 2277   2.342   4.346   2.473 -0.0605  0.3032  1.1733
  628SOL     OW 2278   0.969   6.758   2.823 -0.2121  0.1532  0.0097
  628SOL    HW1 2279   1.008   6.839   2.790 -0.1928  0.0250 -0.2909
  628SOL    HW2 2280   0.947   6.709   2.744 -1.1485  0.3017  0.1639
  629SOL     OW 2281   5.440   1.908   2.236 -0.1789  0.9182  0.0373
  629SOL    HW1 2282   5.364   1.865   2.274 -0.7619 -0.2051 -2.2273
  629SOL    HW2 2283   5.402   1.973   2.176  0.4807 -1.0688 -2.7190
  630SOL     OW 2284   1.170   3.012   0.423  0.0021 -0.6409  0.1861
  630SOL    HW1 2285   1.261   2.984   0.413  0.8318  1.0981  2.1338
  630SOL    HW2 2286   1.137   2.960   0.495 -0.2896 -0.6883  0.0185
  631SOL     OW 2287   4.771   6.612   1.644  0.1503  0.1976 -0.2738
  631SOL    HW1 2288   4.734   6.528   1.617  1.0581 -0.1365 -0.5104
  631SOL    HW2 2289   4.840   6.630   1.579 -0.0781  1.1585 -0.2722
  632SOL     OW 2290   0.557   2.274   4.010  0.2097 -0.1829 -0.4162
  632SOL    HW1 2291   0.589   2.268   4.100 -0.9503  0.1234  0.0432
  632SOL    HW2 2292   0.623   2.324   3.963  0.9703 -0.6011  0.1958
  633SOL     OW 2293   6.143   4.244   6.578 -0.0345 -0.5532  0.1975
  633SOL    HW1 2294   6.229   4.285   6.576 -1.0303  1.6710 -1.0296
  633SOL    HW2 2295   6.116   4.248   6.670  0.3515  0.6349  0.2705
  634SOL     OW 2296   1.853   2.929   1.237  0.5811 -0.3138 -0.0695
  634SOL    HW1 2297   1.781   2.991   1.223  1.6519  0.9576 -0.1202
  634SOL    HW2 2298   1.846   2.869   1.162  0.3614  0.5818 -0.7969
  635SOL     OW 2299   6.050   6.170   2.224  0.0083 -0.5270  0.0944
  635SOL    HW1 2300   6.068   6.222   2.302 -0.0078 -0.0923 -0.1889
  635SOL    HW2 2301   6.028   6.234   2.156 -0.2460 -0.9133 -0.1980
  636SOL     OW 2302   2.156   0.945   1.247 -0.6721  0.1071 -0.0561
  636SOL    HW1 2303   2.098   0.881   1.289  0.7766 -0.8185  0.6485
  636SOL    HW2 2304   2.239   0.936   1.294  0.2779  0.8417 -1.5095
  637SOL     OW 2305   1.344   6.225   4.038  0.7098 -0.6768 -0.1481
  637SOL    HW1 2306   1.344   6.286   4.111  1.3501  0.0619 -0.7415
  637SOL    HW2 2307   1.390   6.148   4.071  2.2092  0.1699 -0.1489
  638SOL     OW 2308   1.838   1.579   0.902  0.3548 -0.0073 -0.8836
  638SOL    HW1 2309   1.776   1.637   0.946  1.7099  1.4028 -0.7478
  638SOL    HW2 2310   1.905   1.559   0.968 -0.8910 -3.1735 -0.3785
  639SOL     OW 2311   5.663   6.791   5.365  0.3162  0.0566 -0.3424
  639SOL    HW1 2312   5.581   6.838   5.351 -0.0719 -0.4906  0.0087
  639SOL    HW2 2313   5.636   6.708   5.404  1.1947  1.0536  2.6879
  640SOL     OW 2314   4.099   0.060   3.666 -0.1937 -0.0362 -0.2566
  640SOL    HW1 2315   4.113   0.050   3.760 -0.1592 -0.2675 -0.2836
  640SOL    HW2 2316   4.035   0.130   3.657 -0.8295 -0.5773 -0.0196
  641SOL     OW 2317   1.032   6.430   5.405 -0.6335  0.5491 -0.5210
  641SOL    HW1 2318   0.953   6.483   5.421 -0.4194  0.7800 -0.2393
  641SOL    HW2 2319   1.083   6.437   5.485 -0.4795  0.1261 -0.5808
  642SOL     OW 2320   1.436   3.632   0.649 -0.0432 -0.1002 -0.3364
  642SOL    HW1 2321   1.515   3.626   0.703 -0.0664 -0.3247 -0.3236
  642SOL    HW2 2322   1.447   3.563   0.583  0.1397  0.3968 -0.8304
  643SOL     OW 2323   1.008   6.013   1.787 -0.2790 -0.6101  0.1323
  643SOL    HW1 2324   0.996   5.958   1.709 -1.6697  1.4076 -1.2141
  643SOL    HW2 2325   0.999   6.102   1.754 -0.2834  0.3565  2.5414
  644SOL     OW 2326   3.851   0.169   0.590 -0.3535 -0.1325 -0.5867
  644SOL    HW1 2327   3.816   0.087   0.553 -2.3046  0.9228 -1.2369
  644SOL    HW2 2328   3.939   0.175   0.555  0.6878 -2.9605  1.1408
  645SOL     OW 2329   6.262   5.676   5.210  0.1048  0.1808 -0.5659
  645SOL    HW1 2330   6.342   5.630   5.186  0.4979  0.8804 -0.6350
  645SOL    HW2 2331   6.191   5.616   5.188  0.6684 -1.2675  1.2792
  646SOL     OW 2332   4.988   2.506   0.634  0.3817  0.7865  0.6944
  646SOL    HW1 2333   4.928   2.579   0.619  0.2508  0.2714 -1.6699
  646SOL    HW2 2334   4.933   2.428   0.626  0.7531  0.3748  1.9442
  647SOL     OW 2335   0.266   0.555   5.174  0.2264  0.1559  0.6001
  647SOL    HW1 2336   0.189   0.585   5.126  0.4988 -1.6966 -1.1149
  647SOL    HW2 2337   0.312   0.636   5.198 -0.3936  1.2008 -1.4928
  648SOL     OW 2338   5.566   0.159   2.018 -0.6373 -0.0537 -0.3459
  648SOL    HW1 2339   5.500   0.090   2.028  0.2686 -1.1586 -1.5798
  648SOL    HW2 2340   5.540   0.205   1.938  0.9703 -1.5812 -1.8101
  649SOL     OW 2341   5.392   0.310   1.339  0.6041 -0.4309  0.1283
  649SOL    HW1 2342   5.365   0.225   1.374  0.8791 -0.4508  0.2980
  649SOL    HW2 2343   5.326   0.372   1.372  0.1414 -0.6517 -0.3864
  650SOL     OW 2344   0.242   3.586   2.649  0.0200 -0.1230 -0.0305
  650SOL    HW1 2345   0.164   3.641   2.657  1.0178  1.1049  2.0889
  650SOL    HW2 2346   0.279   3.609   2.563 -0.8595  0.7450 -0.1980
  651SOL     OW 2347   4.131   1.580   2.747  0.5024  0.1969 -0.5437
  651SOL    HW1 2348   4.110   1.540   2.663 -0.2160 -3.4328  1.1334
  651SOL    HW2 2349   4.046   1.602   2.785  0.6766 -0.0757  0.0214
  652SOL     OW 2350   5.623   5.113   0.739  0.0338 -0.0995  0.0779
  652SOL    HW1 2351   5.654   5.097   0.650 -2.5020  0.1979 -0.9348
  652SOL    HW2 2352   5.558   5.045   0.754 -0.0052  0.2206  1.4945
  653SOL     OW 2353   1.909   3.489   6.094  0.2115  0.0629 -0.0691
  653SOL    HW1 2354   1.957   3.558   6.141 -0.1759  1.3717 -1.5323
  653SOL    HW2 2355   1.847   3.455   6.159 -0.8164  2.3165  0.2317
  654SOL     OW 2356   2.092   0.429   2.809 -0.3781  0.4992 -0.0854
  654SOL    HW1 2357   2.168   0.457   2.859 -0.0517  1.5320 -1.1206
  654SOL    HW2 2358   2.050   0.363   2.864  1.4108 -0.3160  0.3841
  655SOL     OW 2359   2.020   4.175   4.124 -0.0392 -0.0616 -0.2884
  655SOL    HW1 2360   2.006   4.105   4.188  1.6935 -0.1078  0.0963
  655SOL    HW2 2361   2.079   4.236   4.168 -0.9086  1.2711 -0.9007
  656SOL     OW 2362   0.851   2.700   5.836  0.1144  0.2528  0.3739
  656SOL    HW1 2363   0.788   2.720   5.905 -0.8186 -0.0336 -0.3555
  656SOL    HW2 2364   0.807   2.726   5.755 -0.0189 -1.9892 -0.3672
  657SOL     OW 2365   6.446   3.914   2.116 -0.4328  0.0661 -0.0790
  657SOL    HW1 2366   6.388   3.858   2.065 -0.4048  0.3191 -0.3947
  657SOL    HW2 2367   6.495   3.963   2.051  0.0695 -0.0784  0.1902
  658SOL     OW 2368   2.296   3.303   6.103 -0.1840  0.8368  0.2742
  658SOL    HW1 2369   2.243   3.224   6.097 -0.0320  0.4727  2.6511
  658SOL    HW2 2370   2.341   3.296   6.187  3.1296  1.4915 -1.2774
  659SOL     OW 2371   6.057   0.382   3.827 -0.2634 -0.0888  0.5048
  659SOL    HW1 2372   5.967   0.406   3.804 -0.4604 -1.0547  0.2324
  659SOL    HW2 2373   6.075   0.303   3.776  0.9032  0.3316  0.2148
  660SOL     OW 2374   3.273   1.486   5.007 -0.0634  0.0106 -0.2553
  660SOL    HW1 2375   3.261   1.514   5.098 -0.3695 -1.1632  0.0878
  660SOL    HW2 2376   3.368   1.484   4.995 -0.0180  1.8485 -0.5354
  661SOL     OW 2377   4.855   4.016   3.399 -0.3917  0.3140 -0.1441
  661SOL    HW1 2378   4.810   3.938   3.431  2.9381 -2.2031 -1.0534
  661SOL    HW2 2379   4.880   4.064   3.478 -0.0603 -1.0753  0.6283
  662SOL     OW 2380   4.424   3.440   3.743 -0.4783  0.0959 -0.2593
  662SOL    HW1 2381   4.353   3.446   3.679 -0.5710  0.0027 -0.1651
  662SOL    HW2 2382   4.408   3.512   3.804 -2.2910 -1.7514  1.5804
  663SOL     OW 2383   3.694   4.363   6.025 -0.1970  0.2090  0.7037
  663SOL    HW1 2384   3.604   4.381   6.001 -0.1807 -0.9690 -0.3561
  663SOL    HW2 2385   3.706   4.269   6.008  1.6296  0.6155 -0.5822
  664SOL     OW 2386   1.837   4.905   3.124 -0.1221 -0.4994 -0.5178
  664SOL    HW1 2387   1.927   4.881   3.146  0.0692  0.7541  0.1409
  664SOL    HW2 2388   1.826   4.993   3.159 -2.2068 -1.3285  1.1094
  665SOL     OW 2389   3.971   6.347   2.443  0.3864  0.5990 -0.5368
  665SOL    HW1 2390   3.981   6.399   2.522  0.1158  2.3415 -1.5808
  665SOL    HW2 2391   3.877   6.329   2.437  0.6986 -1.7634  0.8358
  666SOL     OW 2392   3.124   3.821   0.221 -0.3997 -0.0887  0.4344
  666SOL    HW1 2393   3.210   3.795   0.252  0.3439  1.4734 -0.2204
  666SOL    HW2 2394   3.078   3.851   0.299  0.1676  0.4283  0.5766
  667SOL     OW 2395   0.729   6.718   5.742  0.3700  0.0929  0.0657
  667SOL    HW1 2396   0.682   6.634   5.739 -0.1241  0.3364  0.6943
  667SOL    HW2 2397   0.661   6.783   5.723  0.5187  0.4287  0.6958
  668SOL     OW 2398   3.069   4.164   0.887 -0.1041  0.2950  0.8355
  668SOL    HW1 2399   3.084   4.139   0.978 -1.4239  0.8422  1.2226
  668SOL    HW2 2400   3.040   4.083   0.845  0.8029 -0.0316  0.8103
  669SOL     OW 2401   3.539   1.907   1.360 -0.0736  0.0166  0.0982
  669SOL    HW1 2402   3.516   1.980   1.302 -1.2024 -0.7110 -0.3930
  669SOL    HW2 2403   3.459   1.887   1.407 -0.1960 -1.7908 -0.7868
  670SOL     OW 2404   6.947   6.586   4.673 -0.3726 -0.3712 -0.5558
  670SOL    HW1 2405   6.997   6.552   4.747 -0.8010  1.3791  0.5729
  670SOL    HW2 2406   6.998   6.558   4.596 -0.1429 -2.5676  0.3245
  671SOL     OW 2407   0.308   0.044   6.051 -0.0132  0.6440  0.1392
  671SOL    HW1 2408   0.377   0.092   6.097  1.5333 -0.6702 -0.7031
  671SOL    HW2 2409   0.325   0.059   5.958 -0.8486  0.2564 -0.0912
  672SOL     OW 2410   4.146   5.606   5.028  0.0229  0.0396 -0.2627
  672SOL    HW1 2411   4.178   5.609   4.938  1.8564  2.6759  0.3687
  672SOL    HW2 2412   4.122   5.514   5.041  0.4193 -0.5819 -3.1528
  673SOL     OW 2413   6.457   2.369   1.372 -0.9544 -0.1398  0.0391
  673SOL    HW1 2414   6.552   2.381   1.370 -0.4238 -3.5327 -0.5311
  673SOL    HW2 2415   6.425   2.423   1.299  0.3766  1.7511  0.7810
  674SOL     OW 2416   3.419   1.383   1.224 -0.5193 -0.1290 -0.4573
  674SOL    HW1 2417   3.379   1.295   1.221 -0.5734 -0.2698  2.1566
  674SOL    HW2 2418   3.512   1.366   1.238 -0.3117  0.2495 -1.3195
  675SOL     OW 2419   3.982   1.407   4.170 -0.1578  0.1545  0.1067
  675SOL    HW1 2420   3.891   1.379   4.171 -0.0083 -0.5281  3.2411
  675SOL    HW2 2421   4.032   1.327   4.187  0.7741  0.9918  1.5307
  676SOL     OW 2422   6.404   5.588   2.421  0.4446  0.0506 -0.5613
  676SOL    HW1 2423   6.433   5.671   2.384  1.4574 -0.2708 -0.5230
  676SOL    HW2 2424   6.382   5.534   2.345  1.0639 -0.0874 -0.6529
  677SOL     OW 2425   4.427   6.425   6.282 -0.1126 -0.5825 -0.2335
  677SOL    HW1 2426   4.344   6.464   6.308 -0.6675 -2.6693  1.4758
  677SOL    HW2 2427   4.466   6.394   6.365  1.6277 -1.0062 -1.1617
  678SOL     OW 2428   6.278   1.495   5.175 -0.2231  0.2964 -0.7188
  678SOL    HW1 2429   6.287   1.550   5.253  0.0771 -1.5270  0.5941
  678SOL    HW2 2430   6.184   1.489   5.160 -0.2402  1.7954 -1.3881
  679SOL     OW 2431   6.692   3.266   5.238 -0.4478 -0.0488  0.5936
  679SOL    HW1 2432   6.603   3.249   5.271  0.0140 -1.1862  1.2870
  679SOL    HW2 2433   6.730   3.325   5.302  0.1112 -1.4818  1.6182
  680SOL     OW 2434   3.195   5.315   0.482  0.5043 -0.1209  0.0712
  680SOL    HW1 2435   3.177   5.401   0.521  1.1491 -0.1050  0.3550
  680SOL    HW2 2436   3.286   5.297   0.506  0.6123 -0.5435 -0.6328
  681SOL     OW 2437   0.912   0.000   1.825  0.1002 -0.3198  0.5793
  681SOL    HW1 2438   0.993  -0.048   1.807  1.2180  1.8005 -0.5006
  681SOL    HW2 2439   0.854  -0.022   1.751 -0.2296 -1.5940  1.1892
  682SOL     OW 2440   1.738   6.842   2.652  0.6893 -0.1394  0.5678
  682SOL    HW1 2441   1.796   6.857   2.726 -0.2690 -1.1622  1.5616
  682SOL    HW2 2442   1.752   6.750   2.629 -0.0292 -0.2026  0.3758
  683SOL     OW 2443   3.074   4.814   0.025 -0.4389 -0.0702  0.0293
  683SOL    HW1 2444   3.067   4.895   0.076  1.0580  0.3794 -0.4130
  683SOL    HW2 2445   3.054   4.840  -0.065 -0.8823 -0.3912  0.0347
  684SOL     OW 2446   3.847   3.198   3.277  0.6586 -0.0466 -0.3984
  684SOL    HW1 2447   3.779   3.188   3.344  0.6109 -1.1171 -0.5813
  684SOL    HW2 2448   3.808   3.160   3.198  1.0860  0.2858 -0.7689
  685SOL     OW 2449   6.493   3.067   3.859  0.1114  0.8673  0.2314
  685SOL    HW1 2450   6.408   3.109   3.872  0.9929  2.3037  1.6938
  685SOL    HW2 2451   6.504   3.013   3.938  0.9158  1.3412  0.4441
  686SOL     OW 2452   2.907   6.306   1.099 -0.5969  0.1063  0.0674
  686SOL    HW1 2453   2.961   6.384   1.083  0.0682 -0.2249  0.6351
  686SOL    HW2 2454   2.960   6.252   1.157 -0.9114 -0.9177 -0.5671
  687SOL     OW 2455   1.215   6.481   5.648  0.2139 -0.3742  0.3768
  687SOL    HW1 2456   1.285   6.422   5.674  0.1404 -0.4219  0.4705
  687SOL    HW2 2457   1.163   6.492   5.727  2.3413  2.8651  1.5170
  688SOL     OW 2458   6.576   6.574   3.599  0.1537 -1.0869 -0.1952
  688SOL    HW1 2459   6.643   6.519   3.639  0.4791 -1.1347 -0.8043
  688SOL    HW2 2460   6.622   6.624   3.532 -0.0905  0.0693  0.4619
  689SOL     OW 2461   1.541   4.642   2.378  0.0325 -0.1490 -0.0415
  689SOL    HW1 2462   1.494   4.643   2.461  1.1816  0.1882  0.6272
  689SOL    HW2 2463   1.632   4.627   2.402  0.1584 -1.9943 -1.3732
  690SOL     OW 2464   6.066   1.517   3.149  0.1763  0.2240 -0.6166
  690SOL    HW1 2465   6.068   1.584   3.081  1.1309  1.5792  0.6742
  690SOL    HW2 2466   5.994   1.544   3.206 -0.1913 -0.5324 -0.7138
  691SOL     OW 2467   6.477   0.911   5.317  0.2030  0.2934 -0.0832
  691SOL    HW1 2468   6.529   0.857   5.377  2.2432 -0.2278 -2.2003
  691SOL    HW2 2469   6.411   0.851   5.282 -0.3242  0.3324  0.8151
  692SOL     OW 2470   1.662   5.891   3.436 -0.3133 -0.1239  0.9086
  692SOL    HW1 2471   1.569   5.874   3.424 -0.5724  1.1328  0.9918
  692SOL    HW2 2472   1.704   5.848   3.361 -1.1864  1.1404 -0.3470
  693SOL     OW 2473   1.926   1.170   2.955 -0.0100  1.0672  0.0820
  693SOL    HW1 2474   1.890   1.095   3.002  0.5467  0.0850 -1.0021
  693SOL    HW2 2475   1.854   1.200   2.899 -0.5008  1.8959  1.1331
  694SOL     OW 2476   1.571   5.631   2.964  0.3405  1.0102 -0.0951
  694SOL    HW1 2477   1.505   5.701   2.970  2.0966  2.6562  1.0923
  694SOL    HW2 2478   1.650   5.675   2.932  1.6567 -0.2996  1.2075
  695SOL     OW 2479   1.056   2.026   2.278  0.4440 -0.3555  0.0937
  695SOL    HW1 2480   0.985   2.006   2.216 -0.4547  1.1687  0.5734
  695SOL    HW2 2481   1.116   2.082   2.228  0.7298 -0.7131  0.0317
  696SOL     OW 2482   3.683   3.774   5.542  0.0153  0.0591 -0.1686
  696SOL    HW1 2483   3.661   3.837   5.473 -0.6940 -1.1224 -1.0499
  696SOL    HW2 2484   3.601   3.728   5.560  0.8963 -1.8746 -0.8524
  697SOL     OW 2485   0.063   2.608   2.044 -0.1533 -0.1488 -0.4859
  697SOL    HW1 2486   0.006   2.614   2.121  0.9439 -2.1314  0.5557
  697SOL    HW2 2487   0.004   2.591   1.971 -1.0481 -0.1875  0.2276
  698SOL     OW 2488   0.081   3.871   6.621  0.0462  0.7939  0.1070
  698SOL    HW1 2489  -0.000   3.865   6.571  0.2108 -0.9968 -0.0219
  698SOL    HW2 2490   0.085   3.789   6.671  2.1336  0.4578 -0.4868
  699SOL     OW 2491   4.316   1.596   4.505  0.1757  0.1927 -0.2049
  699SOL    HW1 2492   4.304   1.688   4.479  1.3277  1.0154  1.9064
  699SOL    HW2 2493   4.235   1.574   4.550 -0.0744  0.1698 -0.6518
  700SOL     OW 2494   6.099   5.813   2.779 -0.0571  0.3569  0.5760
  700SOL    HW1 2495   6.021   5.862   2.752  0.5741  1.7461  1.1383
  700SOL    HW2 2496   6.172   5.867   2.749  0.6782 -0.2885  1.1628
  701SOL     OW 2497   2.259   0.435   1.242  0.0927  0.2648 -0.4808
  701SOL    HW1 2498   2.223   0.478   1.319  0.7979 -1.0109  0.5916
  701SOL    HW2 2499   2.353   0.446   1.249  0.1971 -0.2915 -0.8898
  702SOL     OW 2500   5.111   5.907   6.713 -0.3685  0.0159 -0.5321
  702SOL    HW1 2501   5.044   5.964   6.751 -0.0529 -0.3831  0.6668
  702SOL    HW2 2502   5.072   5.820   6.713  0.1890 -0.2568  0.3638
  703SOL     OW 2503   0.553   5.594   5.613 -0.2881 -0.7678 -0.3432
  703SOL    HW1 2504   0.566   5.688   5.623 -3.4526 -0.1253 -1.0573
  703SOL    HW2 2505   0.537   5.562   5.702 -1.2963 -0.1935 -0.3025
  704SOL     OW 2506   3.096   6.151   0.187 -0.0471 -0.2611 -0.3447
  704SOL    HW1 2507   3.104   6.193   0.273 -0.7764 -1.0074  0.1072
  704SOL    HW2 2508   3.044   6.072   0.204 -0.2622 -0.3822 -1.4870
  705SOL     OW 2509   3.787   0.970   6.906  0.2708  0.1822  0.2928
  705SOL    HW1 2510   3.847   0.972   6.980 -0.8247 -0.0670  1.2192
  705SOL    HW2 2511   3.834   1.015   6.836  0.9621  1.2697  1.4163
  706SOL     OW 2512   5.459   5.824   2.699  0.6431  0.6310  0.0282
  706SOL    HW1 2513   5.379   5.856   2.657 -0.3977 -1.2686  0.4561
  706SOL    HW2 2514   5.456   5.859   2.788  0.0875  0.2728  0.1530
  707SOL     OW 2515   5.739   6.625   3.109  0.0450 -0.5611 -0.1420
  707SOL    HW1 2516   5.647   6.642   3.129  0.5811  0.3521  1.7550
  707SOL    HW2 2517   5.776   6.595   3.192  1.5562 -0.5180 -0.7751
  708SOL     OW 2518   1.600   6.080   2.362 -0.5129 -0.4342  0.4949
  708SOL    HW1 2519   1.549   6.004   2.335  1.1183 -1.3442 -0.1823
  708SOL    HW2 2520   1.639   6.054   2.446  1.1749 -0.9463 -0.4074
  709SOL     OW 2521   3.103   1.941   4.057 -0.5907  0.0563 -0.4117
  709SOL    HW1 2522   3.084   1.993   4.135 -0.6208 -2.2496  1.2310
  709SOL    HW2 2523   3.021   1.894   4.040  0.4266 -2.1654  0.4282
  710SOL     OW 2524   2.269   1.366   1.917 -0.3625 -0.0694  0.1871
  710SOL    HW1 2525   2.291   1.402   2.003  0.3340 -1.1032  0.4606
  710SOL    HW2 2526   2.327   1.412   1.856  0.2646 -0.4458  0.4874
  711SOL     OW 2527   1.143   1.720   2.392  0.4288  0.3687  0.0179
  711SOL    HW1 2528   1.067   1.759   2.435 -0.4800 -0.7001 -0.5502
  711SOL    HW2 2529   1.182   1.791   2.341  0.2418  1.1032  0.8668
  712SOL     OW 2530   3.147   4.961   4.523 -0.9982  0.6072 -0.3096
  712SOL    HW1 2531   3.145   4.866   4.534  0.6126  0.6066  0.1674
  712SOL    HW2 2532   3.239   4.983   4.516 -1.3942  2.0066 -1.7931
  713SOL     OW 2533   5.119   3.625   2.064  0.7801  0.1546 -0.1666
  713SOL    HW1 2534   5.206   3.658   2.041  0.8276  0.7570  0.8257
  713SOL    HW2 2535   5.131   3.586   2.150 -0.2198  1.5057  0.6216
  714SOL     OW 2536   2.276   5.930   4.670 -0.6335 -0.8329 -0.2836
  714SOL    HW1 2537   2.313   5.932   4.582 -1.8785 -2.2163 -0.8911
  714SOL    HW2 2538   2.232   5.845   4.675 -1.2114 -0.4708  1.4167
  715SOL     OW 2539   0.031   2.558   5.089  0.0562  0.0691  0.0024
  715SOL    HW1 2540   0.124   2.578   5.079 -0.0069  2.4168  2.5438
  715SOL    HW2 2541  -0.014   2.622   5.033 -0.0345 -0.1344 -0.1569
  716SOL     OW 2542   0.980   4.367   4.686 -0.0297 -0.2711 -0.4282
  716SOL    HW1 2543   1.015   4.279   4.698  2.7625  0.6394 -1.0850
  716SOL    HW2 2544   1.022   4.418   4.755  0.0676  0.9380 -1.3539
  717SOL     OW 2545   3.991   2.371   1.509 -0.3194 -0.0675 -0.4781
  717SOL    HW1 2546   4.027   2.451   1.548 -0.3179 -0.5726  0.5781
  717SOL    HW2 2547   3.911   2.400   1.465 -1.9589  0.0988  2.3937
  718SOL     OW 2548   2.205   1.997   5.732  0.1208  0.4211  0.1273
  718SOL    HW1 2549   2.254   1.987   5.651 -0.1152 -1.2378  0.1614
  718SOL    HW2 2550   2.270   1.991   5.801  0.1737  0.6128  0.0927
  719SOL     OW 2551   5.831   1.288   1.924  0.4280  0.0127  0.4155
  719SOL    HW1 2552   5.829   1.373   1.968 -0.2521  0.1929  0.0426
  719SOL    HW2 2553   5.806   1.225   1.992 -2.5285  0.4908 -0.1332
  720SOL     OW 2554   0.542   3.657   3.050 -0.1612 -0.1284  0.2061
  720SOL    HW1 2555   0.536   3.615   2.964 -0.6900  2.3492 -1.0496
  720SOL    HW2 2556   0.462   3.708   3.058  0.3120  0.4302  1.7640
  721SOL     OW 2557   5.981   5.181   1.188 -0.1853 -0.3763  0.2295
  721SOL    HW1 2558   5.992   5.273   1.214 -0.8380 -0.6908  1.7463
  721SOL    HW2 2559   5.978   5.133   1.271  0.6341 -1.8418 -0.5530
  722SOL     OW 2560   6.505   0.828   0.281  0.0616 -0.3834  0.3022
  722SOL    HW1 2561   6.567   0.894   0.250  0.3453 -1.6844 -2.2317
  722SOL    HW2 2562   6.524   0.751   0.226 -2.1646 -1.6262  1.1561
  723SOL     OW 2563   3.541   1.271   0.714 -0.5967 -0.6600  0.3754
  723SOL    HW1 2564   3.507   1.303   0.631  0.0890  0.1775  0.3974
  723SOL    HW2 2565   3.612   1.332   0.736  0.7905 -2.2204  0.4108
  724SOL     OW 2566   0.355   5.096   5.498  0.3821 -0.1442 -0.3716
  724SOL    HW1 2567   0.295   5.128   5.431  0.4469 -0.7667 -0.7365
  724SOL    HW2 2568   0.425   5.053   5.449  0.7626 -0.0438  0.0732
  725SOL     OW 2569   3.783   6.780   3.686 -0.3679  0.5129  0.1316
  725SOL    HW1 2570   3.832   6.789   3.768 -1.6670  0.6794  0.9163
  725SOL    HW2 2571   3.715   6.847   3.690 -0.2149  0.7848 -1.2749
  726SOL     OW 2572   0.343   2.668   2.675  0.6530 -0.5377 -0.2647
  726SOL    HW1 2573   0.347   2.760   2.702 -1.2269 -0.9806  1.8247
  726SOL    HW2 2574   0.317   2.671   2.584  0.7628  0.9984 -0.2795
  727SOL     OW 2575   2.525   0.051   5.414  0.5612  0.4205 -0.5271
  727SOL    HW1 2576   2.609   0.060   5.369  0.7731  0.9053 -0.0473
  727SOL    HW2 2577   2.524  -0.039   5.446  0.8146  0.3577 -0.6942
  728SOL     OW 2578   3.240   1.675   6.166 -0.0970  0.3936  0.1146
  728SOL    HW1 2579   3.314   1.698   6.110  0.2473  0.6355  0.6600
  728SOL    HW2 2580   3.280   1.652   6.250 -0.4049 -2.1655 -0.3576
  729SOL     OW 2581   5.228   2.261   5.038  0.1212 -0.1970  0.3748
  729SOL    HW1 2582   5.312   2.298   5.010 -1.1982  1.6617 -1.3725
  729SOL    HW2 2583   5.185   2.234   4.957 -2.5609  2.5316  0.7108
  730SOL     OW 2584   0.468   4.888   2.102  1.2898 -0.8674 -0.4186
  730SOL    HW1 2585   0.526   4.922   2.171 -1.7975  2.1009  1.0318
  730SOL    HW2 2586   0.421   4.966   2.071 -0.6728 -2.8211 -2.7243
  731SOL     OW 2587   2.036   3.761   0.459  0.1791 -0.1559  0.0940
  731SOL    HW1 2588   2.041   3.681   0.511  0.3746 -0.8314 -0.9361
  731SOL    HW2 2589   2.069   3.736   0.373  0.2886  1.0508 -0.2327
  732SOL     OW 2590   6.497   4.113   4.714 -0.0047  0.0323  0.3284
  732SOL    HW1 2591   6.426   4.054   4.740  0.5609 -0.4337  0.8443
  732SOL    HW2 2592   6.561   4.057   4.671  0.0487  0.4526 -0.1447
  733SOL     OW 2593   2.612   5.575   5.235 -0.1289  0.4412 -0.3946
  733SOL    HW1 2594   2.700   5.575   5.272  0.9383 -0.8704 -2.7204
  733SOL    HW2 2595   2.617   5.514   5.161 -3.5138 -1.1778  0.5457
  734SOL     OW 2596   0.893   3.467   6.475 -0.3534 -0.2653 -0.6007
  734SOL    HW1 2597   0.803   3.461   6.443  0.0821  0.6244 -2.1265
  734SOL    HW2 2598   0.907   3.561   6.488  0.1271 -0.4589  0.3579
  735SOL     OW 2599   3.522   5.861   3.114 -0.1948 -0.5834 -0.6384
  735SOL    HW1 2600   3.579   5.934   3.137  1.2915 -1.0197 -2.6413
  735SOL    HW2 2601   3.435   5.900   3.106  0.1288  0.4656  0.6215
  736SOL     OW 2602   3.005   5.596   1.926 -0.5161  0.5958  0.2550
  736SOL    HW1 2603   2.940   5.605   1.855  0.0375  0.5920 -0.2625
  736SOL    HW2 2604   3.016   5.684   1.959  0.7441  0.9733 -1.0575
  737SOL     OW 2605   6.434   5.880   5.291 -0.1313  0.8136  0.1427
  737SOL    HW1 2606   6.385   5.857   5.370  0.6131  0.7044  0.5758
  737SOL    HW2 2607   6.399   5.821   5.223  0.0597  0.0882  0.6678
  738SOL     OW 2608   1.388   4.344   3.604  0.0594 -0.1136 -0.2565
  738SOL    HW1 2609   1.474   4.325   3.643 -0.6272  0.0049  1.4249
  738SOL    HW2 2610   1.346   4.402   3.668 -0.5099  1.5017 -2.0315
  739SOL     OW 2611   4.523   3.719   4.808  0.2452  0.0528 -0.4865
  739SOL    HW1 2612   4.581   3.780   4.763  0.9570 -0.3936 -0.1853
  739SOL    HW2 2613   4.576   3.682   4.878 -0.5009 -0.1295 -0.0097
  740SOL     OW 2614   6.421   1.968   2.570 -0.7480 -0.2948  0.0700
  740SOL    HW1 2615   6.488   2.012   2.517  0.2278 -1.3033  0.4397
  740SOL    HW2 2616   6.468   1.900   2.617 -1.1859  1.5898  3.6377
  741SOL     OW 2617   6.557   5.133   3.148  0.0865 -0.0709 -0.3912
  741SOL    HW1 2618   6.500   5.201   3.112 -0.8229 -0.4595  0.2841
  741SOL    HW2 2619   6.603   5.176   3.220  0.6858  0.2542 -0.9611
  742SOL     OW 2620   3.473   5.808   3.508  1.2167  0.5015  0.5320
  742SOL    HW1 2621   3.468   5.723   3.463  0.6477  0.4753  0.6320
  742SOL    HW2 2622   3.404   5.804   3.574 -0.7547  2.0899 -1.2865
  743SOL     OW 2623   0.712   1.827   0.017  0.5322  0.5347 -0.1492
  743SOL    HW1 2624   0.772   1.752   0.012 -2.3086 -1.8721 -1.3905
  743SOL    HW2 2625   0.761   1.894   0.066  3.7457 -1.5973 -0.1502
  744SOL     OW 2626   5.093   1.627   6.363  0.0271  0.2926  0.2573
  744SOL    HW1 2627   5.131   1.619   6.276 -1.3248  1.3742 -0.4768
  744SOL    HW2 2628   5.166   1.650   6.419  1.0371 -1.0375 -0.4548
  745SOL     OW 2629   0.543   4.909   1.068  0.1600  0.5620 -0.1085
  745SOL    HW1 2630   0.624   4.929   1.115 -0.8730  1.5071  1.3536
  745SOL    HW2 2631   0.505   4.995   1.049 -0.4523  0.1313 -0.8843
  746SOL     OW 2632   4.385   3.511   3.076 -0.0126  0.4249 -0.3909
  746SOL    HW1 2633   4.476   3.538   3.088 -0.0958 -0.1385  1.8369
  746SOL    HW2 2634   4.388   3.454   2.999  1.1671  1.8771 -1.4907
  747SOL     OW 2635   3.555   4.066   5.686 -0.3821  0.2560 -0.3146
  747SOL    HW1 2636   3.481   4.091   5.631  0.3183 -0.0616 -1.4145
  747SOL    HW2 2637   3.603   4.147   5.701  2.3330 -0.2779 -4.5255
  748SOL     OW 2638   3.167   1.660   5.222 -0.0059  0.6259 -0.1853
  748SOL    HW1 2639   3.089   1.708   5.195  0.2420  0.6054 -0.9551
  748SOL    HW2 2640   3.237   1.725   5.223  0.5071  0.1653 -2.0256
  749SOL     OW 2641   2.610   4.013   1.048  0.0551  0.2863  0.1952
  749SOL    HW1 2642   2.525   3.995   1.008  0.4297  0.9967 -0.9691
  749SOL    HW2 2643   2.598   3.990   1.140 -1.1520 -0.3922 -0.1030
  750SOL     OW 2644   2.890   1.210   0.033 -0.1920  0.6129 -0.6119
  750SOL    HW1 2645   2.941   1.220   0.113 -0.8661  0.9688 -0.2256
  750SOL    HW2 2646   2.938   1.145  -0.018 -1.0167 -1.4023  1.0774
  751SOL     OW 2647   1.666   2.067   0.766 -0.5439 -0.8234 -0.2182
  751SOL    HW1 2648   1.645   1.994   0.708 -0.7316 -1.9879  1.2619
  751SOL    HW2 2649   1.726   2.030   0.830 -1.4634  0.0199  1.1888
  752SOL     OW 2650   2.056   4.191   0.792  0.5470  0.5854 -0.2289
  752SOL    HW1 2651   2.109   4.137   0.733 -1.0109  1.0492 -2.1456
  752SOL    HW2 2652   1.970   4.148   0.793 -0.1393  1.9126 -0.2081
  753SOL     OW 2653   2.374   2.703   1.776 -0.2451  0.1294 -0.3077
  753SOL    HW1 2654   2.390   2.609   1.769  0.0452  0.1023  0.5782
  753SOL    HW2 2655   2.434   2.742   1.712 -0.3056 -0.2768 -0.6187
  754SOL     OW 2656   6.029   1.940   0.043 -0.8095 -0.3623  0.0735
  754SOL    HW1 2657   6.112   1.986   0.054  0.7788 -2.9744 -0.0162
  754SOL    HW2 2658   6.006   1.952  -0.049  0.1919 -0.7087 -0.2309
  755SOL     OW 2659   6.644   0.424   5.296  0.0794 -0.0904 -0.0309
  755SOL    HW1 2660   6.687   0.496   5.250  0.9406 -0.0210  0.8465
  755SOL    HW2 2661   6.561   0.412   5.249  0.5339  0.5485 -1.0362
  756SOL     OW 2662   3.701   1.349   2.936 -0.0714 -0.3939 -0.8326
  756SOL    HW1 2663   3.707   1.263   2.979  0.3774 -0.6707 -1.4369
  756SOL    HW2 2664   3.608   1.369   2.937 -0.1056 -0.5557 -0.0397
  757SOL     OW 2665   4.927   3.373   4.307 -0.2006 -0.2738 -0.0358
  757SOL    HW1 2666   4.974   3.444   4.261 -0.7060 -0.6569 -1.1656
  757SOL    HW2 2667   4.918   3.406   4.397  0.6052  0.5942 -0.2455
  758SOL     OW 2668   1.735   6.109   4.634  0.0415  0.3395 -0.0762
  758SOL    HW1 2669   1.701   6.189   4.594 -2.9636  0.1446  1.7761
  758SOL    HW2 2670   1.697   6.038   4.582  1.7959  0.0406 -1.0275
  759SOL     OW 2671   0.670   6.607   1.310  0.1162  0.2111  0.4726
  759SOL    HW1 2672   0.689   6.700   1.296 -0.7997  0.1000 -2.1165
  759SOL    HW2 2673   0.579   6.605   1.341 -0.5504  0.1776 -1.3321
  760SOL     OW 2674   4.630   4.864   1.437  0.0665  0.2768  0.6388
  760SOL    HW1 2675   4.722   4.876   1.457 -0.3103  0.9277  2.1220
  760SOL    HW2 2676   4.629   4.807   1.360  1.6971  0.6103  0.3410
  761SOL     OW 2677   3.130   4.085   1.141 -0.1267  0.0250 -0.6030
  761SOL    HW1 2678   3.056   4.098   1.201 -0.3717 -0.4512 -0.7956
  761SOL    HW2 2679   3.189   4.158   1.159  0.1285 -0.4703  0.7081
  762SOL     OW 2680   6.301   6.876   1.850  0.6889 -0.0385 -0.3927
  762SOL    HW1 2681   6.340   6.951   1.804  0.6387  0.1707 -0.1011
  762SOL    HW2 2682   6.372   6.812   1.856  1.0650  0.4364  0.3518
  763SOL     OW 2683   2.566   3.279   6.042 -0.0385 -0.1229 -0.2691
  763SOL    HW1 2684   2.578   3.357   5.989 -0.5943 -0.0652 -0.3198
  763SOL    HW2 2685   2.475   3.283   6.070  0.2242 -0.2025  0.6147
  764SOL     OW 2686   4.010   4.439   1.225  0.0856  0.0759  0.7136
  764SOL    HW1 2687   4.031   4.374   1.292  0.7186 -0.5435 -0.0631
  764SOL    HW2 2688   3.985   4.386   1.149  0.2790  0.7508  0.1790
  765SOL     OW 2689   4.386   2.940   2.751  0.9443  0.5407  1.0183
  765SOL    HW1 2690   4.352   2.922   2.838 -0.0671  1.6105  0.8562
  765SOL    HW2 2691   4.309   2.938   2.694  1.2898  1.8927  0.4747
  766SOL     OW 2692   4.356   1.409   4.769 -0.1617 -0.2267  0.0069
  766SOL    HW1 2693   4.360   1.387   4.861 -0.8863 -0.4749 -0.0159
  766SOL    HW2 2694   4.303   1.489   4.766  0.2614  0.0525 -0.1523
  767SOL     OW 2695   0.011   2.305   5.661  0.3812  0.4636 -0.0814
  767SOL    HW1 2696  -0.022   2.395   5.662  0.8011  0.6118  1.2869
  767SOL    HW2 2697   0.105   2.313   5.647  0.5464  0.2837  0.8920
  768SOL     OW 2698   5.312   2.683   3.384  0.2422  0.1184  0.0010
  768SOL    HW1 2699   5.260   2.759   3.409 -0.7259 -0.3094 -0.6497
  768SOL    HW2 2700   5.356   2.656   3.464  0.5192  1.2836  0.2701
  769SOL     OW 2701   3.251   2.981   2.817  0.1571 -0.1738 -0.3923
  769SOL    HW1 2702   3.290   3.059   2.856  1.1165  0.4428 -2.4495
  769SOL    HW2 2703   3.317   2.913   2.830 -0.3991 -0.5195  0.8080
  770SOL     OW 2704   4.411   5.000   2.895  0.0520  0.6354  0.1111
  770SOL    HW1 2705   4.331   5.025   2.848  0.5407  0.2620 -0.9423
  770SOL    HW2 2706   4.476   5.065   2.869  0.8802 -0.7185 -1.3718
  771SOL     OW 2707   2.465   2.244   1.538 -0.1204  0.3519  1.0885
  771SOL    HW1 2708   2.505   2.160   1.518 -0.8908  0.1264  0.4408
  771SOL    HW2 2709   2.373   2.233   1.513  0.4113  2.5072 -2.5389
  772SOL     OW 2710   1.682   2.618   6.586 -0.0398 -0.0922 -0.0669
  772SOL    HW1 2711   1.689   2.556   6.659  3.2113 -3.9676 -3.1720
  772SOL    HW2 2712   1.771   2.649   6.572 -0.8566  1.8102 -1.4354
  773SOL     OW 2713   4.216   4.275   2.895  0.3213  0.2552  0.2736
  773SOL    HW1 2714   4.232   4.192   2.940 -1.4240 -0.7659 -0.8688
  773SOL    HW2 2715   4.281   4.277   2.825 -0.2652 -0.6776 -0.3227
  774SOL     OW 2716   0.186   4.225   2.914 -0.4536  0.1021  0.2239
  774SOL    HW1 2717   0.225   4.224   2.827  0.0886 -0.0561  0.4632
  774SOL    HW2 2718   0.187   4.317   2.940  1.4640 -0.0761  0.9614
  775SOL     OW 2719   2.416   4.953   2.946  0.2720  0.3196  0.3611
  775SOL    HW1 2720   2.462   4.949   3.029  1.7342 -0.4965 -0.4414
  775SOL    HW2 2721   2.480   4.922   2.882 -0.8899  0.6966 -1.0344
  776SOL     OW 2722   1.262   6.698   1.448  0.3772  0.4315 -0.1939
  776SOL    HW1 2723   1.255   6.605   1.470  0.0204  0.6038  0.4678
  776SOL    HW2 2724   1.235   6.704   1.357  0.6511 -0.1478 -0.3140
  777SOL     OW 2725   6.299   2.280   3.246 -0.0570 -0.3294  0.1777
  777SOL    HW1 2726   6.340   2.357   3.286  1.8296 -0.7428 -0.8344
  777SOL    HW2 2727   6.286   2.304   3.154 -1.5942 -0.4419  0.3332
  778SOL     OW 2728   0.874   6.251   2.744  0.0101  0.0273  0.0993
  778SOL    HW1 2729   0.832   6.233   2.660 -0.5891 -1.0365  0.6081
  778SOL    HW2 2730   0.805   6.237   2.809  0.3491  1.2464  0.7547
  779SOL     OW 2731   2.654   0.944   6.439 -0.2511  0.6411  0.5501
  779SOL    HW1 2732   2.595   1.003   6.393  0.2789  0.5419 -0.2773
  779SOL    HW2 2733   2.739   0.989   6.437  0.2728 -0.3338 -0.5040
  780SOL     OW 2734   0.602   6.367   3.362 -0.5676 -0.0507  0.7298
  780SOL    HW1 2735   0.526   6.385   3.417 -0.6073  0.5268  0.5028
  780SOL    HW2 2736   0.668   6.430   3.392 -0.5068  0.0999  0.2958
  781SOL     OW 2737   2.327   5.736   4.289 -0.2422 -0.2189  0.2439
  781SOL    HW1 2738   2.255   5.795   4.264  0.8260  0.8686 -0.3801
  781SOL    HW2 2739   2.340   5.680   4.213  0.9615  1.0295 -0.5189
  782SOL     OW 2740   3.694   4.733   4.290  0.6487  0.2835  0.2440
  782SOL    HW1 2741   3.772   4.721   4.345 -0.2651 -1.1286  1.2881
  782SOL    HW2 2742   3.703   4.665   4.223  0.5259  0.3983  0.1135
  783SOL     OW 2743   0.909   4.846   2.981 -0.0388 -0.6497  0.3233
  783SOL    HW1 2744   0.925   4.776   3.044  2.5451 -1.4351 -1.0563
  783SOL    HW2 2745   0.975   4.912   3.001 -1.5571  0.8066  0.7096
  784SOL     OW 2746   4.013   1.887   4.640  0.0447  0.1514 -0.1504
  784SOL    HW1 2747   4.054   1.926   4.563 -0.4281  1.2852  0.1460
  784SOL    HW2 2748   4.055   1.932   4.714 -1.3371  0.9474  0.1744
  785SOL     OW 2749   1.585   2.449   2.776  0.6908  0.1033  0.2075
  785SOL    HW1 2750   1.619   2.478   2.861  0.0363  0.2972  0.4102
  785SOL    HW2 2751   1.663   2.440   2.721  0.9987  1.5645  0.3519
  786SOL     OW 2752   6.905   6.803   6.882 -0.2639  0.3213  0.2019
  786SOL    HW1 2753   6.895   6.709   6.895  0.6172 -0.3934 -3.1555
  786SOL    HW2 2754   6.816   6.836   6.872 -0.6293  0.0590  2.1815
  787SOL     OW 2755   2.573   5.065   5.263 -0.2987 -0.5070  0.2508
  787SOL    HW1 2756   2.636   5.133   5.287  0.5263 -0.3840 -2.0059
  787SOL    HW2 2757   2.490   5.096   5.297  0.2260  1.2191  0.0376
  788SOL     OW 2758   5.002   5.443   5.769 -0.0659 -0.3968 -0.9929
  788SOL    HW1 2759   5.094   5.445   5.744  0.2486 -1.5699 -0.0335
  788SOL    HW2 2760   4.989   5.356   5.807 -1.2264  0.2173  0.1135
  789SOL     OW 2761   3.780   1.921   5.836  0.1589  0.5828  0.0720
  789SOL    HW1 2762   3.867   1.912   5.798  0.0743 -1.7407  0.2882
  789SOL    HW2 2763   3.790   1.984   5.907  1.5563  0.6516 -0.1704
  790SOL     OW 2764   3.391   1.656   1.173 -0.0032 -0.0482 -0.1136
  790SOL    HW1 2765   3.399   1.579   1.231  0.5144  0.6630  0.7863
  790SOL    HW2 2766   3.308   1.697   1.200  0.1352  0.1682 -0.0158
  791SOL     OW 2767   6.858   4.583   5.718  0.3577  0.3991  0.1326
  791SOL    HW1 2768   6.942   4.570   5.763  0.1831  0.2490  0.4180
  791SOL    HW2 2769   6.857   4.515   5.651 -0.1238 -0.4722  0.9985
  792SOL     OW 2770   6.809   3.002   3.864 -0.1026 -0.0523  0.0396
  792SOL    HW1 2771   6.865   2.926   3.853 -2.5856 -2.0607  0.2246
  792SOL    HW2 2772   6.791   3.031   3.774  0.2020 -0.2304 -0.0799
  793SOL     OW 2773   5.613   2.939   6.115 -0.0282  0.2919  0.4770
  793SOL    HW1 2774   5.545   2.960   6.051 -0.1757  0.0029  0.5368
  793SOL    HW2 2775   5.572   2.954   6.200 -0.8635 -2.2296  0.6104
  794SOL     OW 2776   4.736   1.652   6.686  0.2979  0.4432 -0.0137
  794SOL    HW1 2777   4.823   1.623   6.657 -0.3753 -1.2002 -0.5120
  794SOL    HW2 2778   4.748   1.674   6.779  1.0155 -0.9293  0.2490
  795SOL     OW 2779   2.792   4.624   5.548 -0.4839  0.2611  0.2982
  795SOL    HW1 2780   2.839   4.701   5.515  0.1696 -0.5777 -0.8002
  795SOL    HW2 2781   2.853   4.584   5.610  0.8647 -1.5018 -2.0185
  796SOL     OW 2782   4.788   2.369   6.581  0.1251 -0.5861  0.6710
  796SOL    HW1 2783   4.801   2.319   6.501 -0.2576 -0.4547  0.5217
  796SOL    HW2 2784   4.717   2.324   6.626 -3.6886  2.3328 -1.6878
  797SOL     OW 2785   5.009   3.570   5.212  0.1571 -0.3522 -0.7672
  797SOL    HW1 2786   4.993   3.588   5.119 -0.0232  0.1488 -0.6425
  797SOL    HW2 2787   4.990   3.476   5.222  1.2576 -0.6620 -1.4583
  798SOL     OW 2788   0.527   6.910   6.760  0.4645 -0.4573 -0.8202
  798SOL    HW1 2789   0.558   6.967   6.689 -1.3071  0.7076 -0.7074
  798SOL    HW2 2790   0.558   6.952   6.840  1.0429 -0.8726 -0.8196
  799SOL     OW 2791   4.534   5.179   2.260  0.1108  0.0909  0.3281
  799SOL    HW1 2792   4.578   5.203   2.179  0.7993  1.1552  0.9927
  799SOL    HW2 2793   4.456   5.234   2.262  0.9509  1.2957  1.1632
  800SOL     OW 2794   3.127   4.160   4.586  0.5287  0.0894 -0.2893
  800SOL    HW1 2795   3.070   4.083   4.588  1.3023 -0.5784 -1.7601
  800SOL    HW2 2796   3.090   4.214   4.515  1.9040 -0.5446 -1.5357
  801SOL     OW 2797   4.293   6.197   3.182 -0.1258  0.4516  0.2714
  801SOL    HW1 2798   4.259   6.197   3.271 -1.4602  1.5131 -0.2010
  801SOL    HW2 2799   4.329   6.285   3.170  1.1400 -0.0657  0.1413
  802SOL     OW 2800   2.405   4.013   3.502  0.1750 -0.2721 -0.0520
  802SOL    HW1 2801   2.434   4.009   3.593 -1.3973 -3.0266  0.4347
  802SOL    HW2 2802   2.471   3.962   3.454  0.0772 -0.3144 -0.1421
  803SOL     OW 2803   1.783   0.026   2.412  0.7646  0.0793 -0.1179
  803SOL    HW1 2804   1.820  -0.060   2.394  1.3563  0.3546 -0.2670
  803SOL    HW2 2805   1.730   0.014   2.491  1.5805 -0.2321  0.4024
  804SOL     OW 2806   2.537   1.316   4.983 -0.3593  0.4155  0.5162
  804SOL    HW1 2807   2.506   1.347   5.069 -0.3653 -0.5194  0.8612
  804SOL    HW2 2808   2.608   1.255   5.004  0.5324  1.1753 -0.2058
  805SOL     OW 2809   6.398   3.973   5.859  0.5948 -0.5811 -0.4523
  805SOL    HW1 2810   6.403   3.888   5.816  0.2395  0.3950 -2.5545
  805SOL    HW2 2811   6.406   4.036   5.788 -2.1764  1.1763  0.6432
  806SOL     OW 2812   2.842   4.110   2.717  0.6531  0.3032  0.1382
  806SOL    HW1 2813   2.913   4.163   2.753 -0.4492  2.0051 -0.0944
  806SOL    HW2 2814   2.763   4.160   2.737 -0.4841 -1.4890  0.2984
  807SOL     OW 2815   3.180   3.076   4.012 -0.1767  0.6091 -0.0669
  807SOL    HW1 2816   3.091   3.104   3.988 -0.0825  1.5740  0.6335
  807SOL    HW2 2817   3.166   2.994   4.061 -0.4761 -0.5253 -1.9545
  808SOL     OW 2818   3.743   1.444   0.748  0.3152 -0.5498 -0.0843
  808SOL    HW1 2819   3.815   1.396   0.789  0.3606 -1.4922 -1.1922
  808SOL    HW2 2820   3.779   1.530   0.729  0.5692 -0.3977  0.9968
  809SOL     OW 2821   3.169   0.101   3.802  0.3957  0.2016 -0.0475
  809SOL    HW1 2822   3.217   0.164   3.857 -1.6826  1.8126  0.0622
  809SOL    HW2 2823   3.237   0.056   3.753  2.1790  0.4337  2.0459
  810SOL     OW 2824   6.573   2.995   2.250 -0.0222  0.6374  0.4960
  810SOL    HW1 2825   6.578   3.002   2.155 -0.5099  2.9258  0.5845
  810SOL    HW2 2826   6.480   2.980   2.267  0.4185 -2.9101  0.5600
  811SOL     OW 2827   1.502   6.558   0.580 -0.6970  0.0110 -0.3200
  811SOL    HW1 2828   1.570   6.520   0.636  0.4487  0.6308 -1.2236
  811SOL    HW2 2829   1.435   6.590   0.641 -0.5287 -1.2512  0.5615
  812SOL     OW 2830   5.066   1.741   2.904 -0.4104  0.2507 -0.2650
  812SOL    HW1 2831   5.047   1.834   2.896 -0.0641  0.3316 -0.1773
  812SOL    HW2 2832   5.152   1.730   2.864  0.5038  0.3430  1.5582
  813SOL     OW 2833   1.499   5.430   5.792 -0.2683 -0.1708 -0.6187
  813SOL    HW1 2834   1.496   5.526   5.793  1.0699 -0.1139  0.3205
  813SOL    HW2 2835   1.407   5.403   5.787 -0.6529  1.1503 -1.1045
  814SOL     OW 2836   1.418   6.896   1.196  0.2246  0.4946  0.2260
  814SOL    HW1 2837   1.444   6.832   1.262 -0.2885  0.5608  0.4953
  814SOL    HW2 2838   1.432   6.981   1.238  1.1655  0.5771 -0.2269
  815SOL     OW 2839   5.057   4.757   2.822  0.2690  0.2239 -0.0097
  815SOL    HW1 2840   5.052   4.667   2.855 -1.4697 -0.5131 -2.0733
  815SOL    HW2 2841   5.104   4.805   2.891 -0.0312 -1.9290  1.8118
  816SOL     OW 2842   3.468   5.680   3.886 -0.2019  0.7277  0.6611
  816SOL    HW1 2843   3.446   5.675   3.979 -1.2488 -2.7943  0.3990
  816SOL    HW2 2844   3.540   5.618   3.875 -1.1061 -0.1010 -1.0551
  817SOL     OW 2845   6.258   3.948   4.004  0.0201 -0.4234 -0.6652
  817SOL    HW1 2846   6.298   3.912   4.083  1.0928 -2.8355 -2.1869
  817SOL    HW2 2847   6.170   3.976   4.032  0.6442 -0.4300  1.5011
  818SOL     OW 2848   5.783   3.118   4.654 -0.4982 -0.2600 -0.0105
  818SOL    HW1 2849   5.863   3.158   4.620  0.4907 -1.3592  0.9444
  818SOL    HW2 2850   5.797   3.113   4.749 -1.2968 -1.3083  0.0739
  819SOL     OW 2851   1.861   3.205   3.973 -0.5412  0.0813  0.3636
  819SOL    HW1 2852   1.951   3.176   3.987 -0.2517  0.2599 -1.0736
  819SOL    HW2 2853   1.810   3.123   3.969 -0.2375 -0.0764 -0.2378
  820SOL     OW 2854   3.960   1.767   6.807  0.0946  0.4937  0.1032
  820SOL    HW1 2855   3.899   1.833   6.840 -0.9703  0.2200 -1.2321
  820SOL    HW2 2856   4.038   1.816   6.783 -1.0680  1.5000 -1.8750
  821SOL     OW 2857   4.249   5.123   6.534  0.0554  0.3049 -0.0245
  821SOL    HW1 2858   4.289   5.134   6.448  3.5516  1.0825  1.5292
  821SOL    HW2 2859   4.322   5.107   6.593 -2.0124  1.3259  3.0911
  822SOL     OW 2860   2.985   4.949   0.254 -0.1970 -0.2035 -0.1970
  822SOL    HW1 2861   2.975   5.002   0.333 -0.8745 -1.4354  0.5784
  822SOL    HW2 2862   2.993   4.860   0.287 -1.1691 -0.8182 -1.5520
  823SOL     OW 2863   0.577   0.874   1.031  0.1338 -0.1235 -0.3902
  823SOL    HW1 2864   0.584   0.879   1.126  0.4098  0.7187 -0.4547
  823SOL    HW2 2865   0.594   0.962   1.000  0.7317 -0.5313 -1.2710
  824SOL     OW 2866   1.775   1.922   0.114 -0.4336  0.5003  0.0095
  824SOL    HW1 2867   1.804   1.837   0.149  0.8075  1.2909  0.9855
  824SOL    HW2 2868   1.680   1.917   0.118 -0.4484 -1.3581 -1.2367
  825SOL     OW 2869   0.814   0.161   2.536 -0.3989 -0.4241  0.3764
  825SOL    HW1 2870   0.768   0.079   2.556 -1.3365  0.0599  0.2546
  825SOL    HW2 2871   0.763   0.229   2.579 -0.2527  0.2221 -0.4368
  826SOL     OW 2872   2.384   3.617   6.892  0.0472 -0.0115 -0.1453
  826SOL    HW1 2873   2.379   3.522   6.896 -0.4302 -0.1225 -2.2965
  826SOL    HW2 2874   2.300   3.645   6.856 -0.3140  1.3715  1.5943
  827SOL     OW 2875   5.148   1.442   3.530  0.4361  0.4896  0.0507
  827SOL    HW1 2876   5.225   1.479   3.487  1.9406 -2.0604  0.4063
  827SOL    HW2 2877   5.099   1.400   3.459  1.1640 -0.7951  0.2832
  828SOL     OW 2878   4.305   5.738   6.642 -0.3514 -0.4374 -0.3779
  828SOL    HW1 2879   4.319   5.718   6.549 -1.2144  1.5431 -0.9944
  828SOL    HW2 2880   4.333   5.659   6.688 -1.5687 -2.1838 -2.4162
  829SOL     OW 2881   5.583   5.812   0.232 -0.4373  0.2477  0.1708
  829SOL    HW1 2882   5.556   5.787   0.144 -1.0586 -0.7781  0.6405
  829SOL    HW2 2883   5.665   5.860   0.218 -0.4397 -0.0343 -0.9487
  830SOL     OW 2884   6.787   4.908   3.278 -0.0888 -0.4852 -0.4791
  830SOL    HW1 2885   6.801   4.814   3.294 -0.9076 -0.6579 -0.7586
  830SOL    HW2 2886   6.841   4.927   3.202  1.0190 -0.4545  0.2918
  831SOL     OW 2887   3.737   1.714   6.480  0.3010 -0.7350  0.3177
  831SOL    HW1 2888   3.831   1.713   6.500  0.0467 -0.2034  1.6821
  831SOL    HW2 2889   3.708   1.624   6.492  0.8207 -1.1383 -1.2092
  832SOL     OW 2890   6.432   3.218   5.336 -0.0592  0.1947 -0.7490
  832SOL    HW1 2891   6.468   3.130   5.342  0.9067  0.6529  1.0814
  832SOL    HW2 2892   6.339   3.208   5.354 -0.2026 -0.5952 -1.8915
  833SOL     OW 2893   2.269   3.983   6.288  0.4446 -0.3288 -0.5318
  833SOL    HW1 2894   2.310   3.902   6.318 -1.0820 -0.8167  0.3930
  833SOL    HW2 2895   2.189   3.990   6.341 -0.2047  1.0155 -1.6173
  834SOL     OW 2896   0.285   0.775   3.449 -0.0387 -0.3231 -0.2948
  834SOL    HW1 2897   0.222   0.823   3.395 -0.8470 -0.5053  0.4432
  834SOL    HW2 2898   0.255   0.684   3.446  2.2602 -1.1028 -2.7757
  835SOL     OW 2899   5.933   5.651   5.843  0.3758  0.5543  0.2718
  835SOL    HW1 2900   5.854   5.599   5.828 -0.5527  1.0181  2.8834
  835SOL    HW2 2901   6.006   5.591   5.825 -0.6116 -0.6515  0.1450
  836SOL     OW 2902   2.535   5.508   2.775  0.3509  0.2118 -0.2088
  836SOL    HW1 2903   2.597   5.524   2.703 -0.6554 -0.2948 -1.2320
  836SOL    HW2 2904   2.463   5.461   2.733 -0.9471  1.1905  0.8413
  837SOL     OW 2905   6.259   3.870   3.717  0.2318  0.1150 -0.6781
  837SOL    HW1 2906   6.284   3.882   3.808  3.1238 -0.3954 -1.3160
  837SOL    HW2 2907   6.195   3.799   3.719 -1.1373  1.3120  1.0777
  838SOL     OW 2908   1.874   4.048   4.781  0.4451  0.4337  0.2345
  838SOL    HW1 2909   1.845   4.094   4.859 -1.1204  0.2604 -0.2154
  838SOL    HW2 2910   1.869   3.955   4.805  1.9899  0.4058  0.5875
  839SOL     OW 2911   1.323   4.146   5.346  0.1637 -0.6675 -0.1200
  839SOL    HW1 2912   1.293   4.122   5.434 -0.6338  1.7567  0.3429
  839SOL    HW2 2913   1.248   4.127   5.290 -0.5440  0.7951  0.2757
  840SOL     OW 2914   0.009   3.312   3.722  0.5478  0.2278 -0.7084
  840SOL    HW1 2915   0.040   3.223   3.708  0.1879  0.0466 -0.3686
  840SOL    HW2 2916  -0.068   3.303   3.779  0.6786  0.7774 -0.4316
  841SOL     OW 2917   0.203   3.250   6.867  0.1886 -0.2744 -0.5778
  841SOL    HW1 2918   0.241   3.319   6.922  1.7354 -0.1141 -1.7888
  841SOL    HW2 2919   0.157   3.298   6.798  1.3046 -0.4411 -1.4463
  842SOL     OW 2920   1.674   6.122   0.562  0.0172  0.3867  0.2898
  842SOL    HW1 2921   1.595   6.167   0.531 -1.4493 -1.8588  0.5568
  842SOL    HW2 2922   1.646   6.077   0.642  0.9326 -2.2648 -0.7855
  843SOL     OW 2923   2.546   0.513   3.304 -0.1516 -0.2708  0.5591
  843SOL    HW1 2924   2.618   0.482   3.248 -0.4382  0.7514 -0.4140
  843SOL    HW2 2925   2.488   0.437   3.313  0.1943 -0.6175 -0.0648
  844SOL     OW 2926   5.448   2.840   4.933  0.1622  0.0435 -0.0548
  844SOL    HW1 2927   5.435   2.795   4.849  1.1701 -0.0204 -0.1829
  844SOL    HW2 2928   5.429   2.932   4.914 -0.5670 -0.1151 -0.1168
  845SOL     OW 2929   3.090   4.002   2.874 -0.3430  1.0421  0.7783
  845SOL    HW1 2930   3.108   4.094   2.891 -0.6085  0.9479  1.6187
  845SOL    HW2 2931   3.054   3.969   2.957  0.7868 -0.0806  0.8463
  846SOL     OW 2932   2.972   2.953   1.504 -0.9118 -0.5358  0.0608
  846SOL    HW1 2933   2.928   2.900   1.571 -1.4369 -0.1391  0.0398
  846SOL    HW2 2934   3.051   2.984   1.547 -1.1683 -0.4101  0.4520
  847SOL     OW 2935   6.270   2.303   0.200  0.1767  0.0658  0.4202
  847SOL    HW1 2936   6.339   2.366   0.183 -0.5564  0.5627 -0.8645
  847SOL    HW2 2937   6.265   2.297   0.295  1.3376  0.7252  0.5322
  848SOL     OW 2938   1.466   6.643   1.954  0.2951 -0.3687 -0.8103
  848SOL    HW1 2939   1.487   6.554   1.982  1.3525  0.1007 -0.0850
  848SOL    HW2 2940   1.492   6.646   1.862  0.8300 -0.6241 -0.6687
  849SOL     OW 2941   2.284   4.518   4.342 -0.2039  0.5285 -0.7461
  849SOL    HW1 2942   2.369   4.560   4.332 -0.3335  0.7677 -0.8588
  849SOL    HW2 2943   2.298   4.427   4.317  0.3094  0.2588  0.4603
  850SOL     OW 2944   2.697   3.292   5.566  0.1982  0.1562  0.0065
  850SOL    HW1 2945   2.688   3.387   5.572 -1.3228  0.0239  0.4933
  850SOL    HW2 2946   2.613   3.259   5.598 -0.4408 -1.2922 -2.8580
  851SOL     OW 2947   5.687   1.854   3.141 -0.0314  0.4198  0.2159
  851SOL    HW1 2948   5.597   1.884   3.155  0.5534  2.5568 -0.1578
  851SOL    HW2 2949   5.718   1.905   3.066  0.9834 -1.5012 -0.7483
  852SOL     OW 2950   6.777   2.117   4.768 -0.6384 -0.1972  0.1058
  852SOL    HW1 2951   6.792   2.085   4.679 -0.9887  0.9927 -0.3992
  852SOL    HW2 2952   6.844   2.183   4.781 -0.8137 -0.1166  0.5970
  853SOL     OW 2953   4.357   4.342   2.651 -0.6728 -0.1561 -0.0083
  853SOL    HW1 2954   4.450   4.326   2.633 -0.3422  1.1134  0.4934
  853SOL    HW2 2955   4.344   4.435   2.632 -1.5599 -0.0301  1.1093
  854SOL     OW 2956   4.659   3.233   5.588 -0.1564 -0.1531 -1.3476
  854SOL    HW1 2957   4.674   3.327   5.580 -1.5579  0.0907 -1.3503
  854SOL    HW2 2958   4.688   3.197   5.504  1.3245  0.1244 -0.9797
  855SOL     OW 2959   3.990   5.814   2.701  0.2610 -0.3697 -0.7614
  855SOL    HW1 2960   3.900   5.809   2.670 -0.7979  0.6743  1.7986
  855SOL    HW2 2961   4.040   5.843   2.626 -2.2659  3.2038 -1.3147
  856SOL     OW 2962   0.797   3.180   6.044  0.6307  0.4781 -0.3770
  856SOL    HW1 2963   0.858   3.148   5.977  1.0912 -1.8183  1.0339
  856SOL    HW2 2964   0.846   3.174   6.126 -0.4244  1.7904  0.3935
  857SOL     OW 2965   5.059   0.619   1.212 -0.0222  0.3831 -0.1596
  857SOL    HW1 2966   5.070   0.618   1.117 -1.5812  1.7332 -0.3954
  857SOL    HW2 2967   4.985   0.678   1.227 -0.8856 -1.0764  1.7847
  858SOL     OW 2968   0.495   5.803   1.604 -0.6653  0.0674  0.4900
  858SOL    HW1 2969   0.536   5.717   1.610  1.0787  0.7388 -1.0035
  858SOL    HW2 2970   0.441   5.799   1.525 -1.5921 -0.0432  1.1191
  859SOL     OW 2971   2.359   0.946   5.772  0.2867  0.1344  0.0006
  859SOL    HW1 2972   2.327   0.860   5.800  0.5616  0.0196 -0.0378
  859SOL    HW2 2973   2.418   0.928   5.699 -1.6265  0.5408 -1.7294
  860SOL     OW 2974   2.473   1.321   5.603  0.2553  0.8756 -0.2515
  860SOL    HW1 2975   2.517   1.405   5.594  0.8774  0.3969 -2.2092
  860SOL    HW2 2976   2.541   1.262   5.638  0.3973  0.7516 -0.7298
  861SOL     OW 2977   4.170   6.910   4.296 -0.1099 -0.1187 -0.7412
  861SOL    HW1 2978   4.142   6.992   4.336  0.5281 -0.3239  0.1592
  861SOL    HW2 2979   4.094   6.879   4.247 -0.7980  0.3240  0.0322
  862SOL     OW 2980   2.763   2.010   5.432 -0.0222  0.1696 -0.4480
  862SOL    HW1 2981   2.853   1.991   5.406 -0.0725  0.3680 -0.7772
  862SOL    HW2 2982   2.733   2.075   5.368 -0.9358 -1.1002 -1.3470
  863SOL     OW 2983   6.734   3.924   4.182 -0.7089  0.3240 -0.2076
  863SOL    HW1 2984   6.671   3.967   4.124 -0.0990  1.3472 -0.1485
  863SOL    HW2 2985   6.819   3.938   4.140 -0.4289 -0.3413  0.1188
  864SOL     OW 2986   6.847   1.764   2.317  0.0077  0.1334 -0.0432
  864SOL    HW1 2987   6.901   1.837   2.347  0.7178 -0.5905  0.4983
  864SOL    HW2 2988   6.808   1.795   2.235  1.1685  0.7142 -0.4026
  865SOL     OW 2989   5.991   4.288   2.980 -0.1489 -0.0731 -0.2617
  865SOL    HW1 2990   5.945   4.205   2.986 -1.6144  0.5831 -1.7592
  865SOL    HW2 2991   6.059   4.274   2.914 -0.4042 -0.0628 -0.5232
  866SOL     OW 2992   2.982   3.374   1.169 -0.2102 -0.6041  0.4273
  866SOL    HW1 2993   2.901   3.400   1.213  0.1833 -1.0362  1.4418
  866SOL    HW2 2994   2.955   3.309   1.105 -1.0766  1.5267 -1.4819
  867SOL     OW 2995   0.390   2.260   0.918  0.8405 -0.2485  0.1964
  867SOL    HW1 2996   0.473   2.305   0.930  0.1357  1.0009  0.6279
  867SOL    HW2 2997   0.368   2.275   0.826  1.6470 -1.6046 -0.2350
  868SOL     OW 2998   4.122   0.844   0.257  0.0225  0.4749 -0.1213
  868SOL    HW1 2999   4.180   0.876   0.188 -0.5766  2.1062  0.0790
  868SOL    HW2 3000   4.062   0.784   0.214 -1.1264  2.3926 -1.3169
  869SOL     OW 3001   6.000   3.847   3.250 -0.0072  0.5765  0.3014
  869SOL    HW1 3002   5.910   3.877   3.263  0.1931  0.7300  1.5178
  869SOL    HW2 3003   6.045   3.922   3.214 -0.0381  1.0090  1.1327
  870SOL     OW 3004   3.496   3.170   5.033  0.0886 -0.3685  0.1409
  870SOL    HW1 3005   3.573   3.227   5.035  0.8364 -1.3808  1.7513
  870SOL    HW2 3006   3.456   3.187   4.947  2.5142 -0.3665 -1.0672
  871SOL     OW 3007   6.759   2.006   0.817  0.0720 -0.0805 -0.2157
  871SOL    HW1 3008   6.757   2.076   0.751  0.4225  0.2037  0.0705
  871SOL    HW2 3009   6.797   2.048   0.894  0.9544 -0.7827 -0.2654
  872SOL     OW 3010   6.597   1.711   1.305  0.2514  0.4308  0.3816
  872SOL    HW1 3011   6.603   1.806   1.310 -0.8838  0.4622  2.4381
  872SOL    HW2 3012   6.549   1.686   1.384 -0.9981 -1.7229 -0.9554
  873SOL     OW 3013   0.204   5.024   1.095  0.4488 -0.6569  0.5017
  873SOL    HW1 3014   0.295   5.052   1.088  0.7973 -1.6170  1.0327
  873SOL    HW2 3015   0.157   5.102   1.125  0.7726  0.3474 -1.4055
  874SOL     OW 3016   2.188   6.790   1.088  0.1355 -0.0830  0.0821
  874SOL    HW1 3017   2.175   6.864   1.029  0.2168 -0.0468  0.1085
  874SOL    HW2 3018   2.151   6.819   1.171  0.2218 -0.0480  0.1090
  875SOL     OW 3019   5.975   2.160   4.744 -0.3076  0.7111 -0.4455
  875SOL    HW1 3020   6.007   2.203   4.665  1.0982  0.0847 -0.2510
  875SOL    HW2 3021   6.031   2.196   4.814 -0.0320 -0.3890 -0.0854
  876SOL     OW 3022   6.615   1.351   3.177 -0.4748 -0.9289 -0.0769
  876SOL    HW1 3023   6.628   1.445   3.187  2.0378 -1.2376  0.1403
  876SOL    HW2 3024   6.528   1.343   3.138 -0.3344  1.5265 -1.0905
  877SOL     OW 3025   6.828   3.528   3.282 -0.5364 -0.4181 -0.5505
  877SOL    HW1 3026   6.811   3.622   3.282  2.5727  0.2366 -0.9713
  877SOL    HW2 3027   6.874   3.511   3.365 -0.2181 -1.3940 -0.9077
  878SOL     OW 3028   5.775   5.680   2.558 -0.2152 -0.2614  0.4151
  878SOL    HW1 3029   5.716   5.605   2.568 -0.8810  0.2367  0.2517
  878SOL    HW2 3030   5.859   5.649   2.593 -0.4457 -1.1254  0.2202
  879SOL     OW 3031   5.436   0.214   2.538 -0.2326 -0.1565 -0.3065
  879SOL    HW1 3032   5.527   0.226   2.567 -0.2816 -0.9622  0.2104
  879SOL    HW2 3033   5.391   0.293   2.570  0.2392  0.1489 -0.3837
  880SOL     OW 3034   5.411   4.626   3.656 -0.3349 -0.4909 -0.0409
  880SOL    HW1 3035   5.419   4.712   3.617  3.1016 -0.8105 -0.3360
  880SOL    HW2 3036   5.464   4.568   3.601 -1.3156 -2.4920  0.9758
  881SOL     OW 3037   4.082   0.555   1.714 -0.7488 -0.1478  0.3506
  881SOL    HW1 3038   4.109   0.636   1.670 -1.0820 -0.6770 -0.8582
  881SOL    HW2 3039   4.008   0.582   1.769 -1.7008  0.1535 -1.0242
  882SOL     OW 3040   5.474   3.439   1.429  0.1200 -0.0307  0.1869
  882SOL    HW1 3041   5.413   3.373   1.462  0.3090  0.7715  2.3190
  882SOL    HW2 3042   5.418   3.500   1.379 -0.7842  0.3589  1.5981
  883SOL     OW 3043   4.334   6.558   0.833 -0.2028 -0.1303 -0.1671
  883SOL    HW1 3044   4.408   6.608   0.868  0.3792 -1.0352 -0.0610
  883SOL    HW2 3045   4.337   6.475   0.880  1.7244 -2.1651 -3.4414
  884SOL     OW 3046   5.177   5.568   6.907 -0.0054  0.1181  0.7069
  884SOL    HW1 3047   5.241   5.639   6.908  0.5521 -0.3692  0.3351
  884SOL    HW2 3048   5.129   5.579   6.825  2.0231 -1.5976 -0.8177
  885SOL     OW 3049   5.227   1.122   3.568 -0.1915 -0.0831  0.2888
  885SOL    HW1 3050   5.169   1.191   3.600 -1.1837 -1.0940  0.7321
  885SOL    HW2 3051   5.218   1.051   3.632  1.1622 -0.4668  0.0930
  886SOL     OW 3052   3.005   2.517   5.936 -0.1111 -0.1275 -0.2973
  886SOL    HW1 3053   3.097   2.497   5.916 -0.1574 -1.4498  0.6688
  886SOL    HW2 3054   2.997   2.500   6.030 -1.0274  1.3199 -0.0906
  887SOL     OW 3055   5.182   5.417   5.457 -0.2951  0.1224 -0.4491
  887SOL    HW1 3056   5.193   5.468   5.377  0.8214  0.7995  0.1061
  887SOL    HW2 3057   5.249   5.451   5.516 -0.2922 -1.2065  0.3467
  888SOL     OW 3058   2.495   5.271   4.384 -0.2054 -0.2067  0.1286
  888SOL    HW1 3059   2.477   5.347   4.440  1.3787 -1.4645  2.5089
  888SOL    HW2 3060   2.547   5.307   4.312 -0.7875  1.2145  0.3801
  889SOL     OW 3061   3.788   1.796   1.270  0.3847  0.5311  0.2621
  889SOL    HW1 3062   3.714   1.844   1.307  0.4543  1.4612 -0.7364
  889SOL    HW2 3063   3.760   1.772   1.182  0.4334 -1.1341  0.6657
  890SOL     OW 3064   2.718   1.103   3.826 -0.7128 -0.5492 -0.2965
  890SOL    HW1 3065   2.639   1.059   3.797 -1.0670 -0.4561  0.4810
  890SOL    HW2 3066   2.790   1.048   3.794 -1.0602 -0.2239 -1.6602
  891SOL     OW 3067   6.605   0.136   1.053 -0.2159  0.0992 -0.0637
  891SOL    HW1 3068   6.543   0.205   1.027  0.0056 -0.1297 -1.2041
  891SOL    HW2 3069   6.675   0.183   1.099 -0.8845  0.4365  0.6410
  892SOL     OW 3070   4.321   5.858   3.214  0.5661 -0.2544  0.2136
  892SOL    HW1 3071   4.237   5.891   3.245  0.4705 -0.2688 -0.0268
  892SOL    HW2 3072   4.306   5.764   3.202  0.2614 -0.0757 -0.9610
  893SOL     OW 3073   6.854   0.962   5.505  0.1594  0.2892  0.3823
  893SOL    HW1 3074   6.775   0.907   5.508  0.4813 -0.1716  0.5502
  893SOL    HW2 3075   6.863   0.996   5.594 -1.5014  2.7541 -0.2753
  894SOL     OW 3076   0.249   3.782   5.115 -0.4139  0.2298  0.4807
  894SOL    HW1 3077   0.299   3.704   5.091  0.2775  0.2625  1.7383
  894SOL    HW2 3078   0.233   3.827   5.032  0.8611 -0.2487 -0.0462
  895SOL     OW 3079   3.305   4.426   3.162  0.0704 -0.0140 -0.3017
  895SOL    HW1 3080   3.225   4.477   3.149  0.3092  0.2126 -0.9479
  895SOL    HW2 3081   3.375   4.485   3.135  0.5782  0.2623  1.5109
  896SOL     OW 3082   3.759   2.557   6.628  0.7803 -0.1202  0.1389
  896SOL    HW1 3083   3.835   2.549   6.686  0.8842  1.0289  0.1989
  896SOL    HW2 3084   3.794   2.601   6.550 -0.1477  2.2258  0.9377
  897SOL     OW 3085   4.748   0.659   4.981  0.0564 -0.1559  0.0302
  897SOL    HW1 3086   4.792   0.728   5.031  0.9324 -1.1579  0.6863
  897SOL    HW2 3087   4.778   0.672   4.891 -2.1073  2.1173 -0.4482
  898SOL     OW 3088   3.003   1.498   1.603  0.2367  0.5056 -0.3059
  898SOL    HW1 3089   3.065   1.426   1.614 -0.7817 -0.1446  1.5362
  898SOL    HW2 3090   2.917   1.456   1.601 -0.2685  1.5060 -1.4697
  899SOL     OW 3091   0.320   1.159   5.577  0.0552  0.0315  0.3026
  899SOL    HW1 3092   0.259   1.097   5.617  0.0200  0.1844  0.4898
  899SOL    HW2 3093   0.306   1.240   5.626 -1.0541  0.6463 -0.9807
  900SOL     OW 3094   3.997   3.455   6.124  0.3003  0.1461  0.0181
  900SOL    HW1 3095   3.956   3.453   6.038  2.3434  1.9855 -1.1125
  900SOL    HW2 3096   4.045   3.538   6.125  1.4418 -0.4674  2.3954
  901SOL     OW 3097   0.737   2.896   2.073 -0.2466 -0.3209 -0.7050
  901SOL    HW1 3098   0.644   2.873   2.070 -0.3237  0.0508 -1.2170
  901SOL    HW2 3099   0.781   2.824   2.028 -0.4600  0.3585 -2.0359
  902SOL     OW 3100   4.347   6.539   6.646 -0.0880  0.2234 -0.3338
  902SOL    HW1 3101   4.307   6.461   6.607  0.2720 -0.1426  0.0103
  902SOL    HW2 3102   4.333   6.608   6.582  0.0392 -0.2449 -0.8768
  903SOL     OW 3103   0.062   0.474   1.750  0.0237  0.6220  0.4547
  903SOL    HW1 3104  -0.023   0.431   1.740  0.0385  0.2422  1.8347
  903SOL    HW2 3105   0.066   0.534   1.675 -1.1038  0.0763 -0.0809
  904SOL     OW 3106   2.587   4.994   5.607  0.5396  0.0504  0.1783
  904SOL    HW1 3107   2.614   5.069   5.659  0.7298  0.0521  0.0778
  904SOL    HW2 3108   2.639   5.000   5.527 -1.4192  1.3848 -1.0811
  905SOL     OW 3109   1.566   6.746   1.396 -0.2356  0.0990 -0.7638
  905SOL    HW1 3110   1.530   6.661   1.421 -0.3972 -0.0513 -1.4902
  905SOL    HW2 3111   1.650   6.750   1.441  1.1704 -1.7453 -3.0204
  906SOL     OW 3112   6.778   0.130   0.224  0.7769  0.3134 -0.3561
  906SOL    HW1 3113   6.871   0.122   0.205  0.8923  1.3662 -0.2798
  906SOL    HW2 3114   6.743   0.183   0.152  0.0690 -0.7858 -0.8420
  907SOL     OW 3115   1.037   5.728   6.656 -0.5273  0.0514 -0.3169
  907SOL    HW1 3116   1.013   5.679   6.578  0.7422  2.2073 -2.1834
  907SOL    HW2 3117   1.133   5.721   6.660 -0.5792 -0.2290  1.2370
  908SOL     OW 3118   3.615   3.123   1.244 -0.2931  1.1970 -0.2088
  908SOL    HW1 3119   3.638   3.196   1.302 -0.2878  1.3577 -0.4123
  908SOL    HW2 3120   3.668   3.137   1.165 -0.6175  1.2189 -0.4253
  909SOL     OW 3121   3.074   2.822   4.058  0.0913  0.1390 -0.0076
  909SOL    HW1 3122   2.985   2.808   4.026 -0.4335 -2.1991  2.1615
  909SOL    HW2 3123   3.123   2.745   4.027  1.2473  1.0916 -0.6523
  910SOL     OW 3124   2.225   4.861   6.247  0.2853 -0.2948  0.1647
  910SOL    HW1 3125   2.231   4.768   6.224 -0.2411 -0.2148 -0.3550
  910SOL    HW2 3126   2.182   4.862   6.332 -1.7268 -0.4847 -0.7777
  911SOL     OW 3127   6.193   2.405   3.749  1.0496  0.0005  0.2661
  911SOL    HW1 3128   6.109   2.442   3.778  0.5407 -0.8422 -0.0805
  911SOL    HW2 3129   6.248   2.481   3.732 -0.4852  0.7250 -1.9905
  912SOL     OW 3130   4.718   0.032   3.368 -0.7732 -0.2091 -0.1671
  912SOL    HW1 3131   4.743   0.087   3.294 -2.2364  0.7012 -0.0245
  912SOL    HW2 3132   4.705   0.093   3.441 -0.4689 -0.9696  0.5430
  913SOL     OW 3133   3.523   1.565   6.638 -0.1680 -0.5699 -0.5142
  913SOL    HW1 3134   3.513   1.493   6.701  1.7190 -1.1745 -0.8392
  913SOL    HW2 3135   3.527   1.644   6.691  0.3716 -0.9746  0.0576
  914SOL     OW 3136   5.708   4.524   0.143  0.1122  0.1109 -0.3092
  914SOL    HW1 3137   5.732   4.471   0.219 -0.5475  0.1532 -0.0610
  914SOL    HW2 3138   5.760   4.488   0.071  1.3753  0.6101  0.3291
  915SOL     OW 3139   3.970   1.060   0.876 -0.0027 -0.9427  0.3717
  915SOL    HW1 3140   3.875   1.058   0.885  0.0263  0.3420  1.2219
  915SOL    HW2 3141   4.001   0.985   0.927 -0.4887 -0.3794  1.5309
  916SOL     OW 3142   2.365   2.270   1.055 -0.1791 -0.0132  0.1147
  916SOL    HW1 3143   2.328   2.182   1.060 -0.2510  0.0510  0.9356
  916SOL    HW2 3144   2.437   2.262   0.993 -0.2449 -0.6295  0.1073
  917SOL     OW 3145   0.156   5.618   4.515 -0.2122 -0.4053  0.2755
  917SOL    HW1 3146   0.142   5.565   4.593 -0.6891 -0.6871  0.0096
  917SOL    HW2 3147   0.180   5.705   4.548  0.1240 -0.6659  0.7210
  918SOL     OW 3148   1.925   2.575   3.484  0.3824  0.0093  0.5295
  918SOL    HW1 3149   1.838   2.585   3.445  0.8793  1.9138 -0.1952
  918SOL    HW2 3150   1.913   2.508   3.552 -1.4368 -0.4009 -0.1309
  919SOL     OW 3151   3.393   0.449   2.628  0.0786  0.4801 -0.1481
  919SOL    HW1 3152   3.465   0.400   2.588 -1.0549  0.1205 -1.8661
  919SOL    HW2 3153   3.430   0.487   2.708  1.6515 -1.1661 -0.0519
  920SOL     OW 3154   3.986   3.945   5.194 -0.4190 -0.1617  0.1599
  920SOL    HW1 3155   4.071   3.941   5.238  0.4868  2.0537 -1.1911
  920SOL    HW2 3156   3.936   4.011   5.242  0.1579  1.4334 -1.3094
  921SOL     OW 3157   2.240   6.000   0.008 -0.0640  0.3762 -0.1145
  921SOL    HW1 3158   2.290   5.918   0.011 -0.7857 -0.0434  0.9012
  921SOL    HW2 3159   2.295   6.059  -0.044  0.8985 -0.4639 -0.0912
  922SOL     OW 3160   3.543   6.407   4.483  0.6144 -0.8399  0.0392
  922SOL    HW1 3161   3.499   6.465   4.421  0.5228 -1.0961 -0.1354
  922SOL    HW2 3162   3.537   6.320   4.443  0.4705 -1.0213  0.4495
  923SOL     OW 3163   3.802   6.297   0.147  0.1236  0.3329 -0.3692
  923SOL    HW1 3164   3.811   6.363   0.216 -1.8714 -2.0797  2.4926
  923SOL    HW2 3165   3.890   6.286   0.113  1.2613  1.6033  1.9126
  924SOL     OW 3166   5.052   3.788   3.394  0.1951 -0.4876 -0.4609
  924SOL    HW1 3167   5.039   3.877   3.362  0.3642 -0.0405  0.6542
  924SOL    HW2 3168   5.083   3.800   3.484  0.5942 -1.6680 -0.4336
  925SOL     OW 3169   0.736   1.732   4.261 -0.1027  0.1288 -0.0148
  925SOL    HW1 3170   0.829   1.736   4.282 -0.3149  0.9181  0.8567
  925SOL    HW2 3171   0.692   1.766   4.339 -1.0801  0.6005 -0.7464
  926SOL     OW 3172   4.788   6.568   1.915 -0.1016  0.5565  0.3810
  926SOL    HW1 3173   4.842   6.637   1.955 -0.3069  0.4271  0.8920
  926SOL    HW2 3174   4.793   6.585   1.821  1.8681 -0.2055  0.3117
  927SOL     OW 3175   0.478   1.281   1.625  0.1019  0.4085 -0.1718
  927SOL    HW1 3176   0.403   1.276   1.565 -0.0225 -2.2693  0.0772
  927SOL    HW2 3177   0.450   1.342   1.693 -0.8037  1.4349 -1.4080
  928SOL     OW 3178   2.522   3.917   2.580 -0.1274  0.4460  0.1066
  928SOL    HW1 3179   2.485   3.952   2.661  0.8825  1.1464  0.2816
  928SOL    HW2 3180   2.510   3.822   2.587 -0.3033  0.5273  0.9466
  929SOL     OW 3181   4.302   1.328   2.335 -0.4319  0.6144 -0.4529
  929SOL    HW1 3182   4.372   1.363   2.389  0.1703 -1.4054  0.1806
  929SOL    HW2 3183   4.224   1.332   2.391  0.2512 -1.7868  0.8492
  930SOL     OW 3184   5.300   1.992   3.284 -0.0506  0.0706 -0.3340
  930SOL    HW1 3185   5.348   2.055   3.338 -0.7086 -0.3480  0.7735
  930SOL    HW2 3186   5.365   1.961   3.221  1.6865 -1.6876  2.1244
  931SOL     OW 3187   0.591   1.586   2.669  0.0976  0.2331  0.4591
  931SOL    HW1 3188   0.504   1.625   2.663 -0.5787 -1.2912 -0.0186
  931SOL    HW2 3189   0.600   1.561   2.760  0.2693  0.8817  0.6262
  932SOL     OW 3190   5.091   5.100   4.376  0.2220  0.3152  0.3688
  932SOL    HW1 3191   5.040   5.020   4.392  1.6758 -0.6525  0.3820
  932SOL    HW2 3192   5.116   5.131   4.463  0.2759  0.3641  0.3362
  933SOL     OW 3193   6.464   6.875   0.895  0.2033 -0.6741 -0.1346
  933SOL    HW1 3194   6.538   6.851   0.838  0.5731  1.3922 -0.5959
  933SOL    HW2 3195   6.503   6.934   0.960 -0.4776 -1.9705  1.5134
  934SOL     OW 3196   3.539   5.717   1.329 -0.7033 -0.3263 -0.5508
  934SOL    HW1 3197   3.548   5.631   1.369 -0.4589  0.0815  0.2843
  934SOL    HW2 3198   3.585   5.710   1.245 -1.7669 -1.3778 -1.0870
  935SOL     OW 3199   6.789   0.323   1.626 -0.2852  0.0352 -0.2833
  935SOL    HW1 3200   6.767   0.416   1.624  0.7519  0.2618 -1.6713
  935SOL    HW2 3201   6.714   0.280   1.584  0.6371  0.5689 -2.6048
  936SOL     OW 3202   6.674   2.935   0.193  0.2616  0.3793  0.0240
  936SOL    HW1 3203   6.762   2.899   0.200  0.2701  0.2487 -0.6779
  936SOL    HW2 3204   6.649   2.955   0.283  0.7562 -0.1756  0.2892
  937SOL     OW 3205   0.917   1.335   5.561  0.4903 -0.9031 -0.1024
  937SOL    HW1 3206   0.930   1.247   5.596  1.2955 -0.6300  0.3360
  937SOL    HW2 3207   0.996   1.383   5.588  0.1284 -0.0878 -0.4482
  938SOL     OW 3208   5.578   3.325   0.178  0.3747  0.2590  0.1821
  938SOL    HW1 3209   5.647   3.346   0.116  0.9925  1.3284  1.1888
  938SOL    HW2 3210   5.608   3.245   0.222 -0.9409 -1.6188 -2.1203
  939SOL     OW 3211   1.811   1.582   0.634  0.0112  0.1415 -0.6600
  939SOL    HW1 3212   1.815   1.599   0.728 -0.2221 -2.0836 -0.1920
  939SOL    HW2 3213   1.717   1.573   0.615  0.0127  1.2073 -1.2616
  940SOL     OW 3214   0.916   0.697   4.371  0.7364 -0.0510  0.2112
  940SOL    HW1 3215   0.969   0.722   4.448  1.5461 -1.5446  0.1720
  940SOL    HW2 3216   0.829   0.681   4.407  0.6927  0.8391  0.5427
  941SOL     OW 3217   1.788   6.067   4.210  0.0331 -0.9388 -0.1721
  941SOL    HW1 3218   1.774   6.015   4.289 -1.5128  0.9048  0.8606
  941SOL    HW2 3219   1.852   6.133   4.235  1.5272 -1.9019 -1.2948
  942SOL     OW 3220   3.252   1.172   4.078  0.2818 -0.4136 -0.1720
  942SOL    HW1 3221   3.187   1.142   4.014 -0.0719 -0.0574  0.0156
  942SOL    HW2 3222   3.336   1.140   4.044  0.3167  1.1656 -1.6985
  943SOL     OW 3223   0.824   1.107   2.613 -0.3121  0.1934 -0.5906
  943SOL    HW1 3224   0.810   1.014   2.630 -0.6997  0.2321 -0.6702
  943SOL    HW2 3225   0.793   1.151   2.692  0.1053  0.2417 -0.4524
  944SOL     OW 3226   4.885   4.407   2.569  0.1559  0.1532  0.1767
  944SOL    HW1 3227   4.887   4.325   2.618 -0.0207  0.0476  0.0079
  944SOL    HW2 3228   4.975   4.420   2.539  0.0780 -0.2547 -0.2493
  945SOL     OW 3229   5.660   0.413   6.638  0.0573 -0.0427  0.6431
  945SOL    HW1 3230   5.588   0.433   6.578 -0.1107 -0.6525  0.6391
  945SOL    HW2 3231   5.733   0.465   6.605 -0.0857 -0.2307  0.0158
  946SOL     OW 3232   5.683   6.859   6.172  0.6507  0.5708  0.5285
  946SOL    HW1 3233   5.760   6.915   6.173  1.6866 -0.6697 -1.5153
  946SOL    HW2 3234   5.710   6.783   6.120 -0.9640 -1.4093  2.4082
  947SOL     OW 3235   6.310   0.714   2.378 -0.8848 -0.3628  0.1885
  947SOL    HW1 3236   6.344   0.650   2.315 -0.1145  0.5989 -0.4170
  947SOL    HW2 3237   6.365   0.703   2.455  0.1519  0.4743 -0.4105
  948SOL     OW 3238   5.607   3.937   6.053  0.0165 -0.1572 -0.0555
  948SOL    HW1 3239   5.614   3.865   5.991  0.4522  0.1667 -0.3944
  948SOL    HW2 3240   5.516   3.965   6.047  0.1996  0.2723 -1.0218
  949SOL     OW 3241   6.102   6.878   4.365  0.6986  0.1978  0.2032
  949SOL    HW1 3242   6.190   6.840   4.353  0.6602  0.6386 -1.7811
  949SOL    HW2 3243   6.092   6.938   4.292 -1.5257 -0.3278  0.0237
  950SOL     OW 3244   6.515   2.957   0.465 -0.5531  0.3333  0.5044
  950SOL    HW1 3245   6.593   2.941   0.518  0.1795 -1.8147 -1.0785
  950SOL    HW2 3246   6.448   2.901   0.504 -0.8348  0.9140  0.8614
  951SOL     OW 3247   4.737   4.189   5.771  0.2265 -0.0706  0.4684
  951SOL    HW1 3248   4.780   4.141   5.700  0.2336  2.5892 -1.5157
  951SOL    HW2 3249   4.657   4.224   5.730  0.5322  2.0449  1.5451
  952SOL     OW 3250   4.998   3.785   5.891 -0.0631  0.0231  0.2041
  952SOL    HW1 3251   4.930   3.800   5.957 -0.3185  0.7667 -0.2085
  952SOL    HW2 3252   5.080   3.778   5.941 -0.3739 -0.3513  0.6624
  953SOL     OW 3253   4.974   5.617   3.404 -0.1184 -0.2365  0.1037
  953SOL    HW1 3254   4.937   5.680   3.466  2.9226  0.8096  1.0291
  953SOL    HW2 3255   5.037   5.566   3.456  1.0451 -0.7016 -1.6583
  954SOL     OW 3256   3.582   2.634   5.026 -0.0155  0.6062  0.0568
  954SOL    HW1 3257   3.578   2.706   4.963 -1.9948  0.5003  0.0028
  954SOL    HW2 3258   3.491   2.617   5.049  0.5821 -0.1819  2.0385
  955SOL     OW 3259   6.569   5.070   5.546 -0.0413  0.1537 -0.0109
  955SOL    HW1 3260   6.584   5.088   5.639  0.0286 -0.6566  0.1433
  955SOL    HW2 3261   6.636   5.006   5.523 -0.4623 -0.1319 -0.4595
  956SOL     OW 3262   2.921   0.800   4.964 -0.4215 -0.0078 -0.2641
  956SOL    HW1 3263   2.837   0.793   4.919 -0.1394  0.1695 -0.8354
  956SOL    HW2 3264   2.985   0.771   4.899  0.0411  0.7157 -0.1373
  957SOL     OW 3265   3.417   3.288   1.066 -0.5064 -0.5987 -0.1084
  957SOL    HW1 3266   3.380   3.228   1.132 -0.1854  0.1191  0.7484
  957SOL    HW2 3267   3.511   3.271   1.067 -0.2415  0.7075  1.0168
  958SOL     OW 3268   0.993   5.750   4.040  0.1103  0.1451 -0.4757
  958SOL    HW1 3269   1.071   5.755   4.095 -0.8727  2.7271  0.8889
  958SOL    HW2 3270   1.012   5.807   3.966 -1.4039  3.3077  1.3647
  959SOL     OW 3271   2.356   3.994   0.465  0.1031  0.0493  0.1030
  959SOL    HW1 3272   2.328   3.972   0.376 -0.8703 -2.4264  0.9312
  959SOL    HW2 3273   2.444   4.029   0.454  0.0675 -0.3549 -1.8330
  960SOL     OW 3274   0.539   3.421   0.045  0.2248 -0.4538 -0.2726
  960SOL    HW1 3275   0.582   3.336   0.040 -0.2237 -0.7334  0.4638
  960SOL    HW2 3276   0.488   3.417   0.126 -0.4028  0.2330 -0.6289
  961SOL     OW 3277   1.702   3.521   5.914 -0.0690 -0.1329  0.1001
  961SOL    HW1 3278   1.765   3.511   5.986 -0.1196 -0.5707  0.0834
  961SOL    HW2 3279   1.737   3.468   5.843 -0.2862 -0.1122 -0.0244
  962SOL     OW 3280   4.534   5.007   0.244  0.3443 -0.0685 -0.2292
  962SOL    HW1 3281   4.514   4.929   0.296  0.0294 -0.4461 -0.8970
  962SOL    HW2 3282   4.569   4.972   0.162  3.6009  0.5536  0.7651
  963SOL     OW 3283   4.123   0.303   4.114  0.1319 -0.4820  0.4910
  963SOL    HW1 3284   4.210   0.334   4.088  0.4142 -1.6651 -0.0558
  963SOL    HW2 3285   4.064   0.375   4.092  0.5359 -0.9071 -2.3199
  964SOL     OW 3286   2.863   5.556   1.004 -0.2325 -0.4244  0.9876
  964SOL    HW1 3287   2.853   5.542   1.098  0.8118 -2.5873  0.8407
  964SOL    HW2 3288   2.777   5.585   0.974 -0.4092  0.9179  2.6896
  965SOL     OW 3289   3.014   1.980   3.507  0.2443 -0.3281 -0.4669
  965SOL    HW1 3290   3.106   2.004   3.519 -0.2427  1.3019  0.2781
  965SOL    HW2 3291   2.972   2.059   3.473 -1.0018 -0.8302 -0.1811
  966SOL     OW 3292   4.334   3.337   5.126 -0.4027  0.1071 -0.5697
  966SOL    HW1 3293   4.319   3.383   5.043  1.6342  1.0640 -0.4717
  966SOL    HW2 3294   4.330   3.245   5.103 -0.6991  0.3524 -1.5585
  967SOL     OW 3295   6.868   6.890   1.437  0.1174  0.3220 -0.0174
  967SOL    HW1 3296   6.959   6.864   1.422  0.7382  2.6183 -0.5111
  967SOL    HW2 3297   6.866   6.916   1.529 -0.6653 -1.8790  0.6625
  968SOL     OW 3298   3.128   5.085   5.062  0.0383  0.0719  0.0310
  968SOL    HW1 3299   3.219   5.096   5.088  0.1043 -0.7307  0.1808
  968SOL    HW2 3300   3.132   5.027   4.986 -0.4398 -1.4642  1.1234
  969SOL     OW 3301   5.671   2.727   2.348 -0.1600  0.1410  0.7829
  969SOL    HW1 3302   5.637   2.815   2.331  0.8228  0.6733  1.4427
  969SOL    HW2 3303   5.727   2.738   2.425  0.7491 -0.8769  0.2833
  970SOL     OW 3304   3.670   5.815   1.034  0.2539  0.4519  0.1310
  970SOL    HW1 3305   3.750   5.838   1.082 -1.1398  1.3056  2.1780
  970SOL    HW2 3306   3.669   5.876   0.960  1.0510  1.0491  0.5955
  971SOL     OW 3307   0.075   0.585   4.937 -0.2342 -0.1927 -0.0962
  971SOL    HW1 3308   0.100   0.624   4.853 -0.1728 -1.1435 -0.5353
  971SOL    HW2 3309  -0.018   0.606   4.947 -0.3598 -0.4795 -0.6354
  972SOL     OW 3310   2.601   2.893   2.086  0.4717  0.2278 -0.3684
  972SOL    HW1 3311   2.688   2.854   2.084  0.3446 -0.2367  1.5954
  972SOL    HW2 3312   2.586   2.922   1.996  3.4282  2.0806 -0.3899
  973SOL     OW 3313   3.947   0.440   4.412  0.4763  1.0115  0.3339
  973SOL    HW1 3314   3.875   0.502   4.423 -0.6556  0.0891 -1.4653
  973SOL    HW2 3315   3.950   0.392   4.495 -1.6111  0.4667  0.1369
  974SOL     OW 3316   4.265   6.186   3.866  0.1181 -0.2549 -0.7336
  974SOL    HW1 3317   4.280   6.190   3.772  0.1553  1.5908 -0.6871
  974SOL    HW2 3318   4.176   6.219   3.878  0.0809 -0.5566 -0.1148
  975SOL     OW 3319   4.477   4.325   5.768 -0.3178  0.5846  0.6286
  975SOL    HW1 3320   4.440   4.334   5.681 -0.1281  0.8458  0.5738
  975SOL    HW2 3321   4.507   4.413   5.791  2.0291  0.0668 -0.1286
  976SOL     OW 3322   3.091   6.189   2.592 -0.0570  0.2720 -0.1285
  976SOL    HW1 3323   3.024   6.255   2.609 -0.8089 -0.3527 -0.5954
  976SOL    HW2 3324   3.129   6.172   2.678 -1.5207 -0.4164  0.4256
  977SOL     OW 3325   0.939   6.194   4.322 -0.0560 -0.4382 -0.0892
  977SOL    HW1 3326   0.945   6.264   4.388  1.9418 -1.3389  0.7928
  977SOL    HW2 3327   0.982   6.231   4.245 -2.1493  0.5175 -0.8700
  978SOL     OW 3328   3.243   1.923   2.118 -0.2044  0.0610 -0.5542
  978SOL    HW1 3329   3.191   1.972   2.056 -0.1789 -0.2457 -0.8182
  978SOL    HW2 3330   3.252   1.982   2.194  0.0041  0.5423 -0.9494
  979SOL     OW 3331   5.062   3.730   2.549 -0.1025  0.5507 -0.2375
  979SOL    HW1 3332   5.097   3.661   2.492 -0.2351  0.5875 -0.3627
  979SOL    HW2 3333   4.972   3.742   2.520  0.5536  2.3943 -1.8110
  980SOL     OW 3334   3.843   2.745   1.825  0.1138 -0.0389 -0.4977
  980SOL    HW1 3335   3.766   2.750   1.882 -0.1678 -1.2192 -0.7393
  980SOL    HW2 3336   3.917   2.760   1.883 -0.2950  1.2561 -0.2835
  981SOL     OW 3337   4.914   4.167   2.699  0.1748 -0.8848 -0.2187
  981SOL    HW1 3338   4.952   4.131   2.779  0.4304 -0.0524  0.0362
  981SOL    HW2 3339   4.882   4.090   2.652  1.3781 -1.5169 -0.0303
  982SOL     OW 3340   2.856   0.198   4.620  0.4648 -0.1959  0.3334
  982SOL    HW1 3341   2.820   0.254   4.551 -0.4422  0.1443  1.0623
  982SOL    HW2 3342   2.936   0.243   4.648  0.6412 -0.1464 -0.2381
  983SOL     OW 3343   4.421   5.544   2.986 -0.5981  0.0495  0.0958
  983SOL    HW1 3344   4.377   5.477   2.934 -0.1004  0.3506 -0.7296
  983SOL    HW2 3345   4.469   5.494   3.052 -0.1822 -0.4231 -0.5454
  984SOL     OW 3346   5.097   3.622   1.439  0.4315 -0.4690  0.2152
  984SOL    HW1 3347   5.050   3.597   1.518  2.0114  0.3225  1.4595
  984SOL    HW2 3348   5.045   3.692   1.400  0.6476  0.5199  1.6587
  985SOL     OW 3349   5.422   2.429   4.917 -0.0427  0.7516  0.4314
  985SOL    HW1 3350   5.340   2.474   4.897 -0.2825  0.1374 -0.0129
  985SOL    HW2 3351   5.471   2.433   4.835 -1.5243 -2.8319 -0.8154
  986SOL     OW 3352   1.624   6.089   1.111 -0.5011 -0.0523 -0.3442
  986SOL    HW1 3353   1.543   6.040   1.096 -0.6335 -0.4056  1.3121
  986SOL    HW2 3354   1.635   6.088   1.206  1.0143  0.7085 -0.4842
  987SOL     OW 3355   6.781   5.537   5.899  0.2162 -0.2846 -0.1504
  987SOL    HW1 3356   6.707   5.509   5.844  1.0673 -0.4932 -1.2380
  987SOL    HW2 3357   6.746   5.537   5.988 -1.4783  0.9787 -0.7708
  988SOL     OW 3358   4.662   1.942   6.740  0.7136  0.3555  0.4071
  988SOL    HW1 3359   4.757   1.955   6.750  0.5441  0.7153  1.7736
  988SOL    HW2 3360   4.650   1.920   6.647  2.2116 -0.4177  0.3701
  989SOL     OW 3361   4.664   2.518   1.860  0.1492 -0.4837 -0.4553
  989SOL    HW1 3362   4.673   2.449   1.794  3.8843  0.2539 -0.9542
  989SOL    HW2 3363   4.622   2.590   1.814 -1.9020 -1.6336 -0.5053
  990SOL     OW 3364   4.567   6.170   2.669  0.2711  0.2717  0.1836
  990SOL    HW1 3365   4.628   6.134   2.604 -1.2936 -1.4114 -0.4314
  990SOL    HW2 3366   4.528   6.093   2.710 -1.3282  1.2993  0.6734
  991SOL     OW 3367   6.362   5.583   1.479 -0.4533  0.1557 -0.5539
  991SOL    HW1 3368   6.447   5.597   1.522 -0.8337 -2.0070  1.0668
  991SOL    HW2 3369   6.298   5.593   1.549 -1.2559 -1.3305 -1.0308
  992SOL     OW 3370   4.475   4.831   1.645  0.5355 -0.0406  0.4320
  992SOL    HW1 3371   4.508   4.869   1.564 -1.0671  2.8210  0.9995
  992SOL    HW2 3372   4.526   4.750   1.656  1.8172  0.2209 -2.6122
  993SOL     OW 3373   2.593   3.939   5.153  0.3047  0.5592  0.1856
  993SOL    HW1 3374   2.557   4.005   5.212 -0.8397  0.0134  0.1100
  993SOL    HW2 3375   2.592   3.858   5.204  1.7490  0.5793  0.2948
  994SOL     OW 3376   0.158   1.594   2.427 -0.1234 -0.3557  0.5127
  994SOL    HW1 3377   0.234   1.602   2.370  1.1920  1.1702  2.3242
  994SOL    HW2 3378   0.101   1.667   2.401 -0.9543 -1.4147 -0.7495
  995SOL     OW 3379   6.704   2.015   0.463  0.0942 -0.1963 -0.1217
  995SOL    HW1 3380   6.782   2.034   0.410 -0.1521 -0.7682 -0.6972
  995SOL    HW2 3381   6.645   1.968   0.404 -1.1560  1.1755 -0.0256
  996SOL     OW 3382   2.998   5.145   0.480  0.1995 -1.0225  0.3565
  996SOL    HW1 3383   2.939   5.166   0.553 -0.4747 -0.2038 -0.4031
  996SOL    HW2 3384   3.072   5.206   0.491  1.1394 -2.3056  1.5290
  997SOL     OW 3385   4.399   3.691   4.395 -0.3228  0.0096  0.3957
  997SOL    HW1 3386   4.493   3.687   4.417  0.2005  0.2915 -1.6053
  997SOL    HW2 3387   4.371   3.599   4.394 -0.6597  0.0055  3.1214
  998SOL     OW 3388   6.266   2.721   2.425 -0.0894 -0.2758 -0.0045
  998SOL    HW1 3389   6.185   2.687   2.460 -0.1411  0.2499  0.3938
  998SOL    HW2 3390   6.320   2.643   2.408 -0.6106 -0.6138 -0.1351
  999SOL     OW 3391   4.485   5.647   3.510 -0.5109 -0.0247  0.3381
  999SOL    HW1 3392   4.463   5.659   3.602 -2.1859  0.5854 -0.1085
  999SOL    HW2 3393   4.448   5.562   3.487  1.1035 -0.8269  0.5332
 1000SOL     OW 3394   2.605   6.577   6.323  0.5684 -0.0335 -0.3247
 1000SOL    HW1 3395   2.528   6.632   6.304  0.9719  0.1028 -1.7234
 1000SOL    HW2 3396   2.575   6.488   6.304  0.7652  0.0277 -0.9453
 1001SOL     OW 3397   3.674   6.947   6.191 -0.1189  0.1225 -0.3316
 1001SOL    HW1 3398   3.662   6.985   6.104 -1.1088  1.6643  0.4346
 1001SOL    HW2 3399   3.635   6.860   6.186  0.7639 -0.2228 -1.6937
 1002SOL     OW 3400   4.822   5.044   6.899  0.9555  0.5796  0.2461
 1002SOL    HW1 3401   4.802   5.125   6.946  0.5346  0.8817 -0.4308
 1002SOL    HW2 3402   4.840   5.072   6.810  0.7862 -0.0784  0.0001
 1003SOL     OW 3403   2.585   5.848   3.250  0.6748 -0.0655  0.1052
 1003SOL    HW1 3404   2.528   5.772   3.236  1.0786 -0.5600  1.0339
 1003SOL    HW2 3405   2.629   5.861   3.166  1.1132 -1.3026  0.1245
 1004SOL     OW 3406   1.585   0.629   1.748 -0.4368  0.0189  0.3158
 1004SOL    HW1 3407   1.599   0.606   1.656  1.0150  1.2193  0.2047
 1004SOL    HW2 3408   1.511   0.690   1.746  0.1029  0.6864 -0.1835
 1005SOL     OW 3409   2.265   5.454   6.087  0.1499 -0.2831  0.0977
 1005SOL    HW1 3410   2.308   5.385   6.037  0.2781  0.1932 -0.4482
 1005SOL    HW2 3411   2.209   5.406   6.149 -0.3960 -0.8778 -0.8258
 1006SOL     OW 3412   6.934   5.528   3.338 -0.1832  0.2596 -0.7070
 1006SOL    HW1 3413   6.923   5.433   3.337 -1.8026  0.4147 -2.6634
 1006SOL    HW2 3414   7.016   5.543   3.290  1.1741 -0.1607  1.3058
 1007SOL     OW 3415   4.924   1.809   2.212 -0.0348  0.3256 -0.0672
 1007SOL    HW1 3416   4.829   1.808   2.200 -0.1410 -0.0301  0.7300
 1007SOL    HW2 3417   4.945   1.899   2.237 -0.2193  0.2968  0.1891
 1008SOL     OW 3418   5.854   2.010   5.405  0.5336  0.2478 -0.1717
 1008SOL    HW1 3419   5.795   2.083   5.389 -0.0892  0.1476  1.4444
 1008SOL    HW2 3420   5.796   1.938   5.432  1.1477 -0.8168 -1.5752
 1009SOL     OW 3421   1.385   5.378   6.800  0.1274  0.2384 -0.0626
 1009SOL    HW1 3422   1.299   5.396   6.838  1.4572  1.6830  2.5520
 1009SOL    HW2 3423   1.420   5.306   6.853  0.6944 -0.1007 -0.8755
 1010SOL     OW 3424   4.693   3.545   3.703 -0.2777  0.3941  0.0199
 1010SOL    HW1 3425   4.600   3.522   3.715 -0.5690  0.7962 -1.3241
 1010SOL    HW2 3426   4.738   3.461   3.703 -0.6610  0.1809  0.4963
 1011SOL     OW 3427   4.521   5.335   4.150 -0.0626  0.0059 -0.1408
 1011SOL    HW1 3428   4.462   5.267   4.117 -0.8836  0.0846  1.0929
 1011SOL    HW2 3429   4.607   5.295   4.151 -0.4420 -0.8223 -0.0090
 1012SOL     OW 3430   5.388   4.065   4.784  0.8768  0.0486 -0.8094
 1012SOL    HW1 3431   5.447   4.042   4.856  0.8552 -1.0514 -1.1201
 1012SOL    HW2 3432   5.445   4.071   4.707  0.9717  1.6969 -0.6371
 1013SOL     OW 3433   4.729   2.087   3.930  0.7023 -0.2944 -0.2464
 1013SOL    HW1 3434   4.801   2.146   3.908  0.3488  0.9322  1.6694
 1013SOL    HW2 3435   4.695   2.120   4.013 -1.2005 -1.6650 -0.4058
 1014SOL     OW 3436   5.695   4.910   4.258  0.3363 -0.0796 -0.2078
 1014SOL    HW1 3437   5.618   4.934   4.310 -0.4793 -0.2133 -1.3143
 1014SOL    HW2 3438   5.715   4.820   4.285 -0.8035 -0.5742 -0.9308
 1015SOL     OW 3439   0.996   5.753   5.218  0.4234 -0.3617 -0.3065
 1015SOL    HW1 3440   1.034   5.759   5.306  0.0490  3.1128 -0.2642
 1015SOL    HW2 3441   0.914   5.802   5.225  0.0088 -0.6932 -2.4167
 1016SOL     OW 3442   2.955   4.258   3.451 -0.1040 -0.0575 -0.0015
 1016SOL    HW1 3443   2.972   4.193   3.383 -2.0927  0.4989 -1.1252
 1016SOL    HW2 3444   2.887   4.218   3.505  1.6601 -0.6186  1.9355
 1017SOL     OW 3445   5.969   2.043   6.742 -0.7090 -0.5677 -0.0047
 1017SOL    HW1 3446   5.977   1.963   6.689 -2.5817 -1.0217  0.3259
 1017SOL    HW2 3447   5.876   2.065   6.737 -0.4682  0.7714  1.1165
 1018SOL     OW 3448   0.285   0.017   0.066  0.5616  0.1617  0.2657
 1018SOL    HW1 3449   0.317   0.066  -0.010 -1.4016  1.3952  0.1611
 1018SOL    HW2 3450   0.326  -0.069   0.058  1.2699  0.6290 -1.5833
 1019SOL     OW 3451   4.237   3.622   2.281 -0.1197  0.7759  0.3646
 1019SOL    HW1 3452   4.234   3.616   2.376 -1.4156  0.3287  0.3182
 1019SOL    HW2 3453   4.185   3.699   2.259 -1.1930 -0.0456 -0.0427
 1020SOL     OW 3454   1.805   4.721   3.783  0.2261  0.3499  0.4530
 1020SOL    HW1 3455   1.811   4.768   3.700 -0.0767  0.0404  0.2561
 1020SOL    HW2 3456   1.714   4.692   3.788  0.3707 -0.0818  0.6471
 1021SOL     OW 3457   2.784   6.854   5.653 -0.2784  0.8049 -0.4532
 1021SOL    HW1 3458   2.730   6.780   5.626  2.0355 -1.6822  1.2712
 1021SOL    HW2 3459   2.728   6.903   5.714 -1.2311 -0.6559 -0.1071
 1022SOL     OW 3460   5.286   3.290   5.127 -0.4205 -0.4358  0.4228
 1022SOL    HW1 3461   5.291   3.212   5.181  0.8373  0.3018  1.4267
 1022SOL    HW2 3462   5.192   3.311   5.124 -0.5084 -0.2604  2.7249
 1023SOL     OW 3463   0.737   2.298   5.255  0.5668 -0.2038  0.5565
 1023SOL    HW1 3464   0.762   2.206   5.262  0.6776 -0.1792  0.4849
 1023SOL    HW2 3465   0.697   2.318   5.339  0.4623 -0.3421  0.5410
 1024SOL     OW 3466   5.253   6.056   2.492 -0.3179 -0.0765  0.4023
 1024SOL    HW1 3467   5.329   6.114   2.502 -1.2475  1.3952 -0.6778
 1024SOL    HW2 3468   5.266   6.013   2.408 -0.9641  0.6665 -0.0939
 1025SOL     OW 3469   4.778   3.347   2.998 -0.3070  0.5386  0.4525
 1025SOL    HW1 3470   4.745   3.260   2.975  2.4174 -0.1225 -1.5778
 1025SOL    HW2 3471   4.835   3.331   3.073 -1.4896  0.9802  1.4599
 1026SOL     OW 3472   2.672   1.572   2.375 -0.3838 -0.0232  0.0058
 1026SOL    HW1 3473   2.703   1.509   2.310  0.9861  0.2553  0.3645
 1026SOL    HW2 3474   2.592   1.533   2.410 -0.1372 -1.0525 -0.5265
 1027SOL     OW 3475   2.526   1.159   0.192 -0.5000  0.1521  0.7276
 1027SOL    HW1 3476   2.605   1.197   0.229  0.6806 -0.7980 -0.6944
 1027SOL    HW2 3477   2.512   1.208   0.111 -0.8580 -0.2742  0.5274
 1028SOL     OW 3478   4.875   1.014   3.551  0.0400  0.0229 -0.0098
 1028SOL    HW1 3479   4.856   1.055   3.467  0.6594 -0.4683 -0.4035
 1028SOL    HW2 3480   4.941   1.070   3.592  1.0931 -0.6848 -0.6692
 1029SOL     OW 3481   6.942   6.657   5.989  0.1346  0.4421 -0.0095
 1029SOL    HW1 3482   7.002   6.706   6.046 -1.8938  2.3426  0.6273
 1029SOL    HW2 3483   6.884   6.724   5.952 -0.9773 -1.2001 -1.3801
 1030SOL     OW 3484   5.830   4.815   0.243  0.2265  0.8681 -0.5434
 1030SOL    HW1 3485   5.813   4.728   0.206  2.1421 -0.5258  1.5675
 1030SOL    HW2 3486   5.907   4.847   0.198  0.5251  0.6999 -0.1583
 1031SOL     OW 3487   2.572   3.803   6.777  0.3441 -0.0008  0.0506
 1031SOL    HW1 3488   2.532   3.718   6.792  0.2015 -0.0677 -0.6492
 1031SOL    HW2 3489   2.502   3.866   6.792  0.4591 -0.0052  0.6024
 1032SOL     OW 3490   2.204   6.173   4.072  0.0728 -0.1133 -0.8341
 1032SOL    HW1 3491   2.214   6.258   4.116 -0.3594 -0.8081  0.6516
 1032SOL    HW2 3492   2.119   6.178   4.029 -0.1357  0.0502 -0.4048
 1033SOL     OW 3493   0.046   0.304   2.450 -0.3938  0.2060 -0.0997
 1033SOL    HW1 3494   0.063   0.313   2.356  0.6935  1.1586  0.1607
 1033SOL    HW2 3495   0.021   0.392   2.478  0.8777  0.3267  0.7777
 1034SOL     OW 3496   2.779   2.255   1.570  0.2324 -0.7638 -0.1374
 1034SOL    HW1 3497   2.767   2.261   1.475  3.5006 -0.0015 -0.6239
 1034SOL    HW2 3498   2.805   2.164   1.586  0.1701 -0.7649 -0.0403
 1035SOL     OW 3499   0.818   4.866   5.126  0.4668 -0.6114 -0.1165
 1035SOL    HW1 3500   0.824   4.864   5.030  1.4674 -0.8890 -0.0603
 1035SOL    HW2 3501   0.865   4.945   5.151 -1.7295  0.7277  0.0577
 1036SOL     OW 3502   1.381   3.494   2.381  0.1992 -0.0323 -0.1685
 1036SOL    HW1 3503   1.395   3.482   2.474 -0.4468  2.2027  0.2741
 1036SOL    HW2 3504   1.293   3.530   2.374  0.5200  0.5578 -1.5574
 1037SOL     OW 3505   3.198   5.774   4.410  0.2921 -0.3026  0.1731
 1037SOL    HW1 3506   3.226   5.865   4.399  0.8600 -0.4417  0.4361
 1037SOL    HW2 3507   3.264   5.735   4.467  0.1428 -0.9238 -0.0691
 1038SOL     OW 3508   6.203   5.794   5.461 -0.3805  0.1004  0.5206
 1038SOL    HW1 3509   6.109   5.786   5.476 -0.4561 -1.0115 -0.4484
 1038SOL    HW2 3510   6.220   5.743   5.382  0.8522  1.2511 -0.0117
 1039SOL     OW 3511   6.235   4.736   1.409  0.1103 -0.2422 -0.6736
 1039SOL    HW1 3512   6.312   4.693   1.444 -0.0643 -0.7846 -0.9425
 1039SOL    HW2 3513   6.247   4.734   1.314  1.1979  2.3564 -0.6517
 1040SOL     OW 3514   5.989   3.172   4.035 -0.0067 -0.1601  0.3895
 1040SOL    HW1 3515   5.949   3.258   4.044  0.8057  0.2141  0.5602
 1040SOL    HW2 3516   6.040   3.161   4.116  0.4348 -0.4995  0.0711
 1041SOL     OW 3517   0.844   2.202   3.607  0.1148 -0.0043  0.2971
 1041SOL    HW1 3518   0.886   2.136   3.552 -0.9417 -1.7156  1.4630
 1041SOL    HW2 3519   0.872   2.180   3.696 -1.0942  0.4656  0.8094
 1042SOL     OW 3520   1.546   2.900   5.328  0.3312  0.1545  0.5279
 1042SOL    HW1 3521   1.538   2.989   5.292 -0.3212  0.2903  1.0128
 1042SOL    HW2 3522   1.464   2.884   5.373  0.2013 -0.9320 -0.0592
 1043SOL     OW 3523   2.454   6.122   2.331  0.1746  0.2212  0.2065
 1043SOL    HW1 3524   2.542   6.084   2.329 -0.0317 -0.2547 -0.0038
 1043SOL    HW2 3525   2.438   6.151   2.242 -0.0068  0.0039  0.1655
 1044SOL     OW 3526   6.530   6.492   5.105  0.0351 -0.1319 -0.0461
 1044SOL    HW1 3527   6.580   6.432   5.160 -0.4678 -0.0742  0.4894
 1044SOL    HW2 3528   6.588   6.513   5.032  0.2847 -1.1396 -0.1515
 1045SOL     OW 3529   0.267   3.690   4.810 -0.0019  0.1185 -0.5297
 1045SOL    HW1 3530   0.260   3.721   4.719  0.2363  0.3433 -0.4724
 1045SOL    HW2 3531   0.361   3.675   4.823 -0.0486 -0.0242 -0.3553
 1046SOL     OW 3532   4.259   1.970   5.088  0.2459  0.0736  0.1870
 1046SOL    HW1 3533   4.199   2.030   5.044  1.5840 -0.0842 -1.9515
 1046SOL    HW2 3534   4.207   1.934   5.160 -1.3411  1.9658  0.0856
 1047SOL     OW 3535   2.962   0.367   5.013  0.0583  0.1719 -0.0180
 1047SOL    HW1 3536   2.954   0.411   5.098 -1.7637 -0.5918  0.2605
 1047SOL    HW2 3537   3.054   0.343   5.006  0.4354  1.1563  1.2669
 1048SOL     OW 3538   6.796   6.876   0.437 -0.0984 -0.2384 -0.0849
 1048SOL    HW1 3539   6.786   6.949   0.376  0.9388  0.1353  0.1857
 1048SOL    HW2 3540   6.874   6.897   0.488 -1.4892 -0.0776  2.0591
 1049SOL     OW 3541   2.970   0.978   2.757 -0.1176 -0.5937  0.0525
 1049SOL    HW1 3542   2.961   1.063   2.712  0.6207 -0.5588 -0.0371
 1049SOL    HW2 3543   2.914   0.919   2.706  0.7375 -0.5689 -0.9532
 1050SOL     OW 3544   6.687   6.502   4.219 -0.1510 -0.0678  0.4162
 1050SOL    HW1 3545   6.666   6.508   4.125 -0.1328 -0.3410  0.3952
 1050SOL    HW2 3546   6.769   6.551   4.228 -0.7132  0.8933  0.4736
 1051SOL     OW 3547   4.691   0.307   6.015  0.2676 -0.2586  0.5151
 1051SOL    HW1 3548   4.755   0.265   5.957  1.2694  1.2895  0.4643
 1051SOL    HW2 3549   4.743   0.353   6.080 -0.7490  1.5878  0.0848
 1052SOL     OW 3550   6.241   4.842   1.649  0.0302  0.0544  0.4142
 1052SOL    HW1 3551   6.186   4.775   1.691  0.0606  1.3191  2.6440
 1052SOL    HW2 3552   6.239   4.819   1.556 -1.4051 -1.9828  0.8556
 1053SOL     OW 3553   6.494   4.001   3.659 -0.3284  0.3222 -0.6154
 1053SOL    HW1 3554   6.510   4.094   3.672  0.3131  0.2364 -0.7231
 1053SOL    HW2 3555   6.406   3.996   3.623 -0.2706  0.9011 -0.8434
 1054SOL     OW 3556   0.363   3.003   1.957 -0.4510  0.5958  0.3321
 1054SOL    HW1 3557   0.320   3.088   1.954 -0.0133  0.8078 -1.0240
 1054SOL    HW2 3558   0.419   3.006   2.034  1.3297  2.4759 -0.9138
 1055SOL     OW 3559   3.894   6.045   4.283  0.3853 -0.0524  0.2097
 1055SOL    HW1 3560   3.906   6.140   4.279 -0.1960  0.2013  2.6375
 1055SOL    HW2 3561   3.827   6.033   4.351 -0.5172 -2.1594 -0.9754
 1056SOL     OW 3562   2.416   1.487   1.677 -0.5865 -0.8123 -0.0815
 1056SOL    HW1 3563   2.464   1.531   1.747  1.6804 -1.0725 -1.4028
 1056SOL    HW2 3564   2.433   1.539   1.599 -0.7824 -2.0578 -0.9904
 1057SOL     OW 3565   6.602   6.705   2.155 -0.1369  0.2217  0.1156
 1057SOL    HW1 3566   6.615   6.727   2.248 -0.6273 -0.3530  0.3257
 1057SOL    HW2 3567   6.566   6.785   2.117 -0.2906  0.3433  0.5079
 1058SOL     OW 3568   2.442   1.668   1.917  0.1978 -1.0455 -0.3383
 1058SOL    HW1 3569   2.347   1.676   1.921  0.3288  1.8573 -0.7444
 1058SOL    HW2 3570   2.471   1.688   2.006  0.4843  1.0093 -0.8432
 1059SOL     OW 3571   0.527   1.058   3.909 -0.2918  0.4602  0.1713
 1059SOL    HW1 3572   0.490   1.132   3.860  1.9105  2.1667  0.9135
 1059SOL    HW2 3573   0.479   1.057   3.991 -1.5420 -0.1183 -0.5320
 1060SOL     OW 3574   4.678   5.637   3.965 -0.3770 -0.4619  0.3863
 1060SOL    HW1 3575   4.772   5.637   3.978 -0.2674  0.3630 -0.2799
 1060SOL    HW2 3576   4.641   5.658   4.051 -0.0031 -1.5544  0.8287
 1061SOL     OW 3577   3.799   6.263   0.483  0.5343 -0.3655  0.3477
 1061SOL    HW1 3578   3.802   6.354   0.455  1.2947 -0.7633 -0.9840
 1061SOL    HW2 3579   3.720   6.228   0.442 -0.8166  0.1193  2.3973
 1062SOL     OW 3580   1.822   1.336   4.488 -0.0291 -0.4983 -0.0622
 1062SOL    HW1 3581   1.834   1.262   4.547 -0.3035  0.1911  0.8937
 1062SOL    HW2 3582   1.897   1.393   4.506 -0.9396  0.4842  0.8392
 1063SOL     OW 3583   1.633   0.340   3.969 -0.2675  0.7536 -0.4558
 1063SOL    HW1 3584   1.637   0.346   4.065 -1.8803 -2.0540 -0.1092
 1063SOL    HW2 3585   1.716   0.376   3.939  1.1705 -0.1682  2.1410
 1064SOL     OW 3586   0.971   5.667   1.441 -0.6492 -0.2261 -0.7809
 1064SOL    HW1 3587   0.966   5.638   1.532  0.8539 -1.0620 -0.9211
 1064SOL    HW2 3588   0.909   5.611   1.394 -1.2107  0.0088 -0.3262
 1065SOL     OW 3589   6.786   4.147   6.515  0.0051  0.5008 -0.6292
 1065SOL    HW1 3590   6.755   4.185   6.433  1.7176  1.1959 -0.9812
 1065SOL    HW2 3591   6.833   4.068   6.489  1.2574  1.1567 -0.4096
 1066SOL     OW 3592   0.756   2.812   2.958 -0.0263  0.7555 -0.3877
 1066SOL    HW1 3593   0.732   2.722   2.981 -1.8595  1.1932 -0.4647
 1066SOL    HW2 3594   0.799   2.805   2.873 -2.6538  0.1918 -1.7512
 1067SOL     OW 3595   0.308   4.661   0.388 -0.3468  0.7053 -0.4853
 1067SOL    HW1 3596   0.272   4.692   0.471 -0.5228  0.3402 -0.4240
 1067SOL    HW2 3597   0.389   4.615   0.413 -1.1559 -0.6948 -0.3519
 1068SOL     OW 3598   1.753   2.012   3.710  0.2515 -0.2768  0.2786
 1068SOL    HW1 3599   1.818   1.987   3.776  0.3658 -1.3055 -0.2082
 1068SOL    HW2 3600   1.800   2.011   3.627  0.1449  1.1737  0.1762
 1069SOL     OW 3601   6.043   4.798   4.397 -0.1857 -0.3920  0.2838
 1069SOL    HW1 3602   6.026   4.731   4.463 -0.7202 -0.7388 -0.1972
 1069SOL    HW2 3603   5.991   4.873   4.425 -0.6231 -0.6300  0.1189
 1070SOL     OW 3604   3.654   3.496   6.514 -0.0542  0.2120 -0.2281
 1070SOL    HW1 3605   3.741   3.457   6.506 -0.9227 -1.5853 -1.6831
 1070SOL    HW2 3606   3.643   3.545   6.432 -0.6974 -0.2373 -0.4174
 1071SOL     OW 3607   4.234   1.771   1.512 -0.4425  0.0843 -0.4688
 1071SOL    HW1 3608   4.143   1.789   1.488 -1.2294 -1.0545  1.4249
 1071SOL    HW2 3609   4.257   1.691   1.463 -1.3726 -1.1145  0.9895
 1072SOL     OW 3610   5.187   1.848   4.978 -0.2220 -0.0175  0.8260
 1072SOL    HW1 3611   5.096   1.875   4.971 -0.0118  0.3794 -0.6781
 1072SOL    HW2 3612   5.237   1.922   4.942  0.6109 -0.7623  0.4118
 1073SOL     OW 3613   6.289   5.903   5.777 -0.4849 -0.0414 -0.0978
 1073SOL    HW1 3614   6.244   5.915   5.693 -1.5013 -1.4936  0.1985
 1073SOL    HW2 3615   6.218   5.889   5.840  0.2582  1.2207  1.0549
 1074SOL     OW 3616   0.857   5.339   6.295  0.5486 -0.2610 -0.7743
 1074SOL    HW1 3617   0.877   5.423   6.254  0.9576  0.5833  1.0950
 1074SOL    HW2 3618   0.782   5.305   6.245  1.3745  0.4309 -2.5626
 1075SOL     OW 3619   1.774   0.185   4.617 -0.1072  0.1958 -0.1861
 1075SOL    HW1 3620   1.679   0.199   4.612 -0.1475 -0.4792 -2.0591
 1075SOL    HW2 3621   1.812   0.265   4.580 -0.0425 -0.3728 -1.4082
 1076SOL     OW 3622   2.129   3.203   1.508 -0.3328 -0.2846  0.0538
 1076SOL    HW1 3623   2.142   3.109   1.496 -0.1441 -0.1398 -0.9066
 1076SOL    HW2 3624   2.189   3.225   1.580  0.4733 -0.6925 -0.4712
 1077SOL     OW 3625   0.780   5.165   6.532 -0.2459 -0.1813 -0.0382
 1077SOL    HW1 3626   0.829   5.232   6.486 -0.9254  0.2056 -0.2165
 1077SOL    HW2 3627   0.766   5.201   6.620 -2.0086  0.6573 -0.6108
 1078SOL     OW 3628   0.642   6.524   0.971 -0.3444  0.0881 -0.0614
 1078SOL    HW1 3629   0.730   6.555   0.946  0.0892  1.3561  2.6062
 1078SOL    HW2 3630   0.646   6.429   0.959  1.4434  0.1026  0.0491
 1079SOL     OW 3631   3.882   1.259   3.647  0.2374 -0.1786 -0.4364
 1079SOL    HW1 3632   3.888   1.298   3.735 -1.8908  2.0041 -1.1306
 1079SOL    HW2 3633   3.972   1.257   3.616  0.7340  1.8903  0.6711
 1080SOL     OW 3634   3.091   1.728   1.705  0.7543 -0.2606  0.0148
 1080SOL    HW1 3635   3.080   1.644   1.660  1.6148 -0.1278 -0.4694
 1080SOL    HW2 3636   3.027   1.786   1.664  0.5060 -0.5343  0.0061
 1081SOL     OW 3637   6.038   3.005   0.159 -0.2060  0.2295 -0.1703
 1081SOL    HW1 3638   5.947   3.012   0.188  0.1653  1.4774  0.7910
 1081SOL    HW2 3639   6.048   2.914   0.133 -1.0700 -0.5568  2.0222
 1082SOL     OW 3640   2.640   0.625   1.766  0.6648 -0.0028  0.3196
 1082SOL    HW1 3641   2.577   0.565   1.805  0.6397 -0.0423  0.2197
 1082SOL    HW2 3642   2.644   0.699   1.826  0.6539 -0.0795  0.4145
 1083SOL     OW 3643   3.997   4.858   4.188 -0.7944 -0.3777  0.3320
 1083SOL    HW1 3644   3.970   4.782   4.240 -1.3670 -0.1659  0.3558
 1083SOL    HW2 3645   3.975   4.835   4.098 -0.1992 -0.5717  0.2323
 1084SOL     OW 3646   0.543   0.238   1.789  0.3373  0.4052 -0.1966
 1084SOL    HW1 3647   0.592   0.276   1.716 -0.5635  1.7868 -0.1333
 1084SOL    HW2 3648   0.451   0.249   1.763  0.0269 -1.7151 -0.1283
 1085SOL     OW 3649   2.140   5.367   1.718 -0.3601  0.0326  0.0302
 1085SOL    HW1 3650   2.122   5.392   1.627  0.0884  0.3068  0.0151
 1085SOL    HW2 3651   2.155   5.273   1.714 -0.6863 -0.0152 -0.1259
 1086SOL     OW 3652   2.051   6.660   1.890 -0.1546 -0.1405  0.1990
 1086SOL    HW1 3653   2.092   6.667   1.976 -1.9784 -0.6942  1.1738
 1086SOL    HW2 3654   2.075   6.573   1.859  0.5920  0.0987  0.0938
 1087SOL     OW 3655   1.525   2.648   5.614  0.2135 -0.4958 -0.1444
 1087SOL    HW1 3656   1.562   2.736   5.614  0.6332 -0.6609 -1.1512
 1087SOL    HW2 3657   1.490   2.636   5.525 -0.1503 -1.2147  0.0807
 1088SOL     OW 3658   5.998   5.533   0.221 -0.0646  0.5514 -0.0210
 1088SOL    HW1 3659   6.001   5.559   0.129  2.2817  1.9240  0.3513
 1088SOL    HW2 3660   5.921   5.577   0.256 -0.7749  0.3107 -1.2337
 1089SOL     OW 3661   1.307   4.734   0.974 -0.4128 -0.0885 -0.0076
 1089SOL    HW1 3662   1.380   4.796   0.964 -1.9780  1.7796 -0.3037
 1089SOL    HW2 3663   1.324   4.690   1.057 -0.3764  2.3533  1.3581
 1090SOL     OW 3664   1.071   1.631   1.356 -0.0747  0.0281 -0.0174
 1090SOL    HW1 3665   0.999   1.656   1.414 -0.0975 -0.4980  0.1918
 1090SOL    HW2 3666   1.141   1.602   1.415  0.5210  1.0421 -0.1972
 1091SOL     OW 3667   4.751   0.165   5.536 -0.5023 -0.8090  0.1260
 1091SOL    HW1 3668   4.811   0.224   5.491  0.3225 -2.2365 -0.7309
 1091SOL    HW2 3669   4.667   0.211   5.536  0.2144  0.5404 -0.0975
 1092SOL     OW 3670   0.547   4.184   5.828 -0.0160 -0.1561 -0.4676
 1092SOL    HW1 3671   0.476   4.138   5.872  0.3248  0.0990  0.3663
 1092SOL    HW2 3672   0.569   4.256   5.887  1.3752 -0.6138 -0.4119
 1093SOL     OW 3673   6.705   4.564   4.861 -0.4349 -0.5712 -0.3805
 1093SOL    HW1 3674   6.677   4.512   4.786  0.4741  0.0406 -1.1709
 1093SOL    HW2 3675   6.800   4.569   4.852 -0.3567 -0.1152  0.5741
 1094SOL     OW 3676   5.423   4.225   4.462 -0.3516 -0.2639  0.1146
 1094SOL    HW1 3677   5.499   4.270   4.425 -0.3330 -1.4368 -1.3908
 1094SOL    HW2 3678   5.458   4.174   4.535  0.1803 -0.2462 -0.1260
 1095SOL     OW 3679   2.054   5.504   0.828  0.6137  0.5955  0.6940
 1095SOL    HW1 3680   2.021   5.468   0.746  0.5524 -0.3660  1.1187
 1095SOL    HW2 3681   2.115   5.437   0.860 -0.7783  0.0455  2.3520
 1096SOL     OW 3682   3.296   3.175   4.483 -0.2630 -0.5164 -0.5818
 1096SOL    HW1 3683   3.387   3.188   4.457 -0.2344 -1.4838 -1.0288
 1096SOL    HW2 3684   3.252   3.144   4.404 -0.7378 -1.0834 -0.1118
 1097SOL     OW 3685   5.911   3.436   2.007 -0.4282  0.3550 -0.2934
 1097SOL    HW1 3686   5.881   3.422   2.097  0.7560  0.6836  0.1684
 1097SOL    HW2 3687   6.006   3.424   2.011 -0.3051  0.8102 -1.4150
 1098SOL     OW 3688   5.663   6.574   4.628 -0.2370 -0.3261 -0.1158
 1098SOL    HW1 3689   5.663   6.528   4.712  1.8209 -1.3512 -0.6136
 1098SOL    HW2 3690   5.755   6.580   4.604 -0.6148  1.9846 -1.2391
 1099SOL     OW 3691   4.765   3.741   5.356 -0.1546  0.5413  0.3290
 1099SOL    HW1 3692   4.859   3.751   5.336 -0.1633 -1.4959 -1.1363
 1099SOL    HW2 3693   4.752   3.790   5.437  1.9433  1.7694  0.0086
 1100SOL     OW 3694   1.010   1.476   1.881 -0.0778  0.3495 -0.6597
 1100SOL    HW1 3695   0.948   1.530   1.931  0.1182  1.0672 -1.1702
 1100SOL    HW2 3696   1.028   1.528   1.802  0.4003 -0.3079 -0.9903
 1101SOL     OW 3697   4.370   3.513   2.503 -0.4241 -0.0111  0.1435
 1101SOL    HW1 3698   4.443   3.453   2.487 -0.5449 -0.0048 -0.4295
 1101SOL    HW2 3699   4.394   3.593   2.455 -1.5091 -0.5274 -1.3086
 1102SOL     OW 3700   5.487   4.523   1.442 -0.0576  0.4115  0.3882
 1102SOL    HW1 3701   5.429   4.595   1.466  0.8017  1.1209  0.3853
 1102SOL    HW2 3702   5.495   4.531   1.347 -0.5437 -0.1511  0.2939
 1103SOL     OW 3703   2.007   6.372   0.486  0.1863  0.8607 -0.1065
 1103SOL    HW1 3704   1.980   6.412   0.568 -1.4419  0.1952 -0.2905
 1103SOL    HW2 3705   1.928   6.371   0.432  0.4639 -1.4099 -0.5665
 1104SOL     OW 3706   5.457   0.421   6.430  0.3814  0.0293 -0.1799
 1104SOL    HW1 3707   5.384   0.414   6.369 -0.8895  0.0156  1.2834
 1104SOL    HW2 3708   5.491   0.332   6.438  0.8616  0.1094 -1.1970
 1105SOL     OW 3709   0.120   6.591   2.656 -0.4375 -0.0129 -0.1376
 1105SOL    HW1 3710   0.151   6.653   2.722  0.5311 -1.7706  1.1426
 1105SOL    HW2 3711   0.112   6.643   2.576 -0.2017  1.8585  0.9946
 1106SOL     OW 3712   5.063   4.669   5.717  0.0126  0.4875  0.7045
 1106SOL    HW1 3713   5.143   4.635   5.757  0.8458  2.0637  0.4626
 1106SOL    HW2 3714   5.094   4.731   5.651 -1.4111  1.0129  0.4988
 1107SOL     OW 3715   6.736   4.877   6.834 -0.0518 -0.2635  0.0758
 1107SOL    HW1 3716   6.689   4.960   6.834 -0.3964 -0.4296  1.6396
 1107SOL    HW2 3717   6.824   4.899   6.863  0.1279 -0.3290 -0.3982
 1108SOL     OW 3718   1.563   4.801   3.001  0.3025  0.1366  0.1237
 1108SOL    HW1 3719   1.475   4.817   2.967  0.0585 -0.3336  0.5076
 1108SOL    HW2 3720   1.592   4.886   3.033  0.0169  0.3143 -0.0874
 1109SOL     OW 3721   1.001   6.809   2.508 -0.0113 -0.1481 -0.1442
 1109SOL    HW1 3722   1.012   6.821   2.414 -1.3382  1.3497 -0.1359
 1109SOL    HW2 3723   0.927   6.749   2.517 -0.0762 -0.0516 -0.0354
 1110SOL     OW 3724   4.586   0.449   6.481  0.0020  0.2217  0.0491
 1110SOL    HW1 3725   4.624   0.532   6.450  1.8361 -0.2059  1.0374
 1110SOL    HW2 3726   4.593   0.390   6.406 -1.6787  1.0044 -0.7957
 1111SOL     OW 3727   5.605   5.793   1.634 -0.1613 -0.2049  0.3466
 1111SOL    HW1 3728   5.631   5.803   1.726 -2.2424  0.0046  0.9674
 1111SOL    HW2 3729   5.605   5.698   1.620  0.5717 -0.2208  0.4359
 1112SOL     OW 3730   5.171   0.058   3.023 -0.1866  0.7079 -0.1912
 1112SOL    HW1 3731   5.078   0.054   3.046 -0.3084  1.6831 -0.4416
 1112SOL    HW2 3732   5.209  -0.020   3.062 -1.1785  0.1067 -0.3819
 1113SOL     OW 3733   3.703   6.602   5.142 -0.5738 -0.4463 -0.5076
 1113SOL    HW1 3734   3.632   6.587   5.080  0.4145 -0.4826 -1.6516
 1113SOL    HW2 3735   3.783   6.581   5.094  0.3695  1.4970  0.1219
 1114SOL     OW 3736   3.654   1.934   2.082 -0.1858 -0.1208 -0.3220
 1114SOL    HW1 3737   3.626   1.949   1.992  0.1907 -1.4437 -0.6690
 1114SOL    HW2 3738   3.666   1.839   2.089  0.8116  0.0606  0.8213
 1115SOL     OW 3739   2.270   1.963   4.141  0.0932 -0.4651  0.2693
 1115SOL    HW1 3740   2.334   1.991   4.076  0.5773  0.8209  1.2575
 1115SOL    HW2 3741   2.244   2.043   4.186  1.5600 -1.4967  3.2393
 1116SOL     OW 3742   1.288   1.551   4.214  0.6415  0.0865 -0.5204
 1116SOL    HW1 3743   1.294   1.496   4.292  1.9756  0.7355 -0.1314
 1116SOL    HW2 3744   1.211   1.519   4.167 -1.4406  0.9589  2.0648
 1117SOL     OW 3745   0.055   2.285   4.059 -0.4783  0.3141 -0.8519
 1117SOL    HW1 3746   0.083   2.198   4.030  0.6006  0.4067 -0.1173
 1117SOL    HW2 3747   0.020   2.326   3.980  0.1706 -0.3153 -1.4811
 1118SOL     OW 3748   6.768   2.834   2.374  0.1675 -0.0694  0.2698
 1118SOL    HW1 3749   6.813   2.900   2.427  0.3769 -0.0100  0.0245
 1118SOL    HW2 3750   6.702   2.884   2.326  0.3621 -0.0259  0.0434
 1119SOL     OW 3751   3.009   0.160   5.966 -0.2925 -0.2696  0.5452
 1119SOL    HW1 3752   2.940   0.227   5.970  1.2071  1.4066 -0.3273
 1119SOL    HW2 3753   3.082   0.197   6.016 -0.2189 -2.3547  2.1387
 1120SOL     OW 3754   5.437   6.269   6.391  0.5215  0.3987  0.3020
 1120SOL    HW1 3755   5.493   6.201   6.355  0.5919  0.9725 -0.7115
 1120SOL    HW2 3756   5.421   6.328   6.317 -0.6700  0.7304  0.8010
 1121SOL     OW 3757   4.153   2.895   1.801 -0.9045 -0.4551  0.4887
 1121SOL    HW1 3758   4.164   2.979   1.757 -0.0858 -0.9016 -0.1934
 1121SOL    HW2 3759   4.121   2.918   1.888 -0.6476  0.5652  0.3323
 1122SOL     OW 3760   6.024   1.728   2.981  0.0890 -0.4506 -0.6428
 1122SOL    HW1 3761   6.109   1.752   2.944  0.3620 -0.4043  0.0063
 1122SOL    HW2 3762   6.001   1.800   3.039 -0.1343 -0.7207 -0.3923
 1123SOL     OW 3763   1.191   2.462   0.038  0.3839 -0.0349  0.4535
 1123SOL    HW1 3764   1.143   2.404   0.097  2.5686 -1.3621  1.0720
 1123SOL    HW2 3765   1.166   2.433  -0.050 -0.2881 -0.3640  0.7489
 1124SOL     OW 3766   4.316   6.013   0.060 -0.8717  0.0549 -0.1655
 1124SOL    HW1 3767   4.389   6.006   0.121 -1.9632 -0.9481  1.0689
 1124SOL    HW2 3768   4.276   6.098   0.079 -0.9683 -0.0845  0.2579
 1125SOL     OW 3769   4.636   3.204   6.582  0.1090 -0.2697 -0.6412
 1125SOL    HW1 3770   4.660   3.285   6.628  1.5250 -0.1918 -1.4550
 1125SOL    HW2 3771   4.541   3.206   6.578  0.1069  1.2937 -0.5115
 1126SOL     OW 3772   6.496   1.150   2.565 -1.0211  0.2835 -1.0657
 1126SOL    HW1 3773   6.513   1.058   2.542  1.4808  0.4788 -0.2430
 1126SOL    HW2 3774   6.515   1.198   2.485  1.8842  0.4109 -0.3962
 1127SOL     OW 3775   3.274   1.603   1.468  0.0034  0.9301 -0.0885
 1127SOL    HW1 3776   3.293   1.697   1.464 -1.3877  1.2759  0.5849
 1127SOL    HW2 3777   3.303   1.577   1.556 -0.8491  1.0560  0.2442
 1128SOL     OW 3778   2.716   3.317   6.756  0.7089 -0.5805  0.1027
 1128SOL    HW1 3779   2.793   3.281   6.711  0.9732  0.2678 -0.1358
 1128SOL    HW2 3780   2.677   3.241   6.800  0.5251 -1.4070 -1.4191
 1129SOL     OW 3781   2.609   2.608   2.229 -0.0157  0.1534 -0.1668
 1129SOL    HW1 3782   2.655   2.536   2.271  2.1602  2.3653  1.5362
 1129SOL    HW2 3783   2.667   2.638   2.159  0.4454  1.9270  0.9168
 1130SOL     OW 3784   3.850   5.428   1.445  0.0158  0.1485 -0.2179
 1130SOL    HW1 3785   3.908   5.470   1.381  0.4964 -2.6724 -1.8006
 1130SOL    HW2 3786   3.882   5.338   1.451 -2.3386 -0.6861  1.2088
 1131SOL     OW 3787   0.346   3.695   6.521 -0.3346 -0.1625 -0.3759
 1131SOL    HW1 3788   0.393   3.773   6.551  0.1664 -0.1495 -1.1843
 1131SOL    HW2 3789   0.360   3.631   6.591  0.0933  0.1489 -0.1739
 1132SOL     OW 3790   3.561   2.122   0.075  0.0092 -0.5180 -0.1232
 1132SOL    HW1 3791   3.501   2.188   0.041 -0.3113 -0.3526  0.7327
 1132SOL    HW2 3792   3.521   2.092   0.157  0.5135 -1.2525 -0.1318
 1133SOL     OW 3793   3.354   1.799   0.061  0.4467  0.0215 -0.3907
 1133SOL    HW1 3794   3.275   1.845   0.090 -1.7852 -3.4636 -0.2546
 1133SOL    HW2 3795   3.383   1.750   0.139  3.0830  1.4743 -0.3354
 1134SOL     OW 3796   2.377   2.228   4.484  0.3611  0.0531  0.2238
 1134SOL    HW1 3797   2.427   2.231   4.403 -0.8878  0.1297 -0.5769
 1134SOL    HW2 3798   2.353   2.319   4.501  0.8246  0.0709  0.8268
 1135SOL     OW 3799   2.109   5.230   6.743  0.6431  0.5291 -0.1979
 1135SOL    HW1 3800   2.103   5.311   6.793 -1.6919 -0.0751  0.6180
 1135SOL    HW2 3801   2.153   5.169   6.802 -1.3280  0.0705  0.8967
 1136SOL     OW 3802   6.518   0.260   0.430  0.0464 -0.2769  0.2941
 1136SOL    HW1 3803   6.506   0.195   0.501  0.4773  0.1529  0.7648
 1136SOL    HW2 3804   6.576   0.217   0.368 -1.3670 -1.1719 -0.4633
 1137SOL     OW 3805   6.806   2.691   1.729  0.5687  0.0504  0.6068
 1137SOL    HW1 3806   6.732   2.724   1.679  1.5262 -0.6400 -1.3579
 1137SOL    HW2 3807   6.854   2.769   1.757  1.7446  0.4921 -2.3205
 1138SOL     OW 3808   1.616   3.013   0.849 -0.1474  0.2864 -0.1146
 1138SOL    HW1 3809   1.532   3.007   0.896 -1.4350  1.7021 -2.0985
 1138SOL    HW2 3810   1.593   3.050   0.764  2.4436  0.1104 -0.9567
 1139SOL     OW 3811   5.873   4.843   0.969 -0.3695  0.7147 -0.2734
 1139SOL    HW1 3812   5.842   4.919   1.019  0.6807 -0.3788  2.2428
 1139SOL    HW2 3813   5.916   4.788   1.035  2.1417 -0.3368 -2.6044
 1140SOL     OW 3814   6.059   4.786   5.037 -0.0282 -0.4172  0.1138
 1140SOL    HW1 3815   6.083   4.700   5.004 -1.4356 -0.7068 -0.2550
 1140SOL    HW2 3816   6.084   4.847   4.967 -0.6223 -0.7399 -0.3896
 1141SOL     OW 3817   2.473   5.335   5.015 -0.4786  0.0602 -0.3135
 1141SOL    HW1 3818   2.568   5.332   5.030 -0.5608 -0.5129  0.1442
 1141SOL    HW2 3819   2.456   5.262   4.955 -0.6747 -0.0553 -0.1184
 1142SOL     OW 3820   1.805   5.998   0.036 -0.5381 -0.4725 -0.3375
 1142SOL    HW1 3821   1.795   6.002   0.131 -1.7657  0.3105 -0.4743
 1142SOL    HW2 3822   1.881   5.942   0.022 -0.0706 -0.2391  1.1175
 1143SOL     OW 3823   6.904   6.833   4.802  0.0275 -0.6669  0.4764
 1143SOL    HW1 3824   6.873   6.891   4.733  1.7524 -1.6760 -1.2607
 1143SOL    HW2 3825   6.925   6.751   4.757  2.1795 -1.0517  1.9985
 1144SOL     OW 3826   2.923   2.260   4.215  0.3432 -0.8072  0.9869
 1144SOL    HW1 3827   2.946   2.334   4.272 -0.4347 -0.3072  0.6662
 1144SOL    HW2 3828   2.961   2.283   4.131  1.5154 -1.5592  1.2892
 1145SOL     OW 3829   0.834   4.203   1.691 -0.2209 -0.2217  0.4115
 1145SOL    HW1 3830   0.853   4.110   1.682  1.3651  0.0292  0.8991
 1145SOL    HW2 3831   0.780   4.209   1.770  0.3887 -0.6498  0.8643
 1146SOL     OW 3832   0.892   1.803   2.805  0.2737 -0.5886  0.0350
 1146SOL    HW1 3833   0.927   1.832   2.720  0.9595 -0.2508  0.4276
 1146SOL    HW2 3834   0.811   1.853   2.816 -0.0645 -0.9736 -0.6311
 1147SOL     OW 3835   6.534   4.010   6.105 -0.0691 -0.3041  0.5165
 1147SOL    HW1 3836   6.479   4.077   6.145  1.3822  2.3527 -1.6423
 1147SOL    HW2 3837   6.498   3.997   6.018 -0.1809 -2.2283  0.8090
 1148SOL     OW 3838   6.691   2.909   1.088  0.3860  0.1924  0.0556
 1148SOL    HW1 3839   6.681   2.991   1.136  0.9827  0.7161 -0.6670
 1148SOL    HW2 3840   6.767   2.925   1.031  1.0484 -1.1664  0.5241
 1149SOL     OW 3841   0.554   6.448   2.627  0.4120  0.0202 -0.6741
 1149SOL    HW1 3842   0.547   6.387   2.701 -0.3102  0.9918  0.0765
 1149SOL    HW2 3843   0.557   6.534   2.667 -2.8797  0.7975 -1.8409
 1150SOL     OW 3844   4.653   5.173   5.324 -0.8770  0.3557  0.0674
 1150SOL    HW1 3845   4.581   5.133   5.276 -0.1472  0.4684 -1.1518
 1150SOL    HW2 3846   4.657   5.263   5.292 -1.7649  1.1196  1.9473
 1151SOL     OW 3847   5.978   3.393   6.508 -0.0622 -0.3838 -0.7459
 1151SOL    HW1 3848   5.946   3.326   6.569  1.1714  0.3949  0.8296
 1151SOL    HW2 3849   5.929   3.472   6.531  0.4233 -0.0824 -0.7238
 1152SOL     OW 3850   5.720   4.906   3.437  0.1135 -0.1179 -0.5555
 1152SOL    HW1 3851   5.799   4.931   3.485 -0.8797  1.4619  0.3146
 1152SOL    HW2 3852   5.648   4.933   3.493 -1.0710 -0.2112 -1.9840
 1153SOL     OW 3853   4.230   3.897   5.303  0.3453  0.6691 -0.2664
 1153SOL    HW1 3854   4.316   3.865   5.277  0.0842 -0.3176  0.0363
 1153SOL    HW2 3855   4.248   3.958   5.374  0.7493 -0.4338  0.6235
 1154SOL     OW 3856   2.812   3.210   5.804  0.5849 -0.2535 -0.1165
 1154SOL    HW1 3857   2.784   3.127   5.843 -0.1298 -0.1144 -0.3247
 1154SOL    HW2 3858   2.768   3.213   5.719  0.2584  0.5355  0.0672
 1155SOL     OW 3859   4.084   4.396   4.496  0.0699 -0.1546 -0.5063
 1155SOL    HW1 3860   4.094   4.307   4.463  3.5750 -0.4748  0.9872
 1155SOL    HW2 3861   4.159   4.444   4.459 -0.8828  1.7911 -0.0720
 1156SOL     OW 3862   5.033   5.728   2.229 -0.0482  0.2732 -0.1071
 1156SOL    HW1 3863   5.033   5.634   2.247 -0.5244  0.3669  0.4037
 1156SOL    HW2 3864   5.126   5.751   2.219  0.1009 -0.1493  0.2951
 1157SOL     OW 3865   3.084   3.633   1.243  1.0295 -0.2523 -0.1347
 1157SOL    HW1 3866   3.177   3.616   1.257  1.2122 -0.2893 -1.3084
 1157SOL    HW2 3867   3.049   3.551   1.209 -0.0979 -1.2243  2.9974
 1158SOL     OW 3868   0.645   6.073   2.720  0.4817 -0.1044  0.0933
 1158SOL    HW1 3869   0.637   6.021   2.800  0.5804 -1.6842 -0.8764
 1158SOL    HW2 3870   0.665   6.009   2.652  0.9252  1.2618 -1.1167
 1159SOL     OW 3871   1.553   6.511   5.587 -0.4922 -0.1744  0.4829
 1159SOL    HW1 3872   1.598   6.478   5.509 -0.8110 -1.1682  0.7137
 1159SOL    HW2 3873   1.495   6.580   5.553  0.5837  0.5609  0.0803
 1160SOL     OW 3874   0.085   1.067   0.179 -0.1150 -0.0730  0.2385
 1160SOL    HW1 3875   0.052   1.044   0.265  1.5352 -1.9498  0.4557
 1160SOL    HW2 3876   0.135   0.990   0.151 -0.0169  0.7489 -2.0937
 1161SOL     OW 3877   1.189   5.175   1.080  0.0961  0.0566  0.5435
 1161SOL    HW1 3878   1.275   5.156   1.117  0.2693  2.9177  1.8575
 1161SOL    HW2 3879   1.133   5.104   1.111  1.5865 -0.8703  1.1901
 1162SOL     OW 3880   5.306   4.795   6.875  0.5350 -0.0614  0.4801
 1162SOL    HW1 3881   5.217   4.829   6.872  0.3230 -0.5783  0.7781
 1162SOL    HW2 3882   5.333   4.807   6.966  0.4024 -0.8163  0.6244
 1163SOL     OW 3883   4.427   3.213   0.382 -0.3621 -0.2588  0.5071
 1163SOL    HW1 3884   4.393   3.224   0.471 -0.3333  2.1092  0.2879
 1163SOL    HW2 3885   4.349   3.221   0.326 -0.1344  0.0817  0.2387
 1164SOL     OW 3886   0.442   2.564   6.079  0.2607 -0.7930 -0.2919
 1164SOL    HW1 3887   0.449   2.509   6.157  0.5122 -0.8556 -0.3563
 1164SOL    HW2 3888   0.349   2.565   6.059 -0.0026  0.4627  0.8829
 1165SOL     OW 3889   6.280   1.726   5.352 -0.0236 -1.2479  0.1470
 1165SOL    HW1 3890   6.300   1.681   5.434 -0.1798 -1.2919  0.1616
 1165SOL    HW2 3891   6.289   1.819   5.373  0.4897 -1.2747  0.0673
 1166SOL     OW 3892   2.341   6.931   3.315  0.0657  0.4656 -0.9712
 1166SOL    HW1 3893   2.374   6.892   3.396 -1.4902  2.4943  0.7410
 1166SOL    HW2 3894   2.358   6.865   3.248  2.2873 -0.8888  0.8069
 1167SOL     OW 3895   0.731   0.588   1.384 -0.7722 -0.1573 -0.6490
 1167SOL    HW1 3896   0.793   0.543   1.326  2.8462  0.7818  2.1350
 1167SOL    HW2 3897   0.774   0.670   1.406 -1.9110 -0.3875  3.2085
 1168SOL     OW 3898   2.318   0.438   3.888 -0.2772  0.0368  0.3194
 1168SOL    HW1 3899   2.316   0.529   3.856  0.0554 -0.4286 -1.1190
 1168SOL    HW2 3900   2.247   0.395   3.840 -0.6242 -0.3986  1.2204
 1169SOL     OW 3901   0.319   1.010   6.835  0.0167  0.1771  0.1153
 1169SOL    HW1 3902   0.350   1.020   6.745 -0.6651  2.3580  0.0701
 1169SOL    HW2 3903   0.274   0.925   6.835  0.3675 -0.0436 -1.4882
 1170SOL     OW 3904   5.899   2.579   5.101  0.6312  0.4609 -0.1397
 1170SOL    HW1 3905   5.809   2.598   5.125 -0.1939 -1.1516 -1.7227
 1170SOL    HW2 3906   5.948   2.589   5.183 -0.9411  1.4467  0.7310
 1171SOL     OW 3907   0.114   1.202   1.163  0.4626 -0.3173  0.1972
 1171SOL    HW1 3908   0.148   1.114   1.145  2.1876  0.1070  1.1091
 1171SOL    HW2 3909   0.167   1.260   1.108  1.7261  0.4238  2.0985
 1172SOL     OW 3910   2.282   0.610   6.427  0.4409  0.4077  0.8688
 1172SOL    HW1 3911   2.369   0.612   6.387 -0.4072  3.0484 -1.1555
 1172SOL    HW2 3912   2.292   0.660   6.508  0.5320  2.2728 -0.2300
 1173SOL     OW 3913   6.173   4.362   6.308  0.0588  0.1885  0.0154
 1173SOL    HW1 3914   6.238   4.294   6.326 -0.6949 -0.9372 -1.3147
 1173SOL    HW2 3915   6.089   4.321   6.328 -0.3434  1.0860  0.1986
 1174SOL     OW 3916   5.509   1.580   4.880  0.3974  0.2172  0.0630
 1174SOL    HW1 3917   5.589   1.603   4.927  0.1376 -0.6098  0.9435
 1174SOL    HW2 3918   5.439   1.598   4.942  0.0870 -1.5021  0.2651
 1175SOL     OW 3919   4.603   4.175   0.709 -0.7542 -0.2665 -0.3620
 1175SOL    HW1 3920   4.667   4.103   0.714 -2.0776 -1.3933  1.2433
 1175SOL    HW2 3921   4.527   4.136   0.666 -1.5232  0.1231  0.6163
 1176SOL     OW 3922   0.491   3.064   6.733 -0.2285  0.2730 -0.2994
 1176SOL    HW1 3923   0.440   3.139   6.699  0.4510  0.0324 -1.9389
 1176SOL    HW2 3924   0.455   3.049   6.821 -1.8128  1.1980 -0.7359
 1177SOL     OW 3925   5.940   3.912   4.406  0.0302 -0.0710 -0.1676
 1177SOL    HW1 3926   5.903   3.846   4.464 -0.6403  0.4315 -0.0214
 1177SOL    HW2 3927   5.964   3.985   4.464 -0.9967  0.5912 -0.5477
 1178SOL     OW 3928   3.039   3.071   2.724  0.1576 -0.1696  0.4384
 1178SOL    HW1 3929   3.062   3.164   2.714  1.9173 -0.6966 -0.7559
 1178SOL    HW2 3930   3.123   3.027   2.735 -0.4833 -1.8656 -1.0805
 1179SOL     OW 3931   6.327   4.791   1.151 -0.3633  0.5997  0.1910
 1179SOL    HW1 3932   6.318   4.771   1.058 -0.2776  1.2736  0.0341
 1179SOL    HW2 3933   6.323   4.886   1.156 -0.0869  0.5833  0.8482
 1180SOL     OW 3934   5.418   2.957   5.457  0.0298  0.1911 -0.8103
 1180SOL    HW1 3935   5.508   2.926   5.442 -0.1594 -0.6324 -0.3456
 1180SOL    HW2 3936   5.380   2.891   5.515 -0.1674  1.7046  0.8531
 1181SOL     OW 3937   3.673   2.352   0.917  0.0420  0.1342  0.0524
 1181SOL    HW1 3938   3.717   2.312   0.992 -1.5658  1.2506  1.7011
 1181SOL    HW2 3939   3.706   2.442   0.914 -0.0405  0.1509 -0.4720
 1182SOL     OW 3940   1.298   2.130   3.316  0.0308 -0.0200  0.0648
 1182SOL    HW1 3941   1.290   2.062   3.383 -0.4150 -1.5783 -1.4981
 1182SOL    HW2 3942   1.270   2.210   3.360 -1.6953 -1.2442  1.3317
 1183SOL     OW 3943   4.471   2.412   3.126  0.1823  0.3742 -0.0921
 1183SOL    HW1 3944   4.384   2.377   3.141  1.0070 -0.6845  2.7200
 1183SOL    HW2 3945   4.470   2.499   3.166  0.0442  1.0009 -1.3805
 1184SOL     OW 3946   6.164   2.714   4.322 -0.0404 -0.3411  0.0954
 1184SOL    HW1 3947   6.162   2.621   4.346  0.8204 -0.6317 -0.9064
 1184SOL    HW2 3948   6.108   2.719   4.245 -0.3345  0.0377  0.3301
 1185SOL     OW 3949   0.759   1.604   3.218  0.0852 -0.0218  0.3100
 1185SOL    HW1 3950   0.686   1.648   3.174  0.9732  0.1608 -1.0369
 1185SOL    HW2 3951   0.837   1.636   3.174  0.8200 -2.5817 -0.4279
 1186SOL     OW 3952   2.697   3.034   0.546 -0.6964 -0.6154  0.0556
 1186SOL    HW1 3953   2.715   2.946   0.510 -2.9704 -0.5836 -1.3335
 1186SOL    HW2 3954   2.708   3.092   0.471 -0.5272  0.1297  0.6546
 1187SOL     OW 3955   2.930   0.886   3.819  0.2209 -0.0838  0.0267
 1187SOL    HW1 3956   3.009   0.832   3.821 -0.0048 -0.4837 -1.1112
 1187SOL    HW2 3957   2.879   0.851   3.746 -0.7486  0.5372  0.3938
 1188SOL     OW 3958   3.615   6.503   0.671 -0.2651  0.3070  0.6530
 1188SOL    HW1 3959   3.645   6.500   0.580 -1.2092 -1.2988  0.3676
 1188SOL    HW2 3960   3.527   6.467   0.668 -0.6291  1.0129  2.1048
 1189SOL     OW 3961   3.803   5.568   0.384 -0.4214  0.2600 -0.5349
 1189SOL    HW1 3962   3.735   5.576   0.317 -0.6602  3.2894 -0.0993
 1189SOL    HW2 3963   3.762   5.603   0.463  0.4010 -1.6557  0.7961
 1190SOL     OW 3964   4.693   6.909   4.888  0.4949 -0.2114 -0.0261
 1190SOL    HW1 3965   4.703   6.874   4.977 -0.2122  1.0775  0.5845
 1190SOL    HW2 3966   4.621   6.858   4.850 -0.5266  0.5210  0.8591
 1191SOL     OW 3967   4.948   4.033   2.443 -0.2378 -0.9695  0.2829
 1191SOL    HW1 3968   5.002   3.955   2.430 -0.5196 -1.3544  1.3184
 1191SOL    HW2 3969   4.892   4.037   2.365 -1.5193 -2.8945  1.0243
 1192SOL     OW 3970   3.630   5.322   2.211 -0.0895  0.3010  0.7313
 1192SOL    HW1 3971   3.607   5.355   2.125  0.0089  1.7491  1.2377
 1192SOL    HW2 3972   3.550   5.280   2.243 -0.0703 -0.4075 -0.1207
 1193SOL     OW 3973   0.896   3.318   1.427  0.0877 -0.1189 -0.1817
 1193SOL    HW1 3974   0.891   3.403   1.473 -0.1285 -0.1852 -0.0791
 1193SOL    HW2 3975   0.825   3.322   1.363 -2.8419 -1.8664  2.6251
 1194SOL     OW 3976   5.177   5.470   3.519  0.1788  0.5633 -0.5545
 1194SOL    HW1 3977   5.262   5.498   3.551  1.5782 -1.6184 -2.0550
 1194SOL    HW2 3978   5.170   5.379   3.547 -1.1153  0.3539 -1.4536
 1195SOL     OW 3979   5.025   4.355   2.301  0.0857 -0.2759 -0.4385
 1195SOL    HW1 3980   4.997   4.287   2.239 -0.2450 -0.6021  0.0650
 1195SOL    HW2 3981   4.979   4.434   2.273 -0.1432 -0.4464 -0.5501
 1196SOL     OW 3982   1.065   6.748   2.240  0.2589  0.0829 -0.1549
 1196SOL    HW1 3983   1.098   6.661   2.263 -0.0945  0.1845  0.7941
 1196SOL    HW2 3984   1.137   6.790   2.192  0.1127 -1.0418 -1.4132
 1197SOL     OW 3985   5.115   5.808   3.253  0.2394 -0.1083 -0.6324
 1197SOL    HW1 3986   5.057   5.757   3.310  2.1333 -2.5343 -0.7531
 1197SOL    HW2 3987   5.100   5.772   3.165  0.8857  0.2294 -0.8863
 1198SOL     OW 3988   5.022   2.274   1.074  0.2458 -0.1325  0.4485
 1198SOL    HW1 3989   5.042   2.349   1.019  0.5916 -1.0781 -0.7500
 1198SOL    HW2 3990   5.059   2.297   1.160  0.4116  1.0114  0.0858
 1199SOL     OW 3991   4.349   5.946   5.785  0.4115 -0.3074 -0.1064
 1199SOL    HW1 3992   4.435   5.934   5.743  0.3337 -0.5819 -0.1877
 1199SOL    HW2 3993   4.345   5.877   5.851  0.6269  0.2632  0.5099
 1200SOL     OW 3994   2.199   6.294   6.316 -0.4590  0.2891  0.7026
 1200SOL    HW1 3995   2.117   6.250   6.339 -0.9109  0.8380  0.1588
 1200SOL    HW2 3996   2.222   6.344   6.394 -0.6354  0.1252  0.8611
 1201SOL     OW 3997   0.939   4.865   4.575  0.4341 -0.1435  0.5221
 1201SOL    HW1 3998   0.957   4.851   4.481  0.7070  1.2317  0.3468
 1201SOL    HW2 3999   0.885   4.944   4.577  0.3841 -0.1970  1.5352
 1202SOL     OW 4000   5.852   5.090   5.684 -0.5453 -0.4497 -0.4449
 1202SOL    HW1 4001   5.882   5.161   5.741  1.7317 -1.4790 -0.2457
 1202SOL    HW2 4002   5.782   5.047   5.733 -0.2744  0.1720  0.5070
 1203SOL     OW 4003   4.275   6.185   3.562  0.0131  0.1412  0.2726
 1203SOL    HW1 4004   4.225   6.237   3.499  1.2033  1.3675  0.2970
 1203SOL    HW2 4005   4.220   6.108   3.578 -0.1922 -0.3944 -2.5033
 1204SOL     OW 4006   5.762   0.149   0.321  0.2575  0.3522  0.7085
 1204SOL    HW1 4007   5.713   0.069   0.342 -0.3509  0.2998 -0.7400
 1204SOL    HW2 4008   5.809   0.171   0.401 -0.8094 -0.5707  1.6226
 1205SOL     OW 4009   2.463   3.605   3.512 -0.4173 -0.4801  0.4435
 1205SOL    HW1 4010   2.405   3.644   3.446 -1.4856 -1.9807  0.4339
 1205SOL    HW2 4011   2.419   3.624   3.595  0.0348 -0.0874  0.6007
 1206SOL     OW 4012   6.690   5.639   1.408 -0.0686 -0.0542  0.3875
 1206SOL    HW1 4013   6.706   5.546   1.420  1.1452  0.2996  1.8094
 1206SOL    HW2 4014   6.777   5.679   1.407 -0.4478  0.9048 -2.1881
 1207SOL     OW 4015   4.611   5.572   6.848  0.2997 -0.1926  0.2067
 1207SOL    HW1 4016   4.573   5.612   6.927 -0.2216 -0.7595  0.2501
 1207SOL    HW2 4017   4.654   5.645   6.803 -1.4441  0.6535 -0.2053
 1208SOL     OW 4018   1.001   0.824   2.395  0.1941  0.0243  0.8639
 1208SOL    HW1 4019   1.070   0.767   2.362  0.2471 -0.4643  1.7685
 1208SOL    HW2 4020   1.041   0.870   2.469 -0.4472 -0.3090  1.4395
 1209SOL     OW 4021   2.590   1.519   6.127 -0.4401 -0.0521 -0.1075
 1209SOL    HW1 4022   2.571   1.515   6.033 -1.7887  0.1434  0.1282
 1209SOL    HW2 4023   2.618   1.610   6.142  1.1722 -0.4498 -0.5337
 1210SOL     OW 4024   4.491   0.157   3.972 -0.1603  0.3780 -0.9596
 1210SOL    HW1 4025   4.460   0.244   3.997  0.1669  0.1834  0.1595
 1210SOL    HW2 4026   4.577   0.149   4.013 -0.0095 -0.3192 -1.3955
 1211SOL     OW 4027   5.811   0.554   6.443 -0.2597 -0.0245  0.1083
 1211SOL    HW1 4028   5.777   0.558   6.354  1.7151  1.0968 -0.6563
 1211SOL    HW2 4029   5.904   0.533   6.433 -0.0696 -0.2725  1.9305
 1212SOL     OW 4030   3.367   3.706   0.931  0.5037  0.9866  0.3034
 1212SOL    HW1 4031   3.381   3.764   0.856 -1.8837  0.7593 -0.3774
 1212SOL    HW2 4032   3.317   3.759   0.993 -2.9593 -0.5793 -0.9000
 1213SOL     OW 4033   4.006   0.957   4.243 -0.0873 -0.5734 -0.0084
 1213SOL    HW1 4034   4.059   1.022   4.197 -0.2950 -1.3151 -1.3399
 1213SOL    HW2 4035   4.070   0.902   4.289  0.0423  1.3054  2.2454
 1214SOL     OW 4036   1.716   4.323   2.728  0.0087 -0.1635 -0.6738
 1214SOL    HW1 4037   1.666   4.318   2.646 -0.0071  1.0565 -0.7578
 1214SOL    HW2 4038   1.668   4.387   2.781  0.9546  0.3303 -0.3848
 1215SOL     OW 4039   1.474   3.540   6.054  0.0491  0.0112 -0.1030
 1215SOL    HW1 4040   1.403   3.478   6.070  0.2172 -0.0090  0.6139
 1215SOL    HW2 4041   1.536   3.493   5.998 -0.5602  0.0749 -0.8451
 1216SOL     OW 4042   1.234   2.343   4.961 -0.3587 -0.4317 -0.7927
 1216SOL    HW1 4043   1.309   2.390   4.997 -0.4312  0.6617 -2.0054
 1216SOL    HW2 4044   1.174   2.332   5.035  0.4052 -0.1420 -0.1174
 1217SOL     OW 4045   3.259   3.726   2.399 -0.3644  0.0190 -0.1092
 1217SOL    HW1 4046   3.222   3.748   2.484  0.3986  0.4324  0.1187
 1217SOL    HW2 4047   3.183   3.705   2.345 -0.7916 -1.5559  1.0333
 1218SOL     OW 4048   2.253   6.449   6.523 -0.6880 -0.0662  0.3224
 1218SOL    HW1 4049   2.269   6.434   6.616 -0.5788 -1.0888  0.1614
 1218SOL    HW2 4050   2.296   6.532   6.504 -1.4313  0.5737  1.3620
 1219SOL     OW 4051   3.798   6.003   4.942  0.1002  0.2872  0.5798
 1219SOL    HW1 4052   3.855   6.026   4.869 -1.0452  0.9009 -0.1517
 1219SOL    HW2 4053   3.712   6.039   4.918 -0.5703 -0.4872  1.6998
 1220SOL     OW 4054   6.562   4.325   2.476 -0.3435  0.3166  0.0590
 1220SOL    HW1 4055   6.552   4.342   2.382  0.6440 -0.0627 -0.1314
 1220SOL    HW2 4056   6.650   4.287   2.484 -0.9374 -0.9382  0.9636
 1221SOL     OW 4057   5.588   3.811   6.922  0.0584 -0.0590 -0.0057
 1221SOL    HW1 4058   5.503   3.772   6.903 -0.3477  1.0452 -0.5361
 1221SOL    HW2 4059   5.585   3.898   6.881  2.2757 -0.8169 -2.0796
 1222SOL     OW 4060   2.534   4.761   0.076  0.0589  0.2813 -0.2890
 1222SOL    HW1 4061   2.463   4.747   0.138  0.8876 -0.5469  0.5143
 1222SOL    HW2 4062   2.492   4.763  -0.010 -1.0235  0.7087  0.2311
 1223SOL     OW 4063   1.368   0.986   5.250 -0.3934  0.2531 -0.3820
 1223SOL    HW1 4064   1.325   1.029   5.324 -0.8437  1.4991 -1.3282
 1223SOL    HW2 4065   1.441   1.043   5.228  0.2925 -0.5879 -0.3402
 1224SOL     OW 4066   1.400   2.922   0.996  0.1359  0.1318  0.8510
 1224SOL    HW1 4067   1.305   2.911   0.989 -0.3170  2.3382  2.4174
 1224SOL    HW2 4068   1.425   2.870   1.072 -0.0593  0.5777  1.2270
 1225SOL     OW 4069   6.859   6.119   0.765 -0.0800 -0.3403 -0.2979
 1225SOL    HW1 4070   6.917   6.055   0.722 -0.2067 -1.1357  0.6813
 1225SOL    HW2 4071   6.918   6.182   0.806  0.0486  0.0764 -1.0965
 1226SOL     OW 4072   0.129   1.988   0.844 -0.7845 -0.0770 -0.1780
 1226SOL    HW1 4073   0.097   1.977   0.934  1.9272  2.1432  1.2191
 1226SOL    HW2 4074   0.180   1.908   0.826 -0.2935  0.0049  0.7892
 1227SOL     OW 4075   3.209   4.083   4.980  0.4276 -0.2013  0.2795
 1227SOL    HW1 4076   3.246   3.995   4.985  1.2377 -0.0348 -1.6843
 1227SOL    HW2 4077   3.161   4.094   5.062  0.9793 -2.1533  0.9192
 1228SOL     OW 4078   1.937   2.382   3.696 -0.1481  0.2283  0.0313
 1228SOL    HW1 4079   1.989   2.302   3.687 -1.0931 -0.2387 -1.8633
 1228SOL    HW2 4080   1.884   2.368   3.774 -0.5354 -1.1452 -0.4576
 1229SOL     OW 4081   5.712   2.378   0.590  0.4097  0.6357  0.1011
 1229SOL    HW1 4082   5.669   2.423   0.517 -0.2760  0.7691  0.5854
 1229SOL    HW2 4083   5.641   2.348   0.646  0.9440  1.4213  1.2486
 1230SOL     OW 4084   0.427   6.079   1.973  0.1943  0.3431 -0.1129
 1230SOL    HW1 4085   0.480   6.159   1.968 -0.0793  0.7268  1.9794
 1230SOL    HW2 4086   0.407   6.070   2.067 -1.4703 -1.0846 -0.5583
 1231SOL     OW 4087   5.841   6.878   4.836 -0.2996 -0.2503 -0.2139
 1231SOL    HW1 4088   5.873   6.809   4.894 -2.3611 -0.7093  0.4350
 1231SOL    HW2 4089   5.761   6.910   4.877 -0.1710  1.5399 -1.2579
 1232SOL     OW 4090   4.613   1.452   4.899  0.1600 -0.2178  0.0078
 1232SOL    HW1 4091   4.644   1.390   4.965 -1.0484 -1.3323 -0.4243
 1232SOL    HW2 4092   4.567   1.397   4.835  0.9771  0.8808 -1.5744
 1233SOL     OW 4093   5.758   5.784   1.235 -0.3973  0.0920  0.3049
 1233SOL    HW1 4094   5.831   5.731   1.205 -1.7020 -1.7880  0.2289
 1233SOL    HW2 4095   5.792   5.832   1.310  1.2573  0.3272 -0.5576
 1234SOL     OW 4096   4.740   2.926   6.891  0.4746 -0.2103 -0.6356
 1234SOL    HW1 4097   4.788   2.937   6.974  0.2831  1.5003 -0.7190
 1234SOL    HW2 4098   4.668   2.989   6.897  0.6793  0.2086 -2.2582
 1235SOL     OW 4099   3.309   2.440   0.833  0.0011  0.2332  0.7456
 1235SOL    HW1 4100   3.256   2.479   0.762 -0.9237  0.6301  1.6229
 1235SOL    HW2 4101   3.395   2.480   0.823 -0.2846  0.7330  0.1950
 1236SOL     OW 4102   2.899   6.184   1.938  0.1934 -0.3943  0.1555
 1236SOL    HW1 4103   2.972   6.217   1.886 -0.0736  0.1033  0.0902
 1236SOL    HW2 4104   2.821   6.203   1.886 -0.0901  0.2649  0.8023
 1237SOL     OW 4105   2.103   1.172   4.450  0.0866 -0.6359 -0.1650
 1237SOL    HW1 4106   2.191   1.143   4.427  0.0262 -0.0647 -1.1634
 1237SOL    HW2 4107   2.046   1.127   4.388 -0.2203 -0.1680 -0.2248
 1238SOL     OW 4108   3.332   2.942   0.850 -0.0778  0.2723 -0.0789
 1238SOL    HW1 4109   3.316   2.848   0.851  0.7296  0.0788  2.4913
 1238SOL    HW2 4110   3.245   2.982   0.851 -0.4177 -0.4408 -0.5398
 1239SOL     OW 4111   6.196   0.862   6.548  0.0349 -0.5591  0.3781
 1239SOL    HW1 4112   6.259   0.815   6.493  0.6708  0.5087  0.1762
 1239SOL    HW2 4113   6.119   0.874   6.493  0.9424  1.1720 -0.5881
 1240SOL     OW 4114   6.251   5.694   3.242 -0.1496 -0.0001 -0.0148
 1240SOL    HW1 4115   6.295   5.609   3.248  1.0092  0.3783 -2.0016
 1240SOL    HW2 4116   6.193   5.686   3.166 -2.1826  0.1425  1.4377
 1241SOL     OW 4117   5.755   6.291   0.542  0.2129 -0.1317  0.0811
 1241SOL    HW1 4118   5.752   6.288   0.446  1.1729 -0.3949  0.0513
 1241SOL    HW2 4119   5.820   6.357   0.562 -0.0186 -0.0467  0.5592
 1242SOL     OW 4120   0.643   2.812   4.343 -0.4498  0.0203  0.0590
 1242SOL    HW1 4121   0.593   2.816   4.261 -2.0388 -1.5214  0.8817
 1242SOL    HW2 4122   0.576   2.809   4.411  0.8446  1.1404  1.4423
 1243SOL     OW 4123   1.671   6.003   5.538  0.0849  0.4680 -0.3687
 1243SOL    HW1 4124   1.660   6.008   5.443  1.2180 -0.6859 -0.5923
 1243SOL    HW2 4125   1.744   6.063   5.556 -1.0556  1.7978 -0.0035
 1244SOL     OW 4126   4.881   0.624   4.472 -0.0455 -0.1330 -0.1577
 1244SOL    HW1 4127   4.935   0.695   4.437 -1.1682  0.4342 -0.8419
 1244SOL    HW2 4128   4.793   0.662   4.477 -0.6570 -1.4408 -0.4384
 1245SOL     OW 4129   6.923   6.352   1.321 -0.5523 -0.1110  0.7211
 1245SOL    HW1 4130   6.997   6.299   1.292 -3.1709 -2.9923 -1.3139
 1245SOL    HW2 4131   6.917   6.423   1.257  1.2590  1.1162  1.8136
 1246SOL     OW 4132   3.135   6.602   4.469  0.7257 -0.6402 -0.2944
 1246SOL    HW1 4133   3.128   6.551   4.388 -0.5385  0.8086 -1.1480
 1246SOL    HW2 4134   3.183   6.681   4.443  1.0626 -0.5559  0.5691
 1247SOL     OW 4135   2.706   6.881   4.242  0.3050 -0.3009 -0.0513
 1247SOL    HW1 4136   2.793   6.895   4.206 -0.2587 -1.7978 -2.2141
 1247SOL    HW2 4137   2.718   6.811   4.307  0.3740 -3.0361 -2.7417
 1248SOL     OW 4138   0.942   1.637   2.120 -0.4752  0.1088 -0.1214
 1248SOL    HW1 4139   0.863   1.678   2.153 -0.3007  0.3632 -0.0130
 1248SOL    HW2 4140   0.969   1.577   2.190 -0.5200  0.0948 -0.1167
 1249SOL     OW 4141   1.959   2.871   6.424  0.1134 -0.3031  0.3234
 1249SOL    HW1 4142   1.997   2.785   6.408 -0.5093 -0.8253  1.5392
 1249SOL    HW2 4143   2.030   2.921   6.466 -0.0844 -0.8405  1.3388
 1250SOL     OW 4144   6.441   3.515   5.269  0.3126  0.1132 -0.4752
 1250SOL    HW1 4145   6.428   3.423   5.290  1.0620  0.1373  0.0948
 1250SOL    HW2 4146   6.352   3.551   5.265  0.0832 -0.1990  1.2429
 1251SOL     OW 4147   4.636   1.343   2.165 -0.4299  0.0553 -0.3567
 1251SOL    HW1 4148   4.635   1.302   2.079 -1.6382  0.3618 -0.5042
 1251SOL    HW2 4149   4.656   1.435   2.147 -2.1296  0.4280 -0.4796
 1252SOL     OW 4150   2.920   2.899   3.123 -0.0075  0.1230  0.2443
 1252SOL    HW1 4151   2.876   2.913   3.040 -1.2128  1.7293  1.0951
 1252SOL    HW2 4152   2.936   2.987   3.157  0.0642 -0.4837  1.8991
 1253SOL     OW 4153   0.762   0.116   4.323  0.4695 -0.2591  0.2474
 1253SOL    HW1 4154   0.730   0.206   4.314  0.8266 -0.2398 -1.0685
 1253SOL    HW2 4155   0.716   0.068   4.254  0.3744 -1.0698  0.8610
 1254SOL     OW 4156   0.159   0.158   4.897 -0.5295  0.2748 -0.2937
 1254SOL    HW1 4157   0.224   0.176   4.965 -0.1590 -1.2726 -0.1932
 1254SOL    HW2 4158   0.090   0.223   4.911  0.2558  0.9339  0.5998
 1255SOL     OW 4159   4.813   2.218   6.356  0.2506  0.1591 -0.1555
 1255SOL    HW1 4160   4.793   2.134   6.397  2.8778 -0.2465  0.5092
 1255SOL    HW2 4161   4.862   2.194   6.277 -1.0717  1.0538 -1.2921
 1256SOL     OW 4162   0.594   6.053   5.842  0.0447 -0.2808  0.1136
 1256SOL    HW1 4163   0.602   5.959   5.858  1.3176 -0.4569 -1.2962
 1256SOL    HW2 4164   0.614   6.063   5.749 -0.0863  1.3963  0.2345
 1257SOL     OW 4165   1.572   5.035   5.464  0.3785 -0.7616 -0.5800
 1257SOL    HW1 4166   1.559   5.050   5.557 -1.0491 -1.3004 -0.6660
 1257SOL    HW2 4167   1.642   5.096   5.439 -1.7957  2.1991  0.0369
 1258SOL     OW 4168   0.505   2.099   0.158 -0.7422  0.2548 -0.2093
 1258SOL    HW1 4169   0.441   2.028   0.152  0.9340 -1.3070 -0.5005
 1258SOL    HW2 4170   0.550   2.098   0.073 -0.0999  1.0776  0.1078
 1259SOL     OW 4171   6.691   2.175   4.056  0.0861  0.4898  0.2981
 1259SOL    HW1 4172   6.733   2.261   4.056  0.4667  0.3089  0.4363
 1259SOL    HW2 4173   6.628   2.179   4.129  0.0442  0.6777  0.2520
 1260SOL     OW 4174   2.746   2.691   5.165  0.3091  0.8109 -0.6564
 1260SOL    HW1 4175   2.778   2.762   5.221  0.6581 -0.1499  0.3938
 1260SOL    HW2 4176   2.818   2.627   5.164 -0.3187  0.0982 -0.9229
 1261SOL     OW 4177   0.667   6.654   4.721  0.4895 -0.0589 -0.0769
 1261SOL    HW1 4178   0.571   6.657   4.713  0.4321 -0.2497  0.4955
 1261SOL    HW2 4179   0.696   6.742   4.694  0.1980 -0.1621 -0.7467
 1262SOL     OW 4180   2.050   0.570   4.101 -0.2354  0.0143  0.2447
 1262SOL    HW1 4181   1.984   0.637   4.086  0.3244  0.5449  0.1424
 1262SOL    HW2 4182   2.132   0.610   4.076  0.2072 -0.4422  0.9167
 1263SOL     OW 4183   5.520   2.895   3.572 -0.1678  0.3065  0.4467
 1263SOL    HW1 4184   5.589   2.935   3.518 -0.4114 -1.4337 -1.2653
 1263SOL    HW2 4185   5.564   2.870   3.653  0.2559  2.8208  1.0816
 1264SOL     OW 4186   4.478   2.268   5.343 -0.0796  0.0908  0.3325
 1264SOL    HW1 4187   4.383   2.273   5.344 -0.0200  2.2005  1.0506
 1264SOL    HW2 4188   4.502   2.290   5.253 -0.2877 -4.6593 -1.1218
 1265SOL     OW 4189   6.478   5.197   4.768 -0.1654  0.1195  0.1546
 1265SOL    HW1 4190   6.527   5.254   4.709 -0.5098  0.5493  0.2746
 1265SOL    HW2 4191   6.430   5.257   4.825 -0.5702 -0.2875  0.2548
 1266SOL     OW 4192   5.769   0.246   6.236 -0.8128  0.0029 -0.7133
 1266SOL    HW1 4193   5.850   0.242   6.187  0.6376  2.0988  1.2818
 1266SOL    HW2 4194   5.745   0.339   6.236 -3.6964 -0.6253 -1.8824
 1267SOL     OW 4195   1.568   1.779   3.982 -0.6840 -0.6467  0.4061
 1267SOL    HW1 4196   1.580   1.713   3.914 -1.8873 -0.9683  0.4779
 1267SOL    HW2 4197   1.553   1.860   3.934  2.5956  0.0346  0.2933
 1268SOL     OW 4198   2.592   5.371   1.574 -0.2192 -0.1448  0.0722
 1268SOL    HW1 4199   2.648   5.371   1.496 -1.7764 -0.9481 -1.1151
 1268SOL    HW2 4200   2.554   5.283   1.576 -0.0796 -0.2091  1.8759
 1269SOL     OW 4201   6.075   3.274   5.792 -0.6110  0.2617 -0.0907
 1269SOL    HW1 4202   6.036   3.194   5.825 -0.5210  0.0277 -0.5422
 1269SOL    HW2 4203   6.001   3.329   5.768 -0.6710  0.1267 -0.2164
 1270SOL     OW 4204   5.897   4.898   5.362 -0.2669  0.3394  0.1336
 1270SOL    HW1 4205   5.871   4.867   5.449  0.9312 -1.9784 -0.2552
 1270SOL    HW2 4206   5.934   4.820   5.319 -0.7150  1.4416 -2.4120
 1271SOL     OW 4207   1.718   3.983   5.300 -0.2960  0.1270  0.4128
 1271SOL    HW1 4208   1.710   3.996   5.206 -1.2566  0.9067  0.5804
 1271SOL    HW2 4209   1.682   3.896   5.315  0.8778 -0.4510 -0.0614
 1272SOL     OW 4210   3.232   4.664   2.190 -0.1510  0.5429 -0.5393
 1272SOL    HW1 4211   3.246   4.570   2.196 -0.2720  0.4851 -1.1187
 1272SOL    HW2 4212   3.171   4.684   2.261  0.9154  0.4048  0.4378
 1273SOL     OW 4213   5.837   6.839   2.668  0.4327 -0.5391 -0.0183
 1273SOL    HW1 4214   5.815   6.825   2.760 -0.4982 -0.1484 -0.1753
 1273SOL    HW2 4215   5.852   6.934   2.662  0.9972 -0.6338 -0.1688
 1274SOL     OW 4216   5.952   5.120   4.411 -0.2233  0.0322  0.1080
 1274SOL    HW1 4217   5.923   5.104   4.321  1.0981 -1.8658 -0.0437
 1274SOL    HW2 4218   6.045   5.140   4.403 -0.1051 -0.1273  1.0361
 1275SOL     OW 4219   6.386   1.224   4.516  0.0729  0.1918 -0.5096
 1275SOL    HW1 4220   6.456   1.215   4.451  0.5718  1.1934 -0.1242
 1275SOL    HW2 4221   6.366   1.317   4.517 -0.6191  0.0423  0.0624
 1276SOL     OW 4222   4.155   3.951   0.539  0.3326 -0.1015  0.0363
 1276SOL    HW1 4223   4.209   3.908   0.473  0.5791  0.4132 -0.0953
 1276SOL    HW2 4224   4.084   3.992   0.490  0.3229 -0.0113  0.1235
 1277SOL     OW 4225   5.014   0.352   1.322  0.0780  0.4092  0.1825
 1277SOL    HW1 4226   5.029   0.446   1.325  1.1923  0.2563 -0.1807
 1277SOL    HW2 4227   4.969   0.338   1.238 -0.2434  0.6262  0.3147
 1278SOL     OW 4228   1.557   4.044   4.757  0.1456 -0.7288  0.4034
 1278SOL    HW1 4229   1.498   4.082   4.822  2.8107  3.4479  0.7140
 1278SOL    HW2 4230   1.609   3.981   4.806 -0.4066 -0.4284  1.4197
 1279SOL     OW 4231   5.356   6.335   6.039 -0.0987 -0.0169  0.1557
 1279SOL    HW1 4232   5.356   6.244   6.009 -2.3600 -0.5199  1.4475
 1279SOL    HW2 4233   5.399   6.384   5.968  0.6691 -2.0037 -0.8060
 1280SOL     OW 4234   0.151   4.598   6.083  0.2402 -0.1694 -0.1914
 1280SOL    HW1 4235   0.187   4.680   6.050  0.1745 -0.3031 -0.5950
 1280SOL    HW2 4236   0.178   4.596   6.175 -2.8432  2.1559  0.9878
 1281SOL     OW 4237   5.118   3.638   3.163  0.1102  0.3929  0.5658
 1281SOL    HW1 4238   5.103   3.663   3.254  0.6296  0.3060  0.6774
 1281SOL    HW2 4239   5.210   3.657   3.147 -0.3977  2.2246 -0.5314
 1282SOL     OW 4240   0.712   6.373   6.664 -0.4326 -0.3592  0.3397
 1282SOL    HW1 4241   0.740   6.455   6.704  0.2657 -1.2821  1.8714
 1282SOL    HW2 4242   0.664   6.398   6.586  0.3694  1.4723  0.4024
 1283SOL     OW 4243   4.678   5.805   6.734 -0.4561 -0.0881  0.1860
 1283SOL    HW1 4244   4.600   5.856   6.757 -0.5286  0.9862 -2.1794
 1283SOL    HW2 4245   4.723   5.859   6.669  1.0126 -1.7667 -0.2591
 1284SOL     OW 4246   1.450   0.079   5.060  0.0030  0.0331 -0.2568
 1284SOL    HW1 4247   1.454   0.069   4.965 -0.0997 -2.5353 -0.0831
 1284SOL    HW2 4248   1.535   0.048   5.091 -0.4386 -0.4260  0.5348
 1285SOL     OW 4249   1.358   0.696   0.333  0.1087 -0.2859  0.0827
 1285SOL    HW1 4250   1.389   0.767   0.390  0.5166 -0.1212 -0.3372
 1285SOL    HW2 4251   1.438   0.660   0.295 -0.2454  0.8823 -1.9136
 1286SOL     OW 4252   5.252   1.451   3.970 -0.5273 -0.8487 -0.0614
 1286SOL    HW1 4253   5.219   1.514   3.906 -1.1000  0.0272  1.0461
 1286SOL    HW2 4254   5.322   1.497   4.016 -1.9211 -0.4369  1.7488
 1287SOL     OW 4255   3.060   2.265   1.841  0.4843  0.1544 -0.0162
 1287SOL    HW1 4256   2.969   2.286   1.862 -0.0603 -0.5551 -1.5331
 1287SOL    HW2 4257   3.111   2.322   1.898 -0.9044  0.6142  0.8198
 1288SOL     OW 4258   4.827   6.162   5.206 -0.2395 -0.6257 -0.1672
 1288SOL    HW1 4259   4.878   6.086   5.234  0.9510 -0.0571 -0.7188
 1288SOL    HW2 4260   4.740   6.148   5.243  0.7700 -0.7812  2.2992
 1289SOL     OW 4261   6.937   3.774   3.482  0.4696  0.1364  0.3397
 1289SOL    HW1 4262   6.923   3.680   3.492  0.5111  0.0519 -0.3456
 1289SOL    HW2 4263   7.028   3.782   3.455  0.3893  0.3555  0.1342
 1290SOL     OW 4264   1.008   2.143   0.795 -0.1124  0.4212 -0.0059
 1290SOL    HW1 4265   1.002   2.071   0.857  0.6284  1.3664  1.1946
 1290SOL    HW2 4266   1.049   2.105   0.717  2.4161  0.0140  1.4285
 1291SOL     OW 4267   4.827   6.540   4.085 -0.0208 -0.2196  0.4221
 1291SOL    HW1 4268   4.896   6.504   4.141  1.4297  0.1095 -1.1005
 1291SOL    HW2 4269   4.754   6.478   4.095  1.1863 -1.6900  0.5402
 1292SOL     OW 4270   2.490   0.434   5.334 -0.5182 -0.0540  0.4964
 1292SOL    HW1 4271   2.529   0.416   5.419 -1.2262  1.5934  1.2089
 1292SOL    HW2 4272   2.431   0.360   5.319  0.3069 -0.8335  0.9699
 1293SOL     OW 4273   2.013   0.971   4.909  0.3894 -0.1989 -0.2010
 1293SOL    HW1 4274   1.947   0.963   4.978  0.2236  1.7547 -0.0666
 1293SOL    HW2 4275   2.095   0.947   4.952  0.1081 -0.2425  0.3281
 1294SOL     OW 4276   2.361   1.571   0.428 -0.1142  0.0822 -0.3550
 1294SOL    HW1 4277   2.375   1.602   0.338 -0.8939 -0.4483 -0.6672
 1294SOL    HW2 4278   2.379   1.477   0.424  1.4939  0.3208  0.4286
 1295SOL     OW 4279   4.923   5.986   5.383  0.0476  0.2711  0.2396
 1295SOL    HW1 4280   4.982   5.915   5.410  0.0713  0.4376  0.6427
 1295SOL    HW2 4281   4.973   6.066   5.399  0.1498  0.3698 -0.5444
 1296SOL     OW 4282   3.350   6.047   5.720  0.3794  0.2537  1.1775
 1296SOL    HW1 4283   3.384   5.958   5.731  0.7751  0.3875  1.0675
 1296SOL    HW2 4284   3.360   6.065   5.626  1.5849  0.9141  1.4127
 1297SOL     OW 4285   4.728   0.517   1.216  0.5810  0.2275  0.6042
 1297SOL    HW1 4286   4.757   0.603   1.186  0.7631  0.4936  1.5048
 1297SOL    HW2 4287   4.710   0.469   1.136  0.0089  1.2631  0.0802
 1298SOL     OW 4288   0.737   0.965   2.078  0.2473  0.1418  0.3181
 1298SOL    HW1 4289   0.715   0.874   2.058 -1.6436  0.8163 -0.9103
 1298SOL    HW2 4290   0.729   0.971   2.173  0.6514 -1.0052  0.4501
 1299SOL     OW 4291   2.135   2.632   0.881  0.1381  0.3747 -0.0233
 1299SOL    HW1 4292   2.192   2.595   0.948 -2.5620 -1.2038  1.5771
 1299SOL    HW2 4293   2.152   2.579   0.803  0.6872 -0.1813  0.4677
 1300SOL     OW 4294   3.893   4.441   0.934 -0.0530 -0.0935 -0.0245
 1300SOL    HW1 4295   3.897   4.356   0.891 -0.1513  0.6456 -1.5352
 1300SOL    HW2 4296   3.948   4.498   0.882 -0.9518  1.0781  0.2490
 1301SOL     OW 4297   1.178   3.766   2.099 -0.6449  0.1197  0.4113
 1301SOL    HW1 4298   1.201   3.693   2.042  0.7572 -0.4562  1.6363
 1301SOL    HW2 4299   1.134   3.828   2.042  0.5351 -0.5114 -1.2626
 1302SOL     OW 4300   6.357   1.038   6.709 -0.6169 -0.1779  0.0823
 1302SOL    HW1 4301   6.291   0.985   6.664 -0.1653 -0.4459 -0.2706
 1302SOL    HW2 4302   6.341   1.127   6.679 -1.6236 -0.0327  0.9668
 1303SOL     OW 4303   1.903   3.080   5.078 -0.1126  0.3580 -0.6125
 1303SOL    HW1 4304   1.845   3.100   5.151 -1.9159 -1.4431 -1.4616
 1303SOL    HW2 4305   1.878   3.143   5.010 -0.6552 -0.0270 -0.7701
 1304SOL     OW 4306   4.677   4.077   4.271 -0.4090  0.0332 -0.2487
 1304SOL    HW1 4307   4.618   4.115   4.335 -1.4328 -0.2415 -0.9883
 1304SOL    HW2 4308   4.647   3.986   4.262  0.1359 -0.1169 -0.6229
 1305SOL     OW 4309   6.872   5.133   4.085 -0.1329 -0.2753  0.0764
 1305SOL    HW1 4310   6.829   5.198   4.142 -0.5713 -1.3858  1.0641
 1305SOL    HW2 4311   6.954   5.175   4.059  0.2482  0.1791  1.8230
 1306SOL     OW 4312   0.520   3.931   6.488  0.0070 -0.5410  0.4655
 1306SOL    HW1 4313   0.454   3.995   6.513 -1.0453 -1.4684  0.1681
 1306SOL    HW2 4314   0.589   3.982   6.445  0.1215  0.6037  1.9432
 1307SOL     OW 4315   3.940   0.648   5.308 -0.6597 -0.3628 -0.3649
 1307SOL    HW1 4316   4.016   0.598   5.338 -0.8010 -0.1081  0.4699
 1307SOL    HW2 4317   3.873   0.630   5.374 -0.2772  1.9829  0.7764
 1308SOL     OW 4318   3.032   1.879   5.455 -0.0071 -0.3131  0.0943
 1308SOL    HW1 4319   2.984   1.843   5.530  0.0319 -1.4527 -0.4195
 1308SOL    HW2 4320   3.116   1.833   5.455  0.4551  0.4970  0.0058
 1309SOL     OW 4321   5.203   4.978   4.034  0.0197 -0.0399  0.5264
 1309SOL    HW1 4322   5.251   5.044   4.084  0.6367  0.4660 -0.7075
 1309SOL    HW2 4323   5.115   5.014   4.026 -0.1107 -0.1650  1.3054
 1310SOL     OW 4324   2.793   1.112   1.999  0.9028 -0.6318 -0.3816
 1310SOL    HW1 4325   2.804   1.114   2.094  1.5472 -0.3352 -0.4561
 1310SOL    HW2 4326   2.873   1.151   1.965  1.0813 -1.5549 -1.0766
 1311SOL     OW 4327   1.543   1.164   5.129  0.1185  0.3126  0.3375
 1311SOL    HW1 4328   1.636   1.147   5.144  0.2042  0.6234  0.1663
 1311SOL    HW2 4329   1.533   1.257   5.148  0.2576  0.7656 -1.6578
 1312SOL     OW 4330   4.420   6.802   4.743  0.5447  0.1098 -0.2038
 1312SOL    HW1 4331   4.346   6.757   4.703  1.1506 -0.4089 -0.7778
 1312SOL    HW2 4332   4.386   6.839   4.825 -0.6370  0.9261 -1.0438
 1313SOL     OW 4333   6.460   5.263   3.580  0.3354  0.1004 -0.5395
 1313SOL    HW1 4334   6.492   5.205   3.511  0.3222 -1.1474  0.4819
 1313SOL    HW2 4335   6.371   5.286   3.553  1.2153  1.8324 -2.2831
 1314SOL     OW 4336   6.469   0.397   1.201  0.4205  0.3486 -0.3790
 1314SOL    HW1 4337   6.443   0.456   1.131 -1.5714  2.9018  2.2630
 1314SOL    HW2 4338   6.543   0.440   1.243  1.7609 -1.2767 -0.9873
 1315SOL     OW 4339   2.961   2.512   5.118  0.2155 -0.2040 -0.4981
 1315SOL    HW1 4340   3.022   2.520   5.045  0.2794 -2.2937 -0.7389
 1315SOL    HW2 4341   3.007   2.456   5.182 -0.4298  0.3395  0.4683
 1316SOL     OW 4342   4.794   4.130   0.082 -0.4440 -0.1531 -0.6271
 1316SOL    HW1 4343   4.822   4.221   0.070 -1.6442  0.1756 -1.0739
 1316SOL    HW2 4344   4.870   4.087   0.121 -0.3766  1.4101  1.1322
 1317SOL     OW 4345   0.748   4.411   0.643 -0.1052 -0.0247 -0.1205
 1317SOL    HW1 4346   0.715   4.371   0.563  1.7886  1.4267 -1.7377
 1317SOL    HW2 4347   0.672   4.458   0.679 -0.4019  1.6507 -2.6615
 1318SOL     OW 4348   0.471   3.360   4.028 -0.5591 -0.0890  0.2224
 1318SOL    HW1 4349   0.441   3.450   4.021 -1.1769 -0.3737 -1.2993
 1318SOL    HW2 4350   0.391   3.309   4.045 -0.1214 -0.3090  1.8291
 1319SOL     OW 4351   4.262   0.207   2.089 -0.2317 -0.3395 -0.4481
 1319SOL    HW1 4352   4.201   0.272   2.054  0.9585  0.2140 -1.5945
 1319SOL    HW2 4353   4.287   0.154   2.013  0.1025 -1.0693  0.1575
 1320SOL     OW 4354   0.094   4.355   4.973  0.1666  0.3611 -0.5632
 1320SOL    HW1 4355   0.002   4.329   4.966  0.1907  0.3957 -1.1176
 1320SOL    HW2 4356   0.141   4.286   4.927  0.5853 -0.5371  1.1577
 1321SOL     OW 4357   4.357   3.943   1.676  0.2808 -0.0078 -0.3566
 1321SOL    HW1 4358   4.289   4.003   1.645 -3.3080 -3.8114 -0.7160
 1321SOL    HW2 4359   4.352   3.948   1.771 -1.2837 -0.9591 -0.3689
 1322SOL     OW 4360   4.536   6.397   4.236  0.2315 -0.4096  0.1145
 1322SOL    HW1 4361   4.469   6.450   4.192  0.0682 -1.2324 -0.6729
 1322SOL    HW2 4362   4.585   6.357   4.164  1.4493  0.0163  0.6789
 1323SOL     OW 4363   0.980   3.420   3.347 -0.4047 -0.6179  0.1439
 1323SOL    HW1 4364   0.894   3.392   3.379 -0.2607 -1.2907 -0.0442
 1323SOL    HW2 4365   1.009   3.484   3.412 -0.4459 -1.4144  0.9824
 1324SOL     OW 4366   2.274   0.973   6.434  0.0121 -0.1309  0.2579
 1324SOL    HW1 4367   2.202   1.034   6.419 -0.2374 -0.7950 -1.5234
 1324SOL    HW2 4368   2.325   1.013   6.504 -0.5487  1.7522 -0.3436
 1325SOL     OW 4369   4.949   2.707   4.863 -0.0719  0.4950 -0.4469
 1325SOL    HW1 4370   4.860   2.678   4.847 -0.1220 -0.1622  0.9339
 1325SOL    HW2 4371   4.944   2.756   4.945  0.8807  0.1895 -0.1926
 1326SOL     OW 4372   1.134   6.932   1.544  0.8312  0.4035 -0.0135
 1326SOL    HW1 4373   1.042   6.908   1.550  0.0919  2.7404 -0.9718
 1326SOL    HW2 4374   1.179   6.850   1.524 -1.3348 -0.4238 -1.8486
 1327SOL     OW 4375   0.191   5.438   6.826  0.2548  0.2845  0.2011
 1327SOL    HW1 4376   0.164   5.530   6.822  2.5549  1.2168  2.6182
 1327SOL    HW2 4377   0.154   5.406   6.908  1.7111 -0.0583  0.7643
 1328SOL     OW 4378   2.509   2.047   5.339 -0.1297 -0.2446  0.4221
 1328SOL    HW1 4379   2.554   1.978   5.388 -0.5710 -0.2498  0.8241
 1328SOL    HW2 4380   2.482   2.111   5.405 -1.7424 -0.8141  0.3569
 1329SOL     OW 4381   0.122   0.936   0.873  0.3087  0.4349 -0.5730
 1329SOL    HW1 4382   0.103   0.848   0.841  1.3081  0.5184 -1.4412
 1329SOL    HW2 4383   0.131   0.927   0.968 -0.9503 -0.1395 -0.4877
 1330SOL     OW 4384   6.941   3.327   5.796  0.3454 -0.3455  0.4528
 1330SOL    HW1 4385   6.855   3.368   5.799  0.7548  0.4950  0.9824
 1330SOL    HW2 4386   6.940   3.277   5.714  0.0767  1.2984 -0.6021
 1331SOL     OW 4387   0.777   5.850   6.422  0.6310  0.1057 -0.0925
 1331SOL    HW1 4388   0.775   5.755   6.408 -1.4103  0.0866 -0.0320
 1331SOL    HW2 4389   0.864   5.877   6.394  0.5897 -1.5171 -2.0117
 1332SOL     OW 4390   1.916   5.036   2.774  0.5575 -0.2272 -0.1426
 1332SOL    HW1 4391   2.005   5.003   2.784 -0.0467 -2.6162 -1.8238
 1332SOL    HW2 4392   1.868   4.997   2.848  0.9474  1.5221  1.1003
 1333SOL     OW 4393   6.033   1.623   2.583  0.4982  0.3752 -0.0457
 1333SOL    HW1 4394   5.942   1.596   2.585  0.0100  1.9513  1.0685
 1333SOL    HW2 4395   6.052   1.639   2.490 -0.4130  0.2373 -0.2595
 1334SOL     OW 4396   0.320   2.655   1.431  0.5330 -0.0598  0.7125
 1334SOL    HW1 4397   0.262   2.706   1.374 -0.7383 -2.4102 -0.2432
 1334SOL    HW2 4398   0.408   2.674   1.399  0.2257  2.3338  1.1244
 1335SOL     OW 4399   2.577   4.488   1.582  0.3970  0.0385  0.1610
 1335SOL    HW1 4400   2.596   4.506   1.489  0.1132 -0.6880 -0.0388
 1335SOL    HW2 4401   2.625   4.557   1.629 -1.4627  1.9873 -0.6095
 1336SOL     OW 4402   5.618   4.975   0.231  0.3152  0.0748  0.0631
 1336SOL    HW1 4403   5.647   5.031   0.303 -0.3184  1.8155 -0.9689
 1336SOL    HW2 4404   5.690   4.915   0.217  1.1784  0.8439  1.0149
 1337SOL     OW 4405   1.650   0.064   6.152  0.6900  0.5922  0.1825
 1337SOL    HW1 4406   1.557   0.054   6.134  0.8095  0.3356 -0.3099
 1337SOL    HW2 4407   1.688  -0.022   6.135  1.3086  1.1682 -1.4997
 1338SOL     OW 4408   5.246   6.108   1.606  0.4853 -0.2038  0.2483
 1338SOL    HW1 4409   5.167   6.073   1.566  0.6451 -0.5572  0.2439
 1338SOL    HW2 4410   5.316   6.087   1.545  0.9547 -1.9588  1.3109
 1339SOL     OW 4411   0.857   6.573   6.258 -0.0721 -0.0088  0.2665
 1339SOL    HW1 4412   0.813   6.488   6.254  1.6913 -0.9708 -0.0222
 1339SOL    HW2 4413   0.843   6.612   6.172  1.1186 -1.1216 -0.4656
 1340SOL     OW 4414   0.633   2.508   2.446  0.6124 -0.3861 -0.0235
 1340SOL    HW1 4415   0.640   2.531   2.539 -0.4469  2.2858 -0.5113
 1340SOL    HW2 4416   0.612   2.415   2.447  1.9384 -0.7511  2.3487
 1341SOL     OW 4417   4.072   1.161   2.811 -0.0774  0.6643  0.0585
 1341SOL    HW1 4418   4.052   1.109   2.889 -2.2678  2.4039  0.7432
 1341SOL    HW2 4419   4.156   1.203   2.831  0.1469 -0.1183  0.8085
 1342SOL     OW 4420   3.213   0.884   6.074 -0.4895 -0.3795  0.2656
 1342SOL    HW1 4421   3.176   0.815   6.020 -2.1648 -0.5776  1.5888
 1342SOL    HW2 4422   3.184   0.965   6.033 -0.7139 -0.5123  0.1606
 1343SOL     OW 4423   5.112   4.270   0.845  0.2856 -0.1352 -0.5970
 1343SOL    HW1 4424   5.195   4.234   0.873 -0.1217 -0.1124  0.6853
 1343SOL    HW2 4425   5.084   4.214   0.772  1.4654 -0.0590 -1.1227
 1344SOL     OW 4426   3.511   4.053   2.763 -0.2599  0.4384 -0.6052
 1344SOL    HW1 4427   3.474   3.972   2.727 -0.1285  0.1586 -0.1086
 1344SOL    HW2 4428   3.472   4.062   2.850 -0.0775  0.7767 -0.5537
 1345SOL     OW 4429   1.633   5.666   6.864  0.3163 -0.4937 -0.6079
 1345SOL    HW1 4430   1.716   5.713   6.858 -0.6307  1.2265 -1.0730
 1345SOL    HW2 4431   1.606   5.676   6.955  0.4022 -0.6493 -0.5658
 1346SOL     OW 4432   4.582   6.642   0.548  0.1885  0.0759  0.1909
 1346SOL    HW1 4433   4.589   6.688   0.631 -0.0157  0.4243  0.0218
 1346SOL    HW2 4434   4.612   6.706   0.483  2.1116 -0.7923  0.1601
 1347SOL     OW 4435   6.334   3.801   5.613 -0.2539 -0.5046  0.1646
 1347SOL    HW1 4436   6.326   3.882   5.563  0.8155  1.2049  2.5595
 1347SOL    HW2 4437   6.243   3.775   5.630 -0.6539 -1.4030 -2.8901
 1348SOL     OW 4438   1.219   1.683   6.193 -0.3396 -0.0706 -0.3461
 1348SOL    HW1 4439   1.302   1.722   6.220 -0.2616 -0.1917 -0.4120
 1348SOL    HW2 4440   1.173   1.754   6.147 -0.7269  0.3216  0.6094
 1349SOL     OW 4441   5.291   1.479   6.676  0.5933 -0.0723  0.1607
 1349SOL    HW1 4442   5.317   1.570   6.665  0.6757 -0.0571  0.4850
 1349SOL    HW2 4443   5.198   1.483   6.698  0.6860 -0.0486  0.5454
 1350SOL     OW 4444   3.268   6.378   3.981 -0.3902  0.3497  0.2328
 1350SOL    HW1 4445   3.184   6.406   3.945  0.2623 -0.1402 -1.8130
 1350SOL    HW2 4446   3.255   6.287   4.005 -0.5537  0.3911  0.3010
 1351SOL     OW 4447   3.793   6.462   4.577 -0.0592  0.0467 -0.6193
 1351SOL    HW1 4448   3.715   6.451   4.523  0.4952  0.0070 -1.4354
 1351SOL    HW2 4449   3.857   6.503   4.518  0.3009  0.7550  0.2405
 1352SOL     OW 4450   6.030   2.907   2.527  0.1567  0.2875 -0.0489
 1352SOL    HW1 4451   5.957   2.847   2.510  0.0455  0.9741 -2.3286
 1352SOL    HW2 4452   6.101   2.876   2.470  1.3263  0.2636  1.3507
 1353SOL     OW 4453   1.218   1.048   5.474 -0.2005 -0.0956  0.0698
 1353SOL    HW1 4454   1.166   1.018   5.549 -1.1399  0.4740 -0.3473
 1353SOL    HW2 4455   1.299   1.081   5.514 -0.1579 -0.9526  0.7256
 1354SOL     OW 4456   3.693   2.684   2.736 -0.9424 -0.0433 -0.0819
 1354SOL    HW1 4457   3.703   2.591   2.757 -3.9157 -0.0235  2.0129
 1354SOL    HW2 4458   3.696   2.687   2.641  1.7677 -1.8400 -0.1936
 1355SOL     OW 4459   5.145   3.407   2.886 -0.4835  0.4954 -0.4933
 1355SOL    HW1 4460   5.085   3.410   2.961 -0.1155  1.4511 -0.2204
 1355SOL    HW2 4461   5.186   3.321   2.891  1.2155  1.3355  1.7723
 1356SOL     OW 4462   4.907   1.084   0.985  0.6091 -0.2318 -0.2734
 1356SOL    HW1 4463   4.834   1.145   0.980  0.7824 -0.1203 -1.8245
 1356SOL    HW2 4464   4.890   1.019   0.916 -0.6932 -3.2751  2.6452
 1357SOL     OW 4465   6.111   0.810   6.922  0.3325  0.0664 -0.0147
 1357SOL    HW1 4466   6.109   0.726   6.875 -1.1814 -1.0480  1.8939
 1357SOL    HW2 4467   6.172   0.795   6.994 -2.2870 -0.5905  2.2245
 1358SOL     OW 4468   0.512   3.747   2.593  0.4857 -0.2517  0.6701
 1358SOL    HW1 4469   0.447   3.735   2.524 -0.8940 -0.2647  1.9287
 1358SOL    HW2 4470   0.570   3.671   2.584  0.1205 -0.4406 -0.2314
 1359SOL     OW 4471   5.206   4.859   1.367  0.5256  0.4012 -0.5530
 1359SOL    HW1 4472   5.117   4.840   1.394  0.7735 -0.8268 -0.5461
 1359SOL    HW2 4473   5.198   4.894   1.278  0.1008 -0.5005 -0.8732
 1360SOL     OW 4474   2.446   1.086   6.646 -0.3304 -0.0438 -0.0640
 1360SOL    HW1 4475   2.423   1.178   6.631 -0.5502 -0.3741 -2.0453
 1360SOL    HW2 4476   2.541   1.088   6.659 -0.2842  0.4405 -0.4109
 1361SOL     OW 4477   6.657   0.688   4.113 -0.0345 -0.4841 -0.1647
 1361SOL    HW1 4478   6.667   0.607   4.163  1.4151  0.1504  0.6599
 1361SOL    HW2 4479   6.708   0.673   4.033  0.6338 -0.2482  0.2030
 1362SOL     OW 4480   0.060   4.942   2.050 -0.2716 -0.1875 -0.5234
 1362SOL    HW1 4481   0.092   4.853   2.062 -0.1240 -0.3000 -1.6468
 1362SOL    HW2 4482   0.011   4.939   1.967 -2.7857  0.0892  0.8472
 1363SOL     OW 4483   5.343   4.167   6.237  0.3092  0.2751 -0.4439
 1363SOL    HW1 4484   5.390   4.159   6.154  1.2738 -0.3247  0.1459
 1363SOL    HW2 4485   5.358   4.083   6.281  0.6751  0.9603  0.7744
 1364SOL     OW 4486   3.855   1.470   3.435  0.0479  0.2314 -0.5030
 1364SOL    HW1 4487   3.910   1.440   3.363 -1.7858  0.0709 -1.9020
 1364SOL    HW2 4488   3.845   1.393   3.491 -0.6972 -0.4738 -1.5474
 1365SOL     OW 4489   4.316   0.556   2.916  0.2546  0.3139 -0.8025
 1365SOL    HW1 4490   4.343   0.464   2.913 -0.4462  0.0810 -0.0054
 1365SOL    HW2 4491   4.294   0.572   3.007  0.7085  1.3798 -0.8688
 1366SOL     OW 4492   3.031   5.322   4.894 -0.1122  0.5965  0.5151
 1366SOL    HW1 4493   3.087   5.379   4.945  0.2368  0.5017  0.2364
 1366SOL    HW2 4494   3.060   5.233   4.916  0.9970  0.5713 -0.9101
 1367SOL     OW 4495   4.830   2.751   0.626 -0.2026  0.0960  0.0504
 1367SOL    HW1 4496   4.822   2.803   0.547 -0.6619 -2.1196 -1.4706
 1367SOL    HW2 4497   4.754   2.776   0.680 -1.4809 -0.3012 -1.4884
 1368SOL     OW 4498   5.558   3.352   2.844  0.8795 -0.1295 -0.1124
 1368SOL    HW1 4499   5.510   3.415   2.790  2.0484  1.0002  0.1132
 1368SOL    HW2 4500   5.642   3.394   2.862  2.2428 -2.2826 -1.0043
 1369SOL     OW 4501   1.812   5.734   6.205 -0.1010 -0.1901 -0.0825
 1369SOL    HW1 4502   1.791   5.679   6.280  0.8821 -0.6864 -0.1470
 1369SOL    HW2 4503   1.751   5.706   6.137 -0.3185 -0.4500  0.2152
 1370SOL     OW 4504   6.806   6.401   5.944 -0.4459 -0.1750  0.1087
 1370SOL    HW1 4505   6.853   6.482   5.927  0.5788 -0.8020 -0.1498
 1370SOL    HW2 4506   6.714   6.422   5.929 -0.1515  0.8337 -0.3192
 1371SOL     OW 4507   4.129   2.913   2.230  0.2808  1.2132 -0.5384
 1371SOL    HW1 4508   4.065   2.944   2.294 -1.1306 -2.8260  0.3085
 1371SOL    HW2 4509   4.213   2.919   2.275 -0.3196  1.0709  0.6262
 1372SOL     OW 4510   1.538   1.584   0.677  0.3439  0.9220 -0.4417
 1372SOL    HW1 4511   1.464   1.592   0.616 -0.4760  1.1073  0.5524
 1372SOL    HW2 4512   1.497   1.561   0.761  1.6312 -1.7955 -0.4707
 1373SOL     OW 4513   3.577   0.382   6.729  0.4045  0.6277 -0.2009
 1373SOL    HW1 4514   3.609   0.339   6.808  1.7864  1.5754 -0.2102
 1373SOL    HW2 4515   3.510   0.443   6.759  0.5358  0.5891  0.1737
 1374SOL     OW 4516   2.070   2.720   2.775  0.1875  0.0414 -0.3115
 1374SOL    HW1 4517   1.992   2.665   2.764  0.6038 -0.4918 -0.6804
 1374SOL    HW2 4518   2.063   2.785   2.705 -1.3422  1.7783  1.3236
 1375SOL     OW 4519   1.850   4.832   3.531  0.1010  0.1621  0.6461
 1375SOL    HW1 4520   1.771   4.880   3.507 -0.3231 -1.2205 -0.9647
 1375SOL    HW2 4521   1.869   4.778   3.454  2.2920  0.0302  1.2133
 1376SOL     OW 4522   5.883   5.533   3.344  0.1229 -0.6364 -0.1073
 1376SOL    HW1 4523   5.954   5.556   3.403  1.1337  1.2707 -1.9561
 1376SOL    HW2 4524   5.832   5.614   3.335 -0.4994 -1.1247 -1.1680
 1377SOL     OW 4525   5.793   4.030   5.085 -0.2717  0.3526 -0.4843
 1377SOL    HW1 4526   5.868   3.976   5.059  0.2126  1.3284 -1.1813
 1377SOL    HW2 4527   5.812   4.055   5.175 -0.4723 -0.5760 -0.1721
 1378SOL     OW 4528   3.321   4.884   1.605  0.1206  0.1607 -0.1937
 1378SOL    HW1 4529   3.254   4.950   1.590  1.0255  1.0776 -0.3522
 1378SOL    HW2 4530   3.284   4.803   1.570 -1.3063  0.4115  0.6788
 1379SOL     OW 4531   3.336   6.803   0.426 -0.3919  0.7288 -0.0265
 1379SOL    HW1 4532   3.428   6.830   0.428 -0.6260  1.5704  1.5240
 1379SOL    HW2 4533   3.318   6.782   0.335  1.6840 -0.6937 -0.1587
 1380SOL     OW 4534   4.576   4.886   2.610  0.0010 -0.3825  0.0643
 1380SOL    HW1 4535   4.569   4.799   2.570  1.0799  0.0747 -1.2182
 1380SOL    HW2 4536   4.617   4.871   2.695  1.7126 -1.0012 -0.8295
 1381SOL     OW 4537   2.321   1.994   0.092 -0.0089  0.0563  0.4734
 1381SOL    HW1 4538   2.415   2.004   0.076 -0.1538  0.3772 -0.2253
 1381SOL    HW2 4539   2.299   1.909   0.055 -0.1306  0.3014 -0.0199
 1382SOL     OW 4540   4.791   1.255   0.342  0.3948 -0.5478  0.1540
 1382SOL    HW1 4541   4.817   1.224   0.429  2.1213  1.6790  0.5252
 1382SOL    HW2 4542   4.853   1.212   0.282  1.2257  0.2667  0.4017
 1383SOL     OW 4543   1.109   0.237   0.768  0.0293  0.3428 -0.2421
 1383SOL    HW1 4544   1.089   0.165   0.829  0.5848 -0.0067 -0.4634
 1383SOL    HW2 4545   1.202   0.224   0.746  0.0517  0.9584 -0.5113
 1384SOL     OW 4546   6.750   3.546   0.308 -0.1692  0.0315 -0.0458
 1384SOL    HW1 4547   6.722   3.458   0.330 -1.0212  0.3286  0.0985
 1384SOL    HW2 4548   6.754   3.592   0.392 -0.7991  0.4295 -0.2283
 1385SOL     OW 4549   1.797   3.619   3.010 -0.0041  0.1333 -0.0669
 1385SOL    HW1 4550   1.822   3.572   2.930  3.1731  1.6724 -0.1272
 1385SOL    HW2 4551   1.744   3.692   2.979  1.0136  0.5901 -0.7761
 1386SOL     OW 4552   0.118   0.666   0.802  0.0747 -0.4916  0.0669
 1386SOL    HW1 4553   0.066   0.662   0.722  0.8120 -0.5507 -0.4122
 1386SOL    HW2 4554   0.054   0.651   0.872 -0.8278  1.0151 -0.3982
 1387SOL     OW 4555   5.735   6.316   4.477  0.0287  0.2657  0.3492
 1387SOL    HW1 4556   5.678   6.248   4.514 -0.0328  0.3077  0.3325
 1387SOL    HW2 4557   5.793   6.269   4.418  1.1467 -0.0233  1.6387
 1388SOL     OW 4558   5.871   3.178   3.558  0.0644  0.5551 -0.4540
 1388SOL    HW1 4559   5.907   3.129   3.631 -0.4947  0.1043 -0.4732
 1388SOL    HW2 4560   5.932   3.164   3.486  0.6078  0.9867 -0.0838
 1389SOL     OW 4561   1.332   5.373   1.410 -0.0104  0.1598  0.0535
 1389SOL    HW1 4562   1.360   5.465   1.415  1.6224 -0.1599 -1.9179
 1389SOL    HW2 4563   1.247   5.376   1.366  1.0115  0.6500 -1.9941
 1390SOL     OW 4564   0.917   1.548   2.676  0.8199  0.1452 -0.0926
 1390SOL    HW1 4565   0.825   1.522   2.669  1.2791 -1.3116 -1.0904
 1390SOL    HW2 4566   0.914   1.641   2.698 -0.8922  0.0363  0.2478
 1391SOL     OW 4567   6.679   3.790   6.789 -0.2779 -0.4479 -0.0973
 1391SOL    HW1 4568   6.693   3.814   6.881 -3.0574 -1.0458  0.5889
 1391SOL    HW2 4569   6.671   3.695   6.789 -2.5087 -0.3221 -0.5099
 1392SOL     OW 4570   1.096   6.411   2.154  0.1604 -0.1716  0.1675
 1392SOL    HW1 4571   1.019   6.402   2.098  0.4550  0.7358 -0.4123
 1392SOL    HW2 4572   1.168   6.374   2.103  0.0282 -1.6344  0.9738
 1393SOL     OW 4573   2.298   2.170   0.780  0.4735  0.0077  0.2335
 1393SOL    HW1 4574   2.342   2.255   0.772  2.6588 -1.2203 -1.8652
 1393SOL    HW2 4575   2.344   2.113   0.719 -1.0209 -2.6944  1.4713
 1394SOL     OW 4576   6.417   4.167   2.676  0.1166  0.0259 -0.0928
 1394SOL    HW1 4577   6.498   4.189   2.722 -0.3743  1.0055  0.3346
 1394SOL    HW2 4578   6.423   4.214   2.594 -0.0435  0.1343 -0.0412
 1395SOL     OW 4579   4.185   4.856   1.690  0.1873  1.2973  0.1810
 1395SOL    HW1 4580   4.181   4.899   1.776  1.1151  0.5577  0.6057
 1395SOL    HW2 4581   4.278   4.854   1.668  0.4404 -1.8715  0.9435
 1396SOL     OW 4582   6.564   5.245   2.356  0.2233 -0.1116 -0.2535
 1396SOL    HW1 4583   6.629   5.312   2.375  0.3744 -0.0319 -1.0129
 1396SOL    HW2 4584   6.574   5.181   2.426  0.8622  0.0914 -0.1540
 1397SOL     OW 4585   0.740   2.727   3.450 -0.4302 -0.2226  0.0978
 1397SOL    HW1 4586   0.790   2.729   3.369 -0.6111  1.5062 -0.0012
 1397SOL    HW2 4587   0.649   2.742   3.423 -0.4177  0.9496  0.6381
 1398SOL     OW 4588   0.219   3.070   6.291  0.8419  0.7852  0.1139
 1398SOL    HW1 4589   0.202   2.976   6.281  1.7947  0.4495  1.3302
 1398SOL    HW2 4590   0.159   3.097   6.361  1.0204  0.9377  0.2082
 1399SOL     OW 4591   0.604   1.469   0.968  0.3278  0.3503 -0.1152
 1399SOL    HW1 4592   0.662   1.473   0.891  0.6097 -0.3700  0.0555
 1399SOL    HW2 4593   0.658   1.429   1.036 -0.2743 -0.0250  0.1443
 1400SOL     OW 4594   6.502   0.089   1.344 -0.5042 -0.1075 -0.3264
 1400SOL    HW1 4595   6.430   0.034   1.312 -1.3958  1.7024 -1.6103
 1400SOL    HW2 4596   6.546   0.120   1.265  0.5310  0.2936  0.3893
 1401SOL     OW 4597   0.252   6.292   4.629 -0.2010  0.0308  0.0126
 1401SOL    HW1 4598   0.322   6.227   4.627 -0.0893  0.1377  0.4430
 1401SOL    HW2 4599   0.264   6.342   4.549 -0.9723 -1.1828 -0.9072
 1402SOL     OW 4600   6.335   0.534   4.155 -0.0967  0.0978  0.3373
 1402SOL    HW1 4601   6.288   0.610   4.120  0.1435 -0.1022 -0.4235
 1402SOL    HW2 4602   6.425   0.545   4.125 -0.2765 -1.0354 -0.7057
 1403SOL     OW 4603   5.535   6.300   3.393  0.4348 -0.2549 -0.0621
 1403SOL    HW1 4604   5.586   6.322   3.471  0.4972 -0.1577 -0.1293
 1403SOL    HW2 4605   5.598   6.304   3.321  0.2223  0.4088 -0.2246
 1404SOL     OW 4606   3.000   1.467   5.544 -0.2021  0.3260  0.1608
 1404SOL    HW1 4607   3.073   1.467   5.482 -0.2855 -0.3620  0.0624
 1404SOL    HW2 4608   3.012   1.388   5.596  0.0801  1.0798  1.2902
 1405SOL     OW 4609   1.625   0.296   1.660  0.2636 -0.5723  0.1583
 1405SOL    HW1 4610   1.564   0.261   1.724  1.9348 -3.1902  0.4528
 1405SOL    HW2 4611   1.712   0.283   1.699  1.2032 -0.0043 -1.6041
 1406SOL     OW 4612   4.210   6.942   1.837  0.1892  0.1258 -0.1329
 1406SOL    HW1 4613   4.291   6.943   1.785  1.0183  1.0433  1.0815
 1406SOL    HW2 4614   4.163   7.020   1.809  0.2906  0.2190 -0.0509
 1407SOL     OW 4615   0.498   4.656   4.442 -0.2598 -0.3240  0.3016
 1407SOL    HW1 4616   0.470   4.579   4.492 -1.6486 -0.5631 -0.8104
 1407SOL    HW2 4617   0.432   4.666   4.374  0.6868  1.0097 -0.4544
 1408SOL     OW 4618   2.209   5.746   1.991 -0.2512  0.0780  0.0745
 1408SOL    HW1 4619   2.297   5.731   2.025 -0.2364 -1.7055 -0.6614
 1408SOL    HW2 4620   2.152   5.743   2.069  0.2006  0.0156  0.4034
 1409SOL     OW 4621   0.954   6.667   6.503  0.5772  0.0020 -0.2492
 1409SOL    HW1 4622   0.900   6.625   6.435 -0.0421  0.5730 -0.1187
 1409SOL    HW2 4623   0.913   6.641   6.585 -0.5128  1.7655 -0.1998
 1410SOL     OW 4624   0.282   2.941   6.917  0.1924 -0.3918 -0.2108
 1410SOL    HW1 4625   0.244   2.880   6.981  0.2707  0.2174  0.4244
 1410SOL    HW2 4626   0.207   2.970   6.864 -0.0176 -0.2019  0.1907
 1411SOL     OW 4627   1.171   0.396   0.028  0.2908  0.2174  0.0851
 1411SOL    HW1 4628   1.234   0.459  -0.006  0.1839  0.5495  0.4947
 1411SOL    HW2 4629   1.116   0.374  -0.047  0.5850  0.3052 -0.1550
 1412SOL     OW 4630   1.573   5.308   5.178  0.6796  0.3431 -0.4621
 1412SOL    HW1 4631   1.645   5.355   5.220  0.5039 -1.5211  2.2047
 1412SOL    HW2 4632   1.495   5.340   5.222  0.1058  0.5535 -1.5970
 1413SOL     OW 4633   2.365   3.832   5.434  0.2636 -0.7235  0.0216
 1413SOL    HW1 4634   2.323   3.902   5.384  0.3373 -1.1919 -0.7202
 1413SOL    HW2 4635   2.457   3.858   5.440 -0.2454  0.7974  2.5054
 1414SOL     OW 4636   6.791   4.757   5.982  0.2417  0.1362 -0.1077
 1414SOL    HW1 4637   6.814   4.668   6.008  0.8303 -0.0349 -1.1605
 1414SOL    HW2 4638   6.752   4.795   6.060 -1.6547 -1.5915 -0.1174
 1415SOL     OW 4639   3.241   4.502   4.902 -0.1135  0.1571 -0.2694
 1415SOL    HW1 4640   3.299   4.430   4.875  0.5490  0.9615 -1.0434
 1415SOL    HW2 4641   3.214   4.479   4.991  2.6568  0.5103  0.7505
 1416SOL     OW 4642   1.970   6.107   0.549  0.5010 -0.2568 -0.2583
 1416SOL    HW1 4643   1.880   6.121   0.581  0.2203 -1.3811 -0.5115
 1416SOL    HW2 4644   2.000   6.194   0.523 -0.3130  0.2241  0.3543
 1417SOL     OW 4645   0.130   6.193   6.370  0.0889  0.1107 -0.3767
 1417SOL    HW1 4646   0.181   6.269   6.340  0.8488  0.2849  1.2407
 1417SOL    HW2 4647   0.193   6.141   6.420 -0.6617 -1.1256 -0.6907
 1418SOL     OW 4648   4.555   2.176   1.480 -0.1980  0.7505 -0.1687
 1418SOL    HW1 4649   4.633   2.126   1.454  0.2831 -0.1303  2.6493
 1418SOL    HW2 4650   4.487   2.146   1.419  1.0023 -0.4841 -0.9842
 1419SOL     OW 4651   5.758   1.950   2.873 -0.0640  0.5367 -0.2058
 1419SOL    HW1 4652   5.843   1.932   2.834  1.3630  0.7710  2.5453
 1419SOL    HW2 4653   5.740   2.041   2.852 -0.1345  0.2196 -1.6034
 1420SOL     OW 4654   4.162   2.537   2.002 -0.3455 -0.2668  0.5181
 1420SOL    HW1 4655   4.249   2.509   2.032  0.9671  2.1361 -0.7782
 1420SOL    HW2 4656   4.145   2.482   1.926  0.4461 -0.1878  0.2721
 1421SOL     OW 4657   3.354   5.317   5.248  0.4082 -0.4757 -0.0389
 1421SOL    HW1 4658   3.449   5.303   5.242  0.6879  0.4891  1.4963
 1421SOL    HW2 4659   3.329   5.271   5.328 -0.5487 -1.2331 -0.7579
 1422SOL     OW 4660   4.446   6.482   5.800 -0.8291  0.3782  0.6428
 1422SOL    HW1 4661   4.540   6.485   5.821 -1.2846  2.1844  2.7713
 1422SOL    HW2 4662   4.443   6.483   5.704  1.3213  1.3925  0.5267
 1423SOL     OW 4663   5.862   4.570   1.366 -0.6183  0.1941 -0.0627
 1423SOL    HW1 4664   5.796   4.561   1.435 -1.8098  0.4217 -1.1417
 1423SOL    HW2 4665   5.923   4.499   1.382 -0.6955  0.4241  1.4105
 1424SOL     OW 4666   4.457   6.562   5.245 -0.2314  0.7407 -0.6080
 1424SOL    HW1 4667   4.440   6.500   5.175 -0.3059 -2.0605  1.7300
 1424SOL    HW2 4668   4.423   6.645   5.213 -0.7915 -0.5484 -3.5955
 1425SOL     OW 4669   5.148   6.428   3.951  0.2922  0.0998 -0.0738
 1425SOL    HW1 4670   5.195   6.459   3.874 -1.6232  0.2250 -1.2444
 1425SOL    HW2 4671   5.094   6.503   3.978  0.6277 -0.0743  1.1826
 1426SOL     OW 4672   1.730   2.764   0.937 -0.1594  0.3775  0.1595
 1426SOL    HW1 4673   1.685   2.845   0.912 -0.4085 -0.2311 -1.4824
 1426SOL    HW2 4674   1.800   2.754   0.872 -0.6182 -1.1043 -0.1495
 1427SOL     OW 4675   3.260   5.416   5.743 -0.6946  0.0161  0.4683
 1427SOL    HW1 4676   3.284   5.479   5.675 -0.5415  0.7952  1.2230
 1427SOL    HW2 4677   3.165   5.419   5.746 -1.0089 -2.7856 -2.2557
 1428SOL     OW 4678   6.175   1.565   4.124  0.5784  0.1587  0.4568
 1428SOL    HW1 4679   6.185   1.621   4.047 -1.0348  1.6226  1.2413
 1428SOL    HW2 4680   6.082   1.541   4.124  1.2533 -2.9225 -0.0560
 1429SOL     OW 4681   5.581   0.770   3.682 -0.2105  0.2101 -1.0538
 1429SOL    HW1 4682   5.607   0.847   3.632  1.3191  0.5363  0.1494
 1429SOL    HW2 4683   5.663   0.721   3.693 -0.5630 -0.0297  0.7741
 1430SOL     OW 4684   5.918   3.902   0.866  0.0383  0.0540 -0.1654
 1430SOL    HW1 4685   5.862   3.852   0.925 -0.6685  1.0853  0.0566
 1430SOL    HW2 4686   5.916   3.852   0.784 -0.2781 -0.5338  0.1953
 1431SOL     OW 4687   2.821   6.256   5.134 -0.2661  0.1849 -0.3995
 1431SOL    HW1 4688   2.820   6.176   5.080  0.5794 -0.6300  0.7477
 1431SOL    HW2 4689   2.731   6.289   5.128 -0.3770 -0.2629 -1.7181
 1432SOL     OW 4690   6.736   1.287   4.512  0.9710  0.0848 -0.1779
 1432SOL    HW1 4691   6.704   1.377   4.513 -0.9046 -0.4944  2.2509
 1432SOL    HW2 4692   6.722   1.258   4.422  1.0619  2.0056 -0.8563
 1433SOL     OW 4693   4.910   3.852   6.750 -0.0078 -0.1525 -0.2788
 1433SOL    HW1 4694   4.995   3.880   6.784  0.4666 -1.5592 -0.2340
 1433SOL    HW2 4695   4.930   3.820   6.662 -0.0959 -2.4194  0.4777
 1434SOL     OW 4696   3.752   0.775   6.350 -0.3820  0.2715 -0.5349
 1434SOL    HW1 4697   3.666   0.804   6.320 -1.1121 -1.2834 -0.0195
 1434SOL    HW2 4698   3.735   0.734   6.435  1.1113  1.3201  0.3222
 1435SOL     OW 4699   1.087   3.670   1.449 -0.2405 -0.5526 -0.7284
 1435SOL    HW1 4700   1.174   3.642   1.421 -0.5337 -0.6265 -1.5961
 1435SOL    HW2 4701   1.039   3.684   1.368 -0.4304  1.4774 -0.3179
 1436SOL     OW 4702   2.980   3.422   5.619 -0.2701  0.8217 -0.4989
 1436SOL    HW1 4703   2.907   3.363   5.638  0.7054  0.2794  1.9395
 1436SOL    HW2 4704   2.959   3.503   5.665  0.6989  0.5898  0.4038
 1437SOL     OW 4705   1.082   1.190   2.605  0.2157  0.1455  0.3750
 1437SOL    HW1 4706   0.986   1.188   2.601  0.2302  0.1928 -0.0453
 1437SOL    HW2 4707   1.102   1.272   2.650  0.1243  2.4217 -3.2975
 1438SOL     OW 4708   1.965   3.453   2.326  0.2270 -0.0218 -0.2884
 1438SOL    HW1 4709   1.954   3.519   2.394  1.4728 -0.0063 -0.0755
 1438SOL    HW2 4710   2.050   3.473   2.287  0.3798 -1.1654 -0.5757
 1439SOL     OW 4711   2.099   0.974   3.076 -0.1122  0.3114  0.2603
 1439SOL    HW1 4712   2.151   1.048   3.108  2.1546 -1.1096  0.0751
 1439SOL    HW2 4713   2.126   0.963   2.986  1.0762 -1.9130  0.8277
 1440SOL     OW 4714   6.414   6.565   2.966 -0.1409  0.3152  0.4839
 1440SOL    HW1 4715   6.484   6.536   2.907 -1.5929 -0.1505 -1.1009
 1440SOL    HW2 4716   6.442   6.652   2.996  1.0298  0.2044 -0.2226
 1441SOL     OW 4717   3.232   6.064   6.766 -0.1040 -0.1289 -0.3344
 1441SOL    HW1 4718   3.291   6.107   6.704 -1.3851  2.7328  0.2983
 1441SOL    HW2 4719   3.284   6.054   6.845  0.7736 -1.5583 -1.0413
 1442SOL     OW 4720   3.914   5.789   1.979  0.4348 -0.1100 -0.1759
 1442SOL    HW1 4721   3.920   5.857   1.913 -0.8895  0.8432  0.6451
 1442SOL    HW2 4722   3.840   5.735   1.952  1.7931 -1.6386 -1.1208
 1443SOL     OW 4723   2.675   2.484   0.917 -0.0598 -0.1109 -0.5368
 1443SOL    HW1 4724   2.599   2.492   0.975  0.9272 -0.8310  0.9352
 1443SOL    HW2 4725   2.729   2.560   0.939 -0.4428  0.5314 -1.7517
 1444SOL     OW 4726   5.741   6.051   5.738 -0.2672 -0.3624  0.0106
 1444SOL    HW1 4727   5.725   6.104   5.659 -0.2412 -1.8497 -1.0280
 1444SOL    HW2 4728   5.728   6.112   5.810 -2.0181  0.6384 -1.0813
 1445SOL     OW 4729   6.082   1.065   3.804  0.0861  0.2804 -0.1981
 1445SOL    HW1 4730   6.018   1.107   3.862 -1.5773  0.2992 -1.9457
 1445SOL    HW2 4731   6.052   0.975   3.796 -0.9678  0.7521 -2.5607
 1446SOL     OW 4732   6.696   1.001   0.178 -0.5921  0.4782 -0.3510
 1446SOL    HW1 4733   6.686   1.095   0.165  0.8819  0.7747  0.4393
 1446SOL    HW2 4734   6.768   0.993   0.241 -1.2569 -1.1480  0.2539
 1447SOL     OW 4735   1.777   3.251   6.772  0.9113 -0.0362 -0.0300
 1447SOL    HW1 4736   1.682   3.243   6.776  0.7331  1.7589  0.2529
 1447SOL    HW2 4737   1.809   3.191   6.839 -0.0374 -0.2796  0.2221
 1448SOL     OW 4738   2.709   6.577   2.816  0.0664 -0.1966 -0.0530
 1448SOL    HW1 4739   2.640   6.511   2.812  0.1415 -0.2157 -2.2385
 1448SOL    HW2 4740   2.676   6.643   2.876 -1.6027 -0.4897 -0.6076
 1449SOL     OW 4741   2.446   4.634   5.067 -0.2470 -0.4113 -0.1844
 1449SOL    HW1 4742   2.535   4.668   5.071  0.3553 -1.6780 -1.5884
 1449SOL    HW2 4743   2.409   4.673   4.987 -0.5186 -0.8303 -0.2696
 1450SOL     OW 4744   4.348   6.488   3.642  0.2483  0.1027 -0.2264
 1450SOL    HW1 4745   4.298   6.444   3.574  1.9702 -0.1427 -1.3932
 1450SOL    HW2 4746   4.416   6.426   3.666 -0.1335  0.2987  1.5611
 1451SOL     OW 4747   0.889   0.853   5.105 -0.2891 -0.5299  0.0021
 1451SOL    HW1 4748   0.929   0.866   5.191  1.9343 -1.2923 -0.8330
 1451SOL    HW2 4749   0.942   0.784   5.065 -1.0720  0.0293 -2.1046
 1452SOL     OW 4750   4.920   4.570   3.433  0.4114 -0.4664  0.6493
 1452SOL    HW1 4751   4.999   4.536   3.474  0.2485 -2.2046 -0.3523
 1452SOL    HW2 4752   4.853   4.504   3.454 -0.1817 -0.2558 -0.5049
 1453SOL     OW 4753   5.993   1.073   1.861 -0.0536 -0.5868 -0.6104
 1453SOL    HW1 4754   5.933   0.998   1.856  0.4273 -0.9723 -0.6940
 1453SOL    HW2 4755   5.937   1.149   1.844 -0.6354 -0.8820 -0.0587
 1454SOL     OW 4756   0.044   4.407   1.176  0.2257 -0.0544  0.1132
 1454SOL    HW1 4757  -0.001   4.483   1.140 -0.3084 -0.7674 -0.7833
 1454SOL    HW2 4758   0.117   4.443   1.227  0.7620  1.0310 -1.3531
 1455SOL     OW 4759   1.482   1.753   6.244 -0.3972 -0.0260 -0.4907
 1455SOL    HW1 4760   1.498   1.674   6.193 -0.1307 -0.3001  0.0072
 1455SOL    HW2 4761   1.569   1.790   6.260 -0.2736 -1.0094  1.4178
 1456SOL     OW 4762   5.180   4.810   1.789 -0.3011  0.3001 -0.4455
 1456SOL    HW1 4763   5.240   4.856   1.847 -0.8892  0.8794 -0.2841
 1456SOL    HW2 4764   5.106   4.869   1.779  0.7096  1.2533 -3.5474
 1457SOL     OW 4765   1.212   6.154   6.019 -0.8168  0.2859 -0.0213
 1457SOL    HW1 4766   1.213   6.168   5.925  1.2340  0.0133 -0.0840
 1457SOL    HW2 4767   1.254   6.069   6.032  1.3096  1.4596  1.2553
 1458SOL     OW 4768   6.290   0.953   3.550 -0.8582 -0.3711  0.2619
 1458SOL    HW1 4769   6.339   0.940   3.631 -1.3058 -0.2270  0.5585
 1458SOL    HW2 4770   6.348   0.919   3.481 -0.3954 -0.3128  0.6178
 1459SOL     OW 4771   2.091   4.240   3.689 -0.4627 -0.2386  0.1874
 1459SOL    HW1 4772   2.020   4.207   3.634  0.8196 -0.6585 -1.2912
 1459SOL    HW2 4773   2.164   4.180   3.673  1.3046  2.0686 -0.9784
 1460SOL     OW 4774   1.994   2.300   6.365 -0.2277  0.7107 -0.7541
 1460SOL    HW1 4775   2.066   2.300   6.301 -0.5036  2.4859 -1.1227
 1460SOL    HW2 4776   1.921   2.259   6.319  0.2474 -0.2033 -0.7193
 1461SOL     OW 4777   3.749   0.595   6.900  0.8563 -0.6205 -0.0278
 1461SOL    HW1 4778   3.777   0.636   6.982 -0.5706  0.0753  0.1281
 1461SOL    HW2 4779   3.674   0.541   6.924  0.4524 -0.4450 -0.8680
 1462SOL     OW 4780   5.892   3.609   2.367  0.0113  0.4004 -0.2236
 1462SOL    HW1 4781   5.819   3.666   2.390 -0.0800 -0.1426  0.8975
 1462SOL    HW2 4782   5.852   3.538   2.318  0.0450  0.9805 -1.1178
 1463SOL     OW 4783   4.932   1.275   5.971  0.3053  0.1602 -0.5104
 1463SOL    HW1 4784   4.890   1.353   5.934 -0.7792  0.6598  1.6333
 1463SOL    HW2 4785   4.991   1.308   6.038  0.3910 -0.8353 -0.0752
 1464SOL     OW 4786   5.610   0.925   3.427 -0.1297  0.7286 -0.6423
 1464SOL    HW1 4787   5.552   0.915   3.352  0.9019  0.0080 -1.3748
 1464SOL    HW2 4788   5.692   0.882   3.400 -0.0648 -0.4810  1.2671
 1465SOL     OW 4789   0.964   2.033   0.055  0.5748 -0.4151  0.1015
 1465SOL    HW1 4790   0.936   2.038   0.147  2.3834  1.2352  0.6237
 1465SOL    HW2 4791   1.054   1.999   0.059 -0.2053 -2.9355 -1.3136
 1466SOL     OW 4792   0.264   4.037   0.874  0.6470  0.9821  0.1531
 1466SOL    HW1 4793   0.302   4.117   0.840 -0.8259  1.5904 -0.1461
 1466SOL    HW2 4794   0.176   4.062   0.903 -0.8625 -0.9286 -2.2533
 1467SOL     OW 4795   6.383   3.836   0.622  0.3758  0.3737  0.0478
 1467SOL    HW1 4796   6.442   3.823   0.696  1.1897 -1.1263 -0.8168
 1467SOL    HW2 4797   6.417   3.778   0.553 -2.9978 -1.8613  0.0145
 1468SOL     OW 4798   0.742   2.234   2.462 -0.3031 -0.6981 -0.0600
 1468SOL    HW1 4799   0.784   2.236   2.376  0.2823 -3.8406  0.0470
 1468SOL    HW2 4800   0.801   2.285   2.518  0.7056 -0.8411 -0.9651
 1469SOL     OW 4801   4.359   1.763   6.325  0.4640 -0.9443 -0.0008
 1469SOL    HW1 4802   4.418   1.724   6.390 -1.2995 -0.5563  1.9463
 1469SOL    HW2 4803   4.390   1.853   6.317  1.1838 -1.2115 -0.3254
 1470SOL     OW 4804   5.119   1.095   5.893  0.0272 -0.0321 -1.1877
 1470SOL    HW1 4805   5.053   1.163   5.907  0.6178  0.8221 -2.4022
 1470SOL    HW2 4806   5.107   1.068   5.802  0.7057 -0.5789 -1.1222
 1471SOL     OW 4807   6.447   2.851   0.951 -0.2271 -0.0678 -0.3482
 1471SOL    HW1 4808   6.527   2.878   0.996 -1.3634  0.7488  1.2740
 1471SOL    HW2 4809   6.426   2.765   0.989 -0.9238  0.4072  0.3882
 1472SOL     OW 4810   3.022   3.653   0.003 -0.1822  0.0597  0.1071
 1472SOL    HW1 4811   3.098   3.703   0.031  0.9381 -0.7479 -1.3270
 1472SOL    HW2 4812   2.961   3.719  -0.032  0.2355  0.6252  0.4313
 1473SOL     OW 4813   0.845   3.889   2.943  0.0393 -0.4792 -0.1030
 1473SOL    HW1 4814   0.798   3.870   2.862  0.1809 -1.0865 -0.0459
 1473SOL    HW2 4815   0.921   3.830   2.941  0.8683  0.5539 -0.2547
 1474SOL     OW 4816   0.018   0.713   4.449  0.5244 -0.7381  0.2373
 1474SOL    HW1 4817  -0.078   0.712   4.446  0.5233  0.1544 -0.8543
 1474SOL    HW2 4818   0.044   0.624   4.423  0.0064 -1.2220  1.3012
 1475SOL     OW 4819   2.565   5.900   1.881 -0.0750 -0.0164  0.1535
 1475SOL    HW1 4820   2.534   5.831   1.822  0.2485 -0.6822  0.7394
 1475SOL    HW2 4821   2.659   5.907   1.862  0.2126 -0.8410  1.1557
 1476SOL     OW 4822   4.932   0.219   5.349 -0.2460 -0.3525  0.2298
 1476SOL    HW1 4823   4.949   0.146   5.288 -0.2326 -0.2965  0.1663
 1476SOL    HW2 4824   4.867   0.272   5.304 -0.1976 -0.2833  0.2418
 1477SOL     OW 4825   2.759   1.378   2.586 -0.1141  0.4721 -0.0080
 1477SOL    HW1 4826   2.743   1.472   2.581  0.6391  0.5996 -0.0561
 1477SOL    HW2 4827   2.771   1.361   2.679  3.1603  1.0256 -0.2202
 1478SOL     OW 4828   4.998   5.950   2.388  0.3284 -0.5614  0.4696
 1478SOL    HW1 4829   4.960   5.882   2.331  1.0359 -1.9651  1.5913
 1478SOL    HW2 4830   4.979   6.032   2.343 -2.4019 -1.3046  0.0701
 1479SOL     OW 4831   5.490   5.123   3.988  0.0952  0.1136 -0.5446
 1479SOL    HW1 4832   5.500   5.031   4.015  2.6734  0.3811 -0.3755
 1479SOL    HW2 4833   5.431   5.160   4.053  0.6552 -0.9475  0.6090
 1480SOL     OW 4834   4.354   3.096   0.854 -0.2361  0.1266  0.4941
 1480SOL    HW1 4835   4.305   3.177   0.867 -0.2109  0.0391  1.1642
 1480SOL    HW2 4836   4.402   3.110   0.772 -2.4139 -0.3182 -0.9461
 1481SOL     OW 4837   6.108   3.770   2.769  0.1652 -0.2192 -0.6971
 1481SOL    HW1 4838   6.159   3.689   2.771 -0.5179 -0.6688  0.8886
 1481SOL    HW2 4839   6.141   3.821   2.843 -0.3027  0.3699 -0.8812
 1482SOL     OW 4840   0.955   2.818   2.287 -0.3925 -0.3693  0.0261
 1482SOL    HW1 4841   0.903   2.858   2.217 -2.5208 -0.5489  1.3930
 1482SOL    HW2 4842   0.990   2.738   2.249 -2.0843 -0.8172 -0.6954
 1483SOL     OW 4843   5.846   0.546   5.952 -0.4273 -0.5176  0.9498
 1483SOL    HW1 4844   5.909   0.603   5.996 -0.0089 -0.4599  0.3028
 1483SOL    HW2 4845   5.895   0.510   5.878 -0.7531 -1.5510  1.2229
 1484SOL     OW 4846   2.756   2.107   0.221 -0.2098 -0.1161 -0.1190
 1484SOL    HW1 4847   2.837   2.070   0.257 -0.7629 -0.6440  0.6206
 1484SOL    HW2 4848   2.752   2.196   0.258 -0.1831 -0.2437  0.1930
 1485SOL     OW 4849   6.041   0.045   2.480  0.1723 -0.3676 -0.7402
 1485SOL    HW1 4850   6.059   0.048   2.574  1.7131 -1.6589 -0.9438
 1485SOL    HW2 4851   6.062   0.133   2.449  1.1842 -0.3546 -0.0882
 1486SOL     OW 4852   1.887   3.638   1.484 -0.0347  0.3776  0.1782
 1486SOL    HW1 4853   1.804   3.592   1.474  0.1887  0.0458 -0.1963
 1486SOL    HW2 4854   1.868   3.728   1.460 -0.1927  0.2144 -0.3201
 1487SOL     OW 4855   6.180   3.693   0.755  0.4029 -0.3791  0.1477
 1487SOL    HW1 4856   6.135   3.636   0.693  1.4904 -0.4616 -0.5962
 1487SOL    HW2 4857   6.220   3.761   0.700 -0.0122  0.5151  0.9237
 1488SOL     OW 4858   5.714   3.200   6.217 -0.0251  0.1187  0.0725
 1488SOL    HW1 4859   5.727   3.112   6.251  0.8709 -0.1643 -0.9619
 1488SOL    HW2 4860   5.618   3.211   6.215 -0.1194 -0.4179  1.1915
 1489SOL     OW 4861   6.252   5.975   2.627  0.3157 -0.1949  0.2366
 1489SOL    HW1 4862   6.193   5.949   2.556  2.2793  0.1556 -1.6260
 1489SOL    HW2 4863   6.252   6.071   2.623  0.1385 -0.1567  1.0024
 1490SOL     OW 4864   0.013   4.338   2.056  0.2929 -0.2534  0.2293
 1490SOL    HW1 4865   0.095   4.295   2.035  0.4097 -0.0322  0.2286
 1490SOL    HW2 4866   0.003   4.326   2.151 -0.4978 -1.7070 -0.0165
 1491SOL     OW 4867   2.209   1.787   6.574 -0.7345 -0.4024 -0.3274
 1491SOL    HW1 4868   2.221   1.737   6.492 -0.5354 -2.1687  0.7265
 1491SOL    HW2 4869   2.295   1.826   6.590 -0.6663 -0.3624 -0.7704
 1492SOL     OW 4870   0.501   3.559   0.804  0.4499 -0.1268 -0.5080
 1492SOL    HW1 4871   0.581   3.575   0.754  0.4766  0.4230 -0.3058
 1492SOL    HW2 4872   0.492   3.464   0.807  2.2165 -0.2979  1.2147
 1493SOL     OW 4873   6.845   6.048   6.936  0.2029  0.1803 -0.1400
 1493SOL    HW1 4874   6.829   6.098   7.016  0.7699  2.7571 -1.5293
 1493SOL    HW2 4875   6.905   5.978   6.962  0.0160  0.6818  1.7365
 1494SOL     OW 4876   3.413   6.125   5.978  0.0878 -0.3427 -0.1370
 1494SOL    HW1 4877   3.365   6.117   5.895  1.5891  0.1677 -1.1000
 1494SOL    HW2 4878   3.440   6.036   5.999  0.8959 -0.3027 -0.9607
 1495SOL     OW 4879   3.837   6.202   4.688  0.4338  0.2092 -0.6137
 1495SOL    HW1 4880   3.804   6.291   4.674  0.7953  0.2619 -1.1946
 1495SOL    HW2 4881   3.929   6.215   4.714  0.4578  0.0073 -0.5981
 1496SOL     OW 4882   1.113   4.913   6.240  0.1031 -0.2565 -0.2842
 1496SOL    HW1 4883   1.124   4.917   6.145  0.0426 -0.9459 -0.3267
 1496SOL    HW2 4884   1.146   4.997   6.272  1.6007 -0.6403 -0.7724
 1497SOL     OW 4885   6.348   1.516   3.508  0.3097  0.7723 -0.0870
 1497SOL    HW1 4886   6.341   1.514   3.413 -0.8576  1.2033 -0.0175
 1497SOL    HW2 4887   6.343   1.424   3.534  0.8457  0.6352 -0.4430
 1498SOL     OW 4888   5.199   0.125   2.210  0.8064 -0.3635 -0.5897
 1498SOL    HW1 4889   5.284   0.129   2.254 -0.4562 -0.2721  2.0186
 1498SOL    HW2 4890   5.159   0.045   2.243 -0.4295 -0.0301 -1.2260
 1499SOL     OW 4891   0.327   4.316   1.044  0.0713 -0.4671  0.0928
 1499SOL    HW1 4892   0.302   4.404   1.015 -1.1376 -0.8877 -0.2299
 1499SOL    HW2 4893   0.252   4.262   1.021  0.5154 -1.4645  0.9191
 1500SOL     OW 4894   2.195   1.175   2.581  0.4639  0.0812 -0.1829
 1500SOL    HW1 4895   2.182   1.212   2.669  0.2167  0.0094 -0.1874
 1500SOL    HW2 4896   2.157   1.240   2.522 -1.4725 -0.8782 -0.0972
 1501SOL     OW 4897   0.387   4.696   3.110  0.2364 -0.7078  0.0191
 1501SOL    HW1 4898   0.471   4.700   3.156  0.3414 -1.7237 -0.0760
 1501SOL    HW2 4899   0.339   4.773   3.142  1.3390  0.1060 -0.2189
 1502SOL     OW 4900   0.905   5.115   5.537 -0.3614 -0.2598  0.2346
 1502SOL    HW1 4901   0.825   5.068   5.559 -0.3795 -1.7049 -2.4807
 1502SOL    HW2 4902   0.975   5.064   5.579 -0.6932 -0.0724  1.0380
 1503SOL     OW 4903   2.057   3.934   3.053  0.1584  0.1910 -0.2838
 1503SOL    HW1 4904   2.006   4.008   3.020 -0.7823  0.2678  1.2134
 1503SOL    HW2 4905   2.079   3.959   3.143 -0.7432 -1.6138  0.4782
 1504SOL     OW 4906   1.517   1.550   6.492  0.2469 -0.0291 -0.8104
 1504SOL    HW1 4907   1.534   1.456   6.487  0.9556  0.1135 -1.0404
 1504SOL    HW2 4908   1.441   1.563   6.435 -0.1233 -0.5262 -0.4417
 1505SOL     OW 4909   6.021   4.587   6.007 -0.2476 -0.0517 -0.1982
 1505SOL    HW1 4910   5.986   4.672   6.035  0.2781 -0.1434  0.7708
 1505SOL    HW2 4911   6.013   4.531   6.085  0.0127 -0.7040 -0.6354
 1506SOL     OW 4912   3.980   4.679   0.317  0.3263  0.4046 -0.0389
 1506SOL    HW1 4913   3.997   4.622   0.392  0.5929  0.2361 -0.2243
 1506SOL    HW2 4914   3.902   4.642   0.275 -0.0507  0.7238  0.3721
 1507SOL     OW 4915   1.915   0.947   2.190  0.2707 -0.0684 -0.3782
 1507SOL    HW1 4916   1.991   0.981   2.236  0.7733  0.8071 -1.7800
 1507SOL    HW2 4917   1.941   0.859   2.162  0.1479 -0.4038  0.5376
 1508SOL     OW 4918   3.669   2.487   4.617  0.6347 -0.5684 -0.0692
 1508SOL    HW1 4919   3.586   2.535   4.612  1.2390  0.4839 -0.3193
 1508SOL    HW2 4920   3.644   2.400   4.648 -0.5146 -0.1445  0.2644
 1509SOL     OW 4921   0.167   3.063   3.680  0.1486  0.1372 -0.1141
 1509SOL    HW1 4922   0.156   2.969   3.698 -3.5730  0.3478 -0.4824
 1509SOL    HW2 4923   0.205   3.066   3.592 -0.9252 -1.0752 -0.6610
 1510SOL     OW 4924   3.533   6.658   4.909  0.2544 -0.4556  0.1682
 1510SOL    HW1 4925   3.611   6.689   4.862 -0.7986  1.6308 -0.3529
 1510SOL    HW2 4926   3.479   6.617   4.841 -0.4295  0.8674 -0.1178
 1511SOL     OW 4927   2.718   1.268   0.336  0.1795 -0.4915  0.0504
 1511SOL    HW1 4928   2.711   1.346   0.390  0.1716  0.2404 -0.9767
 1511SOL    HW2 4929   2.713   1.195   0.398 -0.9372  0.2944  0.9198
 1512SOL     OW 4930   4.193   4.595   1.593 -0.5272 -0.0234 -0.3991
 1512SOL    HW1 4931   4.187   4.680   1.637 -0.2267 -0.4229  0.4111
 1512SOL    HW2 4932   4.273   4.555   1.626  0.1518  0.0153 -1.9310
 1513SOL     OW 4933   1.951   6.312   2.076  0.0490  0.4720  0.6903
 1513SOL    HW1 4934   2.044   6.298   2.058 -0.0909  0.6090 -0.1884
 1513SOL    HW2 4935   1.906   6.255   2.014 -0.4568  0.7633  0.7873
 1514SOL     OW 4936   0.896   1.421   1.419  0.3965 -1.0232 -0.3319
 1514SOL    HW1 4937   0.926   1.484   1.484  2.1119 -2.9157  0.8143
 1514SOL    HW2 4938   0.800   1.421   1.428  0.5133 -0.2366  1.2244
 1515SOL     OW 4939   0.408   0.445   3.415 -0.4890  0.4208  0.1263
 1515SOL    HW1 4940   0.368   0.399   3.489 -0.6827  0.1653 -0.1347
 1515SOL    HW2 4941   0.381   0.395   3.338 -0.9582  1.1428 -0.1898
 1516SOL     OW 4942   2.297   0.806   6.212  0.0334  0.4062 -0.0672
 1516SOL    HW1 4943   2.270   0.832   6.300  0.7800 -0.4793  0.4469
 1516SOL    HW2 4944   2.380   0.759   6.225  0.1558  0.2558 -1.2409
 1517SOL     OW 4945   6.864   3.057   5.304 -0.5509  0.0586 -0.2639
 1517SOL    HW1 4946   6.904   3.023   5.224 -0.1019  2.1112 -0.9765
 1517SOL    HW2 4947   6.797   3.118   5.273 -0.0508  1.2457  0.8996
 1518SOL     OW 4948   5.342   2.586   5.302  0.2866 -0.4483 -0.4820
 1518SOL    HW1 4949   5.324   2.662   5.248  0.4592  1.4012  1.8909
 1518SOL    HW2 4950   5.427   2.554   5.272  2.0914  2.6720  0.8546
 1519SOL     OW 4951   2.091   1.183   6.463 -0.7986  0.4128  0.0996
 1519SOL    HW1 4952   2.018   1.187   6.401 -0.3619 -0.7122 -0.5181
 1519SOL    HW2 4953   2.118   1.274   6.475 -1.0862  0.6706 -1.1269
 1520SOL     OW 4954   2.002   1.293   1.849  0.4911 -0.2646  0.3098
 1520SOL    HW1 4955   2.036   1.290   1.759 -2.1286  2.8721 -0.9835
 1520SOL    HW2 4956   2.075   1.327   1.901  1.3560  0.1229 -1.1050
 1521SOL     OW 4957   4.470   2.616   3.645 -0.5315  0.8489  0.7738
 1521SOL    HW1 4958   4.523   2.637   3.568 -1.8688  1.4606 -0.0176
 1521SOL    HW2 4959   4.449   2.523   3.636  3.4760 -0.5536  3.0877
 1522SOL     OW 4960   3.942   2.226   6.850 -0.6396  0.0563  0.0191
 1522SOL    HW1 4961   3.925   2.320   6.843 -0.7981  0.0025 -0.3552
 1522SOL    HW2 4962   3.979   2.203   6.765 -2.3088 -0.5683 -0.5696
 1523SOL     OW 4963   5.541   1.981   6.939  0.2039  0.1589  0.0714
 1523SOL    HW1 4964   5.532   2.049   7.005  0.1307  0.0117  0.2136
 1523SOL    HW2 4965   5.455   1.976   6.897  0.2467  0.2441 -0.0285
 1524SOL     OW 4966   2.699   1.385   3.900 -0.4543 -0.5677  0.1263
 1524SOL    HW1 4967   2.746   1.386   3.983 -0.0829 -0.3244 -0.0794
 1524SOL    HW2 4968   2.706   1.295   3.869 -0.6207 -0.6659  0.3713
 1525SOL     OW 4969   6.725   3.745   1.550 -0.2918  0.1432  0.2037
 1525SOL    HW1 4970   6.775   3.750   1.632 -1.3367  0.3342  0.8506
 1525SOL    HW2 4971   6.759   3.818   1.498 -0.0089  0.3700  0.6935
 1526SOL     OW 4972   1.531   6.182   3.439 -0.7170  0.0345 -0.0385
 1526SOL    HW1 4973   1.533   6.087   3.427  1.4863 -0.0035  0.1727
 1526SOL    HW2 4974   1.555   6.195   3.531  0.0425  0.7968 -0.3250
 1527SOL     OW 4975   5.474   4.001   3.583 -0.0107 -0.1600 -0.1507
 1527SOL    HW1 4976   5.444   3.928   3.529  1.0154 -1.9912  1.5993
 1527SOL    HW2 4977   5.430   3.989   3.667  0.2063  1.2319  0.1901
 1528SOL     OW 4978   3.829   1.892   5.432  0.3247  0.3684  0.5371
 1528SOL    HW1 4979   3.893   1.852   5.491 -0.2908 -2.0794 -0.3631
 1528SOL    HW2 4980   3.748   1.895   5.484 -0.1090 -1.3994  0.0404
 1529SOL     OW 4981   1.430   3.890   0.190 -0.0395  0.0394  0.0533
 1529SOL    HW1 4982   1.357   3.949   0.168 -0.6480 -0.8033 -0.2202
 1529SOL    HW2 4983   1.428   3.885   0.286 -2.2607 -2.3028 -0.0248
 1530SOL     OW 4984   2.849   3.818   2.749  0.2813 -0.5703  0.9386
 1530SOL    HW1 4985   2.784   3.808   2.819  0.3106 -0.5405  0.9701
 1530SOL    HW2 4986   2.865   3.912   2.744  1.0302 -0.6518  1.5819
 1531SOL     OW 4987   5.794   3.007   0.250 -0.2771  0.1254 -0.3649
 1531SOL    HW1 4988   5.762   2.958   0.326 -0.3366  1.2015  0.3303
 1531SOL    HW2 4989   5.715   3.035   0.204 -0.3267  1.3664  0.4308
 1532SOL     OW 4990   1.330   0.817   4.591  0.6453 -0.2942 -0.0392
 1532SOL    HW1 4991   1.403   0.861   4.546 -1.2275  2.0796 -1.0231
 1532SOL    HW2 4992   1.364   0.797   4.678  2.4691  0.7565 -0.4526
 1533SOL     OW 4993   1.407   5.014   1.206 -0.4716  0.1578  0.3178
 1533SOL    HW1 4994   1.341   4.945   1.203 -2.0650  1.6259  0.0933
 1533SOL    HW2 4995   1.448   5.011   1.119 -0.2744 -0.7066  0.4267
 1534SOL     OW 4996   0.717   3.276   3.466  0.1451 -0.4868 -0.1839
 1534SOL    HW1 4997   0.667   3.196   3.485 -0.4415  0.2032  1.3423
 1534SOL    HW2 4998   0.651   3.340   3.441  0.3477  0.1381  0.8230
 1535SOL     OW 4999   0.865   2.739   3.198 -0.7761 -0.0069  0.0928
 1535SOL    HW1 5000   0.892   2.669   3.139  1.1284  0.2795  0.5416
 1535SOL    HW2 5001   0.843   2.812   3.141 -0.2485 -0.1579 -0.3108
 1536SOL     OW 5002   2.849   6.820   1.428  0.1791  0.0994  0.0705
 1536SOL    HW1 5003   2.938   6.809   1.394 -0.0275 -0.2687 -0.3585
 1536SOL    HW2 5004   2.798   6.851   1.353  0.2249  1.6475  0.6552
 1537SOL     OW 5005   0.216   2.220   3.479  1.0796  0.0587 -0.1454
 1537SOL    HW1 5006   0.222   2.127   3.502 -1.5742  0.0387  0.8226
 1537SOL    HW2 5007   0.247   2.266   3.557 -1.3463 -0.0552  0.9592
 1538SOL     OW 5008   0.242   5.424   6.542 -0.1025 -0.1637  0.0745
 1538SOL    HW1 5009   0.201   5.397   6.460 -0.3697  0.4864 -0.0152
 1538SOL    HW2 5010   0.205   5.366   6.608  1.0892 -1.5783 -0.4282
 1539SOL     OW 5011   6.404   3.430   1.549 -0.4916  0.1416  0.0466
 1539SOL    HW1 5012   6.329   3.375   1.528 -1.0274  0.8267  0.1009
 1539SOL    HW2 5013   6.409   3.429   1.645  0.2690 -0.8005  0.0070
 1540SOL     OW 5014   4.418   3.591   6.624  0.2269 -0.3471 -0.1879
 1540SOL    HW1 5015   4.347   3.538   6.589  1.8513 -1.9599 -1.1824
 1540SOL    HW2 5016   4.483   3.594   6.555  1.8407 -0.2857  1.2577
 1541SOL     OW 5017   0.560   1.133   0.959  0.2586  0.0031  0.0692
 1541SOL    HW1 5018   0.482   1.089   0.925  0.8793 -1.0141 -0.0849
 1541SOL    HW2 5019   0.602   1.171   0.882  0.2251  0.0498  0.0738
 1542SOL     OW 5020   2.964   5.815   3.217  0.0746 -0.4633  0.5420
 1542SOL    HW1 5021   3.037   5.778   3.266  0.0502 -1.5621 -0.2002
 1542SOL    HW2 5022   2.922   5.739   3.176 -0.4525  0.3153 -0.4146
 1543SOL     OW 5023   2.109   2.453   2.136 -0.3724 -0.1789  0.1371
 1543SOL    HW1 5024   2.118   2.386   2.068 -0.6328  0.4142 -0.5091
 1543SOL    HW2 5025   2.197   2.464   2.171 -0.6484 -2.2662  1.6833
 1544SOL     OW 5026   1.943   5.247   4.751  0.2971 -0.0838  0.3059
 1544SOL    HW1 5027   1.877   5.213   4.690 -0.7832  2.8859 -0.3537
 1544SOL    HW2 5028   1.892   5.293   4.817  1.6220 -0.6186  1.7498
 1545SOL     OW 5029   6.424   4.936   0.083  0.3418  0.0182 -0.0470
 1545SOL    HW1 5030   6.417   4.910  -0.009 -1.6739 -0.5725  0.2334
 1545SOL    HW2 5031   6.346   4.901   0.124 -0.4725  3.0226  1.2459
 1546SOL     OW 5032   2.144   1.419   1.638  0.7834  0.2595 -0.0676
 1546SOL    HW1 5033   2.126   1.396   1.547 -0.3407 -0.1074  0.2188
 1546SOL    HW2 5034   2.238   1.434   1.642  1.5901 -3.6203 -0.4627
 1547SOL     OW 5035   3.285   2.352   6.392 -0.3684 -0.2773 -0.0738
 1547SOL    HW1 5036   3.190   2.357   6.379 -0.2781  0.0862 -0.6331
 1547SOL    HW2 5037   3.298   2.384   6.482 -0.8219 -0.8941  0.2181
 1548SOL     OW 5038   4.661   1.741   3.401 -0.2104 -0.3158 -0.5830
 1548SOL    HW1 5039   4.722   1.670   3.380 -1.3989 -1.5611 -0.0234
 1548SOL    HW2 5040   4.696   1.779   3.482  0.5756 -0.0970 -1.0247
 1549SOL     OW 5041   2.888   0.376   2.436  0.4232  0.7305  0.1497
 1549SOL    HW1 5042   2.806   0.394   2.482  0.8948  0.8281  0.9610
 1549SOL    HW2 5043   2.957   0.395   2.500  1.0624  0.0148 -0.3064
 1550SOL     OW 5044   0.889   1.792   5.050 -0.0953  0.4189  0.0470
 1550SOL    HW1 5045   0.857   1.718   4.998 -0.3240  0.7352 -0.2642
 1550SOL    HW2 5046   0.971   1.818   5.008  0.3049 -0.0492  0.5262
 1551SOL     OW 5047   0.093   6.104   1.653 -0.2823 -0.2092 -0.0366
 1551SOL    HW1 5048   0.094   6.147   1.567 -0.7190 -0.0884  0.0130
 1551SOL    HW2 5049   0.153   6.031   1.644  0.5556  0.4720 -0.0911
 1552SOL     OW 5050   3.616   6.659   6.156 -0.0692 -0.1154 -0.4237
 1552SOL    HW1 5051   3.545   6.616   6.203 -0.6006  1.8517  0.6711
 1552SOL    HW2 5052   3.650   6.591   6.097 -1.2309 -1.8133  0.7689
 1553SOL     OW 5053   4.527   2.727   4.399 -0.0647 -0.5766  0.1754
 1553SOL    HW1 5054   4.486   2.648   4.432  0.5203 -0.8567  0.2507
 1553SOL    HW2 5055   4.460   2.769   4.345 -0.7618 -0.5253  1.0601
 1554SOL     OW 5056   2.290   2.888   5.192  0.2423 -0.1387 -0.6377
 1554SOL    HW1 5057   2.195   2.883   5.200  0.0401  1.7679 -1.3886
 1554SOL    HW2 5058   2.318   2.798   5.178 -1.7043 -0.5038 -2.7660
 1555SOL     OW 5059   6.537   6.017   1.503 -0.2210 -0.2440 -0.5140
 1555SOL    HW1 5060   6.590   5.999   1.425  0.1753  0.0389 -0.3132
 1555SOL    HW2 5061   6.571   6.100   1.536 -0.1591 -0.5246  0.1453
 1556SOL     OW 5062   6.032   4.590   1.022 -0.3949 -0.4890  0.5127
 1556SOL    HW1 5063   6.061   4.595   1.113  0.5964 -1.0676  0.2455
 1556SOL    HW2 5064   6.085   4.519   0.984 -1.8520 -1.2640 -0.1326
 1557SOL     OW 5065   1.636   5.429   5.495 -0.4060  0.2772  0.0194
 1557SOL    HW1 5066   1.614   5.512   5.537 -0.3240 -0.3433  1.3685
 1557SOL    HW2 5067   1.555   5.377   5.501  0.3278 -0.7775  1.9005
 1558SOL     OW 5068   0.336   0.720   5.508  0.2200 -0.4036 -0.2117
 1558SOL    HW1 5069   0.279   0.793   5.486 -2.7689 -1.8559  2.0863
 1558SOL    HW2 5070   0.381   0.747   5.588  1.2232 -0.0879 -0.8592
 1559SOL     OW 5071   5.349   4.454   6.181  0.1437  0.3477  0.3489
 1559SOL    HW1 5072   5.375   4.380   6.235  2.2376 -0.2401 -1.3489
 1559SOL    HW2 5073   5.355   4.422   6.091 -0.9647  1.9728 -0.3610
 1560SOL     OW 5074   3.457   3.587   6.723 -0.3697 -0.0685 -0.2519
 1560SOL    HW1 5075   3.380   3.530   6.715 -0.3304  0.0211 -1.3950
 1560SOL    HW2 5076   3.523   3.547   6.667  0.0432  0.4817 -0.1681
 1561SOL     OW 5077   2.776   2.262   3.632  0.5427  0.3997 -0.1165
 1561SOL    HW1 5078   2.827   2.218   3.699 -0.2360 -2.0763 -1.0367
 1561SOL    HW2 5079   2.835   2.268   3.557  0.8284  1.5366  0.1706
 1562SOL     OW 5080   4.367   1.001   3.801  0.2873  0.1473 -0.2946
 1562SOL    HW1 5081   4.414   0.953   3.870  0.1876  1.4254  0.6954
 1562SOL    HW2 5082   4.431   1.062   3.765  0.3644 -0.5664 -1.4361
 1563SOL     OW 5083   6.152   1.483   1.430 -0.1172  0.1958 -0.0742
 1563SOL    HW1 5084   6.136   1.546   1.360 -0.8198 -0.5873 -0.6420
 1563SOL    HW2 5085   6.166   1.537   1.508  0.7693  1.0809 -0.8212
 1564SOL     OW 5086   5.570   6.263   6.642 -0.7388 -0.2746 -0.2192
 1564SOL    HW1 5087   5.522   6.283   6.562 -0.3230 -0.9099 -0.6309
 1564SOL    HW2 5088   5.541   6.331   6.704  1.3637  2.2852 -1.8210
 1565SOL     OW 5089   2.383   3.714   4.625 -0.0755  0.4808  0.2581
 1565SOL    HW1 5090   2.293   3.722   4.655 -0.5092  0.7880 -1.0740
 1565SOL    HW2 5091   2.388   3.627   4.587  1.1087 -0.8583  3.1538
 1566SOL     OW 5092   4.734   6.076   2.472 -0.0537 -0.4363 -0.3703
 1566SOL    HW1 5093   4.723   5.982   2.483 -1.6152 -0.3584 -0.9845
 1566SOL    HW2 5094   4.732   6.089   2.377 -1.0487  0.3093 -0.2673
 1567SOL     OW 5095   2.436   3.731   6.038 -0.2026  0.2870 -0.3470
 1567SOL    HW1 5096   2.348   3.729   6.075 -0.5063  1.1190 -1.0039
 1567SOL    HW2 5097   2.483   3.661   6.083 -1.4414 -0.7354 -0.5947
 1568SOL     OW 5098   1.593   6.243   3.710 -0.0319  0.2283 -0.3406
 1568SOL    HW1 5099   1.620   6.232   3.801 -1.6699  0.0370  0.1597
 1568SOL    HW2 5100   1.557   6.331   3.705  1.2264  0.7155 -1.1385
 1569SOL     OW 5101   1.098   2.836   0.677  0.2492 -0.1904  0.1873
 1569SOL    HW1 5102   1.062   2.749   0.662 -0.0093 -0.0059 -0.2902
 1569SOL    HW2 5103   1.190   2.821   0.698  0.5658 -0.5043 -1.2967
 1570SOL     OW 5104   6.651   3.269   0.645 -0.0429  0.2651  0.4364
 1570SOL    HW1 5105   6.564   3.297   0.617  0.0527 -0.4981 -0.7260
 1570SOL    HW2 5106   6.636   3.212   0.720 -0.6584 -0.5958 -0.3058
 1571SOL     OW 5107   2.001   1.165   3.368  0.6766  0.5066 -0.2408
 1571SOL    HW1 5108   1.952   1.090   3.336  0.9608 -0.1326  0.7870
 1571SOL    HW2 5109   2.082   1.165   3.316  0.2589  0.6837 -0.9043
 1572SOL     OW 5110   4.947   5.589   3.734  0.6186  0.3044 -0.2470
 1572SOL    HW1 5111   4.958   5.612   3.827  0.9003  2.1336 -0.6853
 1572SOL    HW2 5112   5.023   5.535   3.713  0.3769 -0.4104  0.6599
 1573SOL     OW 5113   6.866   2.186   5.198  0.0884  0.1653 -1.4801
 1573SOL    HW1 5114   6.797   2.145   5.147  0.2032 -0.3716 -1.2200
 1573SOL    HW2 5115   6.896   2.117   5.257 -0.2738  0.8677 -0.4501
 1574SOL     OW 5116   1.666   1.161   0.702  0.8458  0.0980  0.2999
 1574SOL    HW1 5117   1.655   1.212   0.622 -0.5163 -0.7783 -0.1172
 1574SOL    HW2 5118   1.677   1.071   0.671 -0.6867 -0.3980  1.0958
 1575SOL     OW 5119   3.221   5.460   4.283 -0.3293 -0.0747 -0.7324
 1575SOL    HW1 5120   3.142   5.513   4.299  0.2345  0.7118 -0.4560
 1575SOL    HW2 5121   3.189   5.381   4.240 -1.4432 -0.4060  0.6220
 1576SOL     OW 5122   5.864   0.021   0.763 -0.0612  0.3852 -0.0907
 1576SOL    HW1 5123   5.829  -0.032   0.834 -1.8066  2.9193  1.0921
 1576SOL    HW2 5124   5.945  -0.024   0.737 -1.3836 -2.7586  0.7867
 1577SOL     OW 5125   3.748   2.387   3.049  0.6288 -0.3262 -0.4127
 1577SOL    HW1 5126   3.699   2.313   3.085 -1.7538  0.5132 -1.7203
 1577SOL    HW2 5127   3.725   2.460   3.105  1.5875 -0.1798 -0.1843
 1578SOL     OW 5128   1.220   1.880   3.445  0.1645  0.4584  0.0655
 1578SOL    HW1 5129   1.253   1.812   3.387 -0.5196  1.0744 -1.1024
 1578SOL    HW2 5130   1.276   1.876   3.522  0.3179 -1.2142 -0.1032
 1579SOL     OW 5131   4.207   4.582   2.340 -0.0100 -0.4494 -1.0579
 1579SOL    HW1 5132   4.197   4.629   2.423  1.5101 -0.3369 -0.9053
 1579SOL    HW2 5133   4.294   4.607   2.310  0.1351 -1.8305 -1.8410
 1580SOL     OW 5134   3.148   5.808   4.861 -0.2792  0.6920  0.4091
 1580SOL    HW1 5135   3.187   5.862   4.793  2.6878 -2.1587 -0.4211
 1580SOL    HW2 5136   3.127   5.725   4.817 -0.1155 -0.5542  2.5203
 1581SOL     OW 5137   2.702   0.402   3.991 -0.3763  0.4552  0.2410
 1581SOL    HW1 5138   2.652   0.321   3.979 -1.7788  1.2789  0.2687
 1581SOL    HW2 5139   2.705   0.442   3.905 -1.0214  1.0955  0.5017
 1582SOL     OW 5140   1.940   5.060   1.549  0.6211 -0.3055  0.6676
 1582SOL    HW1 5141   1.907   4.977   1.516 -1.5346  0.4872  0.6561
 1582SOL    HW2 5142   1.876   5.087   1.615  0.5902  1.9034 -0.1839
 1583SOL     OW 5143   6.608   3.757   3.789  0.2382  0.4400 -0.3542
 1583SOL    HW1 5144   6.545   3.821   3.757 -0.0547  0.6322  0.5872
 1583SOL    HW2 5145   6.554   3.691   3.834  0.5620 -0.2958 -1.0297
 1584SOL     OW 5146   6.656   5.612   6.870  0.2253  0.6931 -0.5259
 1584SOL    HW1 5147   6.567   5.608   6.906  0.7813  0.2447  0.8456
 1584SOL    HW2 5148   6.666   5.704   6.843  0.0374  1.2558  1.1904
 1585SOL     OW 5149   4.192   0.997   1.282  0.1424 -0.5989 -0.6130
 1585SOL    HW1 5150   4.241   0.938   1.224  0.6693 -1.3573  0.5675
 1585SOL    HW2 5151   4.201   0.958   1.369  2.1176  2.1792  0.5920
 1586SOL     OW 5152   3.476   1.085   3.953 -0.0967 -0.0406  0.0047
 1586SOL    HW1 5153   3.440   1.025   3.887  0.0336 -0.4534  0.3042
 1586SOL    HW2 5154   3.504   1.028   4.024  2.1549  0.1728 -0.6607
 1587SOL     OW 5155   1.699   4.210   4.433 -0.1136  0.4785  0.2101
 1587SOL    HW1 5156   1.738   4.282   4.384 -0.7034  0.3190 -0.5272
 1587SOL    HW2 5157   1.677   4.145   4.366 -0.6962  0.1418  0.7140
 1588SOL     OW 5158   0.929   3.782   1.899  0.3741 -0.1257 -0.2881
 1588SOL    HW1 5159   0.859   3.716   1.900  1.3716 -1.2118  0.5804
 1588SOL    HW2 5160   0.991   3.751   1.834  0.4250  0.4282 -0.5069
 1589SOL     OW 5161   4.070   2.731   1.302  0.0415 -0.2638  0.3568
 1589SOL    HW1 5162   4.090   2.820   1.273  0.4670 -0.5254 -0.1591
 1589SOL    HW2 5163   4.153   2.699   1.338 -0.0210 -0.5732  0.2266
 1590SOL     OW 5164   1.108   3.531   3.139 -0.1229  0.8954 -0.4984
 1590SOL    HW1 5165   1.055   3.519   3.218  1.4477  0.7329  0.5751
 1590SOL    HW2 5166   1.096   3.450   3.089 -1.0086  0.9414 -0.3652
 1591SOL     OW 5167   2.493   5.031   0.132 -0.1269 -0.8833  0.6732
 1591SOL    HW1 5168   2.400   5.038   0.113  0.2091  1.8938 -0.4222
 1591SOL    HW2 5169   2.518   4.945   0.099 -1.4568  0.0508 -3.2716
 1592SOL     OW 5170   4.049   5.848   2.959 -0.1400  0.2224  0.0381
 1592SOL    HW1 5171   4.008   5.830   2.874 -0.6320  1.4958 -0.0193
 1592SOL    HW2 5172   3.996   5.918   2.996  0.5725  0.2459  1.0408
 1593SOL     OW 5173   5.316   1.634   5.089  0.0484 -0.2860  0.4177
 1593SOL    HW1 5174   5.232   1.594   5.113 -0.3459  0.4202  0.2501
 1593SOL    HW2 5175   5.291   1.714   5.043  0.8041  1.1221  2.3371
 1594SOL     OW 5176   4.692   0.743   1.056 -0.1531 -0.6866 -0.4142
 1594SOL    HW1 5177   4.598   0.747   1.074 -0.4395 -0.7639 -1.8058
 1594SOL    HW2 5178   4.720   0.834   1.056 -0.4964 -0.5688 -1.2615
 1595SOL     OW 5179   2.427   6.752   6.532 -0.1121 -0.3147 -0.5370
 1595SOL    HW1 5180   2.356   6.771   6.592  0.5929 -2.1460  0.9829
 1595SOL    HW2 5181   2.405   6.799   6.452 -2.7472 -0.4263  0.0565
 1596SOL     OW 5182   1.882   5.371   1.513 -0.1867 -0.0827 -0.0743
 1596SOL    HW1 5183   1.845   5.297   1.560 -0.3474  0.1133  0.1090
 1596SOL    HW2 5184   1.810   5.435   1.508  0.4903  0.8630  1.4578
 1597SOL     OW 5185   4.227   4.163   0.954 -0.4526  0.1636  0.3828
 1597SOL    HW1 5186   4.195   4.250   0.933 -0.5571 -0.1396 -0.7600
 1597SOL    HW2 5187   4.321   4.174   0.971 -0.5141  0.5299  0.4733
 1598SOL     OW 5188   4.398   2.471   6.900 -0.2559  0.2921 -0.4141
 1598SOL    HW1 5189   4.342   2.505   6.831  0.7710  1.7982 -0.5592
 1598SOL    HW2 5190   4.442   2.548   6.936 -0.8289 -0.4086  2.0101
 1599SOL     OW 5191   0.491   3.859   3.525  0.4445  0.2787 -0.4098
 1599SOL    HW1 5192   0.568   3.843   3.471  0.2098  0.3625 -0.7693
 1599SOL    HW2 5193   0.464   3.948   3.504  0.9088  0.6577  0.5455
 1600SOL     OW 5194   3.123   3.078   0.456 -0.2585  0.1884  0.2468
 1600SOL    HW1 5195   3.185   3.110   0.522  0.7595 -0.1424 -0.5317
 1600SOL    HW2 5196   3.045   3.132   0.469  1.1403  2.5665 -0.5530
 1601SOL     OW 5197   2.072   5.683   2.497 -0.5334 -0.7212 -0.5577
 1601SOL    HW1 5198   2.164   5.672   2.473 -0.1955  1.2984 -0.3970
 1601SOL    HW2 5199   2.023   5.649   2.421  0.4553  1.9700 -2.5689
 1602SOL     OW 5200   1.950   2.052   5.182 -0.6245  0.1454 -0.2450
 1602SOL    HW1 5201   1.896   2.060   5.261  1.0109  2.1264  0.7532
 1602SOL    HW2 5202   1.893   2.008   5.119 -2.5019 -0.1469  1.5433
 1603SOL     OW 5203   2.820   6.695   2.281 -0.4086  0.3795  0.4694
 1603SOL    HW1 5204   2.809   6.734   2.194  0.4281 -0.4809 -0.0515
 1603SOL    HW2 5205   2.731   6.682   2.313 -0.7604  3.5761  1.1229
 1604SOL     OW 5206   0.986   6.716   3.698 -0.5172  0.1547 -0.5312
 1604SOL    HW1 5207   0.934   6.686   3.772 -0.3894 -1.2030 -0.9642
 1604SOL    HW2 5208   1.028   6.796   3.729  0.1163 -0.7769  1.1274
 1605SOL     OW 5209   0.316   3.511   5.616 -0.1619 -0.3145 -0.1577
 1605SOL    HW1 5210   0.371   3.590   5.616  0.0496 -0.4495 -1.0534
 1605SOL    HW2 5211   0.261   3.520   5.694 -0.5708  1.0201 -0.5744
 1606SOL     OW 5212   3.469   4.792   4.434 -0.6547  0.0686 -0.0930
 1606SOL    HW1 5213   3.547   4.759   4.389 -1.2453 -0.2682 -0.8904
 1606SOL    HW2 5214   3.407   4.719   4.432 -0.8898  0.2280  0.8096
 1607SOL     OW 5215   5.550   4.512   1.124  0.2398  0.1593  0.1311
 1607SOL    HW1 5216   5.470   4.547   1.163  1.6593  1.7391  1.8458
 1607SOL    HW2 5217   5.546   4.538   1.032 -1.2666  0.0397  0.1429
 1608SOL     OW 5218   1.572   2.624   1.363 -0.2068 -0.1706  0.1718
 1608SOL    HW1 5219   1.624   2.594   1.288  0.4582  0.9307  0.1722
 1608SOL    HW2 5220   1.635   2.671   1.418 -0.8145 -0.4616  1.1369
 1609SOL     OW 5221   4.808   3.725   2.229 -0.1421 -0.5854  0.2525
 1609SOL    HW1 5222   4.791   3.677   2.310 -1.8716 -1.0585 -0.3449
 1609SOL    HW2 5223   4.897   3.701   2.205  0.0016 -1.3059  1.4340
 1610SOL     OW 5224   5.480   4.730   2.706  0.0161 -0.0874 -0.1080
 1610SOL    HW1 5225   5.398   4.719   2.657 -0.0705  3.0707 -0.8804
 1610SOL    HW2 5226   5.538   4.662   2.672 -1.4304 -0.7031 -1.4674
 1611SOL     OW 5227   0.266   1.232   3.360  0.0324  0.3109  0.2831
 1611SOL    HW1 5228   0.316   1.156   3.331 -0.8309 -0.4138  0.6453
 1611SOL    HW2 5229   0.288   1.241   3.453 -0.8577 -0.3012  0.5602
 1612SOL     OW 5230   0.252   6.641   6.576 -0.3674  0.0754 -0.2906
 1612SOL    HW1 5231   0.331   6.588   6.564 -1.2664 -1.3046 -0.3245
 1612SOL    HW2 5232   0.250   6.660   6.670  0.2624  0.5467 -0.3685
 1613SOL     OW 5233   4.128   6.822   6.930 -0.3166 -0.4741  0.0879
 1613SOL    HW1 5234   4.071   6.869   6.869  0.0536  1.3214  1.0298
 1613SOL    HW2 5235   4.206   6.878   6.936  0.3919 -1.5166  0.8760
 1614SOL     OW 5236   6.563   1.209   2.816  0.3795  0.2517 -0.2675
 1614SOL    HW1 5237   6.549   1.172   2.729 -1.1970 -0.1276  0.1183
 1614SOL    HW2 5238   6.537   1.300   2.808 -2.5857 -0.4433  0.4393
 1615SOL     OW 5239   2.562   5.571   4.796  0.0220  0.8282  0.4592
 1615SOL    HW1 5240   2.650   5.533   4.794 -0.8304 -1.3281  0.4556
 1615SOL    HW2 5241   2.509   5.509   4.746 -1.4087  2.3533  0.0177
 1616SOL     OW 5242   1.250   1.455   6.327  0.2156 -0.0948  0.1692
 1616SOL    HW1 5243   1.314   1.389   6.300 -0.7430 -1.2305  0.5960
 1616SOL    HW2 5244   1.247   1.517   6.254 -0.4261 -1.6981 -1.2433
 1617SOL     OW 5245   6.806   1.496   5.923  0.1309  0.3063 -0.8751
 1617SOL    HW1 5246   6.894   1.529   5.945 -0.5154  0.8403  1.0629
 1617SOL    HW2 5247   6.755   1.575   5.907 -0.7359  0.1741  1.0444
 1618SOL     OW 5248   1.789   6.790   3.480  0.2640 -0.0203  0.1277
 1618SOL    HW1 5249   1.776   6.844   3.558 -0.1168  0.8407 -0.5143
 1618SOL    HW2 5250   1.877   6.814   3.448  0.4015 -0.3383  0.2608
 1619SOL     OW 5251   3.709   0.096   4.297  0.1641  0.4298 -0.4306
 1619SOL    HW1 5252   3.777   0.039   4.260  1.3365  0.4560  1.5048
 1619SOL    HW2 5253   3.731   0.184   4.265  1.6219  0.5753  0.8590
 1620SOL     OW 5254   1.959   6.218   3.934 -0.2703 -0.0436  0.5780
 1620SOL    HW1 5255   1.866   6.208   3.914 -0.7181 -2.0385  3.0983
 1620SOL    HW2 5256   1.973   6.312   3.934 -1.1699  0.3052 -3.9891
 1621SOL     OW 5257   4.482   0.089   3.701  0.0987  0.8110  0.1559
 1621SOL    HW1 5258   4.461  -0.004   3.705 -0.6353  0.9801  0.5281
 1621SOL    HW2 5259   4.485   0.117   3.793  1.3539  0.9393  0.0908
 1622SOL     OW 5260   1.188   6.135   4.890  0.5171  0.1256 -0.9670
 1622SOL    HW1 5261   1.219   6.137   4.799  0.5366 -0.4342 -0.9746
 1622SOL    HW2 5262   1.148   6.049   4.900 -2.6442  1.4137 -1.4764
 1623SOL     OW 5263   0.766   3.656   3.887  0.3153  0.1750 -0.2482
 1623SOL    HW1 5264   0.744   3.563   3.883 -3.2405  0.9057 -1.2626
 1623SOL    HW2 5265   0.855   3.661   3.851  0.6226 -2.7921 -0.1541
 1624SOL     OW 5266   2.088   2.145   3.679 -0.1037 -0.5160  0.1440
 1624SOL    HW1 5267   2.047   2.081   3.621  0.1214  0.1369 -0.7528
 1624SOL    HW2 5268   2.182   2.125   3.675 -0.1737 -1.2166  1.2322
 1625SOL     OW 5269   6.173   5.842   2.366  0.0826  0.4576  0.3903
 1625SOL    HW1 5270   6.080   5.854   2.386  0.2683  0.3876  1.3579
 1625SOL    HW2 5271   6.183   5.747   2.358 -0.1780  0.5316 -1.0643
 1626SOL     OW 5272   3.290   1.330   4.305  0.3364  0.1083 -0.1595
 1626SOL    HW1 5273   3.349   1.398   4.272  0.1857 -0.0369 -0.7458
 1626SOL    HW2 5274   3.283   1.268   4.233  4.2694 -3.1324  1.8975
 1627SOL     OW 5275   4.109   6.819   0.307 -0.0649 -0.7815 -0.2313
 1627SOL    HW1 5276   4.173   6.820   0.377 -0.8241 -0.9930  0.4871
 1627SOL    HW2 5277   4.112   6.730   0.272  0.5471 -0.5833 -0.6965
 1628SOL     OW 5278   3.689   3.566   3.088 -0.0941  0.1798  0.3123
 1628SOL    HW1 5279   3.702   3.629   3.018 -1.2046  0.3403  0.2412
 1628SOL    HW2 5280   3.703   3.481   3.047  0.1635  0.3122  0.1190
 1629SOL     OW 5281   3.446   6.269   0.932  0.0462  0.6019 -0.0389
 1629SOL    HW1 5282   3.467   6.349   0.980  2.3474 -0.1131  0.2794
 1629SOL    HW2 5283   3.532   6.233   0.907 -0.8934 -1.8070 -0.0646
 1630SOL     OW 5284   6.153   6.697   4.110 -0.4320 -0.5734 -0.2392
 1630SOL    HW1 5285   6.156   6.790   4.134 -0.6819 -0.9281  1.2478
 1630SOL    HW2 5286   6.242   6.677   4.082  0.5295 -0.6350  2.5441
 1631SOL     OW 5287   6.840   5.722   2.330  0.1131  0.1404  0.1255
 1631SOL    HW1 5288   6.797   5.702   2.247  1.1347 -0.5127 -0.2504
 1631SOL    HW2 5289   6.793   5.800   2.362  0.3546  1.0072 -1.5351
 1632SOL     OW 5290   0.321   2.632   4.380 -0.1756 -0.1535  0.3815
 1632SOL    HW1 5291   0.401   2.675   4.412  0.8140 -0.6020 -1.3263
 1632SOL    HW2 5292   0.263   2.704   4.356  0.5934  0.2347 -0.3820
 1633SOL     OW 5293   2.608   2.485   3.185 -0.0358  0.1158 -0.0571
 1633SOL    HW1 5294   2.612   2.532   3.102 -0.9136 -1.6976 -1.1843
 1633SOL    HW2 5295   2.666   2.410   3.173  1.3924  0.8573  1.7203
 1634SOL     OW 5296   2.840   3.533   0.305  0.1209  0.1434  0.0445
 1634SOL    HW1 5297   2.808   3.603   0.249 -0.7360 -1.2265 -1.2546
 1634SOL    HW2 5298   2.921   3.504   0.263 -0.9913 -1.4960 -1.0972
 1635SOL     OW 5299   2.189   2.247   1.523 -0.4648 -0.2868  0.0581
 1635SOL    HW1 5300   2.100   2.244   1.558 -0.2202  0.2478  0.7378
 1635SOL    HW2 5301   2.183   2.302   1.445 -0.7729 -0.4662 -0.0460
 1636SOL     OW 5302   1.112   5.308   2.375 -0.2405  0.2431  0.2293
 1636SOL    HW1 5303   1.101   5.296   2.469  3.1024  0.2687  0.7635
 1636SOL    HW2 5304   1.064   5.388   2.355 -0.5194  0.5786  2.0606
 1637SOL     OW 5305   3.942   2.249   4.699 -0.3921  0.1424 -0.3491
 1637SOL    HW1 5306   3.938   2.156   4.675  1.7963 -0.0488 -0.1210
 1637SOL    HW2 5307   3.924   2.295   4.617  1.1416 -0.5099 -1.0960
 1638SOL     OW 5308   6.227   3.750   4.554  0.5889  0.2003  0.0960
 1638SOL    HW1 5309   6.173   3.703   4.617  0.1442  0.9673  0.3009
 1638SOL    HW2 5310   6.171   3.821   4.522  0.2896 -0.9613 -2.2098
 1639SOL     OW 5311   0.056   3.727   3.822 -0.1526 -0.4193 -0.0056
 1639SOL    HW1 5312  -0.011   3.785   3.786  0.2096  0.0100  0.0095
 1639SOL    HW2 5313   0.127   3.730   3.759  0.4764  0.3118  0.7174
 1640SOL     OW 5314   0.192   6.416   3.342 -0.1436 -0.9404 -0.1576
 1640SOL    HW1 5315   0.150   6.494   3.378 -1.5233 -1.8778  0.3596
 1640SOL    HW2 5316   0.223   6.443   3.256  0.0904  0.3782  0.3166
 1641SOL     OW 5317   3.268   6.144   4.124  0.5931  0.2170 -0.1077
 1641SOL    HW1 5318   3.271   6.067   4.066  2.6207  0.2572 -0.1277
 1641SOL    HW2 5319   3.342   6.131   4.184 -0.8434  0.6922  1.8559
 1642SOL     OW 5320   3.098   6.534   3.231 -0.1351 -0.2029  0.4522
 1642SOL    HW1 5321   3.171   6.593   3.213 -0.8537  0.1652 -1.4579
 1642SOL    HW2 5322   3.134   6.469   3.292  0.8550  1.8002  2.1400
 1643SOL     OW 5323   3.520   4.968   2.073  0.1764 -0.7312  0.3983
 1643SOL    HW1 5324   3.582   4.933   2.137 -2.0265 -1.0805  2.4950
 1643SOL    HW2 5325   3.480   4.890   2.033 -0.3398 -0.5499  0.5519
 1644SOL     OW 5326   0.011   2.170   2.583  0.1502  0.2104 -0.0871
 1644SOL    HW1 5327  -0.026   2.256   2.600  0.0116  0.0437  0.4627
 1644SOL    HW2 5328  -0.065   2.113   2.570  0.1991  0.6630 -3.1743
 1645SOL     OW 5329   6.697   2.984   6.338  0.2622 -0.3992 -0.0667
 1645SOL    HW1 5330   6.747   3.026   6.268 -0.0063  0.8713  0.4791
 1645SOL    HW2 5331   6.723   2.892   6.334  0.4766 -0.3076 -1.6366
 1646SOL     OW 5332   6.809   4.290   5.564 -0.3050  0.1384 -0.2635
 1646SOL    HW1 5333   6.760   4.307   5.484  1.6722  4.3577 -0.8626
 1646SOL    HW2 5334   6.860   4.211   5.546 -3.0003 -1.4503 -1.4312
 1647SOL     OW 5335   3.448   0.224   3.162  0.5961  0.0744 -0.3392
 1647SOL    HW1 5336   3.406   0.297   3.116  0.8032 -1.0546 -2.4373
 1647SOL    HW2 5337   3.541   0.232   3.141  0.5956 -0.8883 -0.7769
 1648SOL     OW 5338   2.233   2.026   5.428  0.6293 -0.1534 -0.3513
 1648SOL    HW1 5339   2.323   2.005   5.404  0.1344  0.7593 -3.2944
 1648SOL    HW2 5340   2.219   2.115   5.395 -0.3440  1.2249  3.1960
 1649SOL     OW 5341   4.774   0.224   4.969 -0.4230  0.2036  0.5385
 1649SOL    HW1 5342   4.749   0.136   4.942 -1.5332  0.5996  0.2432
 1649SOL    HW2 5343   4.695   0.261   5.008  0.7986  0.0505  3.4330
 1650SOL     OW 5344   2.282   1.791   4.621 -0.4159 -0.0985 -0.0486
 1650SOL    HW1 5345   2.220   1.735   4.668 -1.8345 -0.7762 -2.5279
 1650SOL    HW2 5346   2.239   1.877   4.619 -0.4569 -0.1235 -0.2590
 1651SOL     OW 5347   4.082   0.152   2.481 -0.3716  0.2486  0.4192
 1651SOL    HW1 5348   4.072   0.077   2.422 -2.3193  0.7445  0.0584
 1651SOL    HW2 5349   4.159   0.131   2.534  0.0516 -1.2656 -0.7262
 1652SOL     OW 5350   5.398   1.424   1.024  0.5411  0.0869 -0.2458
 1652SOL    HW1 5351   5.390   1.329   1.021 -0.1104  0.1535 -1.3722
 1652SOL    HW2 5352   5.388   1.452   0.933  3.7179  1.0462 -0.4031
 1653SOL     OW 5353   2.608   4.846   4.221  0.3737  0.2337 -0.6362
 1653SOL    HW1 5354   2.555   4.899   4.281  0.8594 -0.6980  0.6487
 1653SOL    HW2 5355   2.656   4.910   4.169 -0.4437  1.0655 -0.3954
 1654SOL     OW 5356   1.557   0.405   3.307  0.0169 -0.0960  0.0074
 1654SOL    HW1 5357   1.623   0.399   3.238 -0.2927 -1.9370 -0.1880
 1654SOL    HW2 5358   1.476   0.374   3.265 -0.7888  1.3187  0.4731
 1655SOL     OW 5359   0.454   5.071   6.436  0.0347 -0.1222 -0.3087
 1655SOL    HW1 5360   0.523   5.135   6.455  1.5573 -2.0896  1.2123
 1655SOL    HW2 5361   0.425   5.093   6.347  0.8947  2.2688 -0.0631
 1656SOL     OW 5362   6.519   3.188   4.653  0.6127 -0.0496  0.0050
 1656SOL    HW1 5363   6.551   3.186   4.563  0.1627 -0.0235 -0.1591
 1656SOL    HW2 5364   6.539   3.276   4.684  1.1074 -0.1812  0.0552
 1657SOL     OW 5365   5.155   6.129   4.793  0.6720 -0.6200  0.0841
 1657SOL    HW1 5366   5.085   6.134   4.857  0.1278 -1.8929 -0.3851
 1657SOL    HW2 5367   5.134   6.053   4.740  0.8093  0.6750 -1.9599
 1658SOL     OW 5368   2.879   6.500   3.376  0.1812  0.4188 -0.0522
 1658SOL    HW1 5369   2.943   6.518   3.306 -0.0843  0.7832 -0.2008
 1658SOL    HW2 5370   2.838   6.418   3.349 -1.6721  1.7818 -1.6268
 1659SOL     OW 5371   2.695   0.420   2.644 -0.1805  0.1728 -0.2443
 1659SOL    HW1 5372   2.674   0.506   2.682  2.1379  0.6385  0.0963
 1659SOL    HW2 5373   2.758   0.381   2.705 -1.9422 -2.2751  0.1532
 1660SOL     OW 5374   3.895   0.537   3.692 -0.4375 -0.1160  0.1693
 1660SOL    HW1 5375   3.901   0.589   3.612 -0.3025 -0.7704 -0.2566
 1660SOL    HW2 5376   3.820   0.574   3.739  0.0895  0.9049  0.2128
 1661SOL     OW 5377   2.089   1.349   2.784 -0.1244  0.9615 -0.0354
 1661SOL    HW1 5378   2.064   1.271   2.833  1.2131 -1.1235 -2.4043
 1661SOL    HW2 5379   2.009   1.401   2.779 -1.3921 -0.8179  0.6397
 1662SOL     OW 5380   2.906   6.453   2.065 -0.2322  0.0206 -0.2267
 1662SOL    HW1 5381   2.845   6.509   2.113  1.0044  0.2522  1.1444
 1662SOL    HW2 5382   2.884   6.364   2.093  0.6806  0.1741  1.0750
 1663SOL     OW 5383   2.688   6.194   3.867 -0.2283 -0.1912  0.9694
 1663SOL    HW1 5384   2.656   6.107   3.843  0.2920 -0.1120 -0.0874
 1663SOL    HW2 5385   2.773   6.201   3.822 -0.5127  1.0716  0.5960
 1664SOL     OW 5386   4.497   1.877   1.538  1.0160 -0.0979  0.0810
 1664SOL    HW1 5387   4.414   1.838   1.512  2.0487 -3.3876  1.1429
 1664SOL    HW2 5388   4.531   1.917   1.458 -0.7798 -0.1897 -0.7761
 1665SOL     OW 5389   3.689   0.218   5.982 -0.0590 -0.5676  0.9087
 1665SOL    HW1 5390   3.769   0.168   5.992  0.6936  0.6427  1.2025
 1665SOL    HW2 5391   3.638   0.171   5.917  1.6687 -0.4327 -0.6094
 1666SOL     OW 5392   5.019   2.746   5.144  0.2087  0.0991 -0.2438
 1666SOL    HW1 5393   5.033   2.656   5.173  0.4024  0.6568  1.4916
 1666SOL    HW2 5394   5.094   2.795   5.178  0.3209  0.8617 -1.5090
 1667SOL     OW 5395   0.092   0.609   1.503 -0.0161 -0.7287 -0.2513
 1667SOL    HW1 5396   0.122   0.550   1.434 -0.4209 -0.1772 -0.9059
 1667SOL    HW2 5397   0.149   0.685   1.497 -1.1534  0.0933 -1.1516
 1668SOL     OW 5398   0.822   6.256   2.163  0.0851  0.3228  0.3772
 1668SOL    HW1 5399   0.915   6.242   2.179 -0.4107 -0.4194  3.4400
 1668SOL    HW2 5400   0.789   6.171   2.133  0.0680 -0.0708  1.4627
 1669SOL     OW 5401   2.101   6.267   4.742  0.0087 -0.0898  0.7508
 1669SOL    HW1 5402   2.096   6.303   4.654 -1.2018  0.9351  1.2129
 1669SOL    HW2 5403   2.074   6.175   4.732  2.0984 -0.6732 -0.2640
 1670SOL     OW 5404   4.493   0.844   1.321  0.1297  0.0488  0.2054
 1670SOL    HW1 5405   4.573   0.845   1.374  0.2818 -0.6412  0.0047
 1670SOL    HW2 5406   4.468   0.751   1.317  0.8430 -0.1020 -1.9987
 1671SOL     OW 5407   5.702   6.467   2.155  0.2114 -0.3121 -0.1930
 1671SOL    HW1 5408   5.779   6.490   2.102  1.8595 -0.3715  2.0014
 1671SOL    HW2 5409   5.706   6.528   2.229 -1.2771 -1.0206  0.4961
 1672SOL     OW 5410   3.448   2.413   4.148 -0.0001  0.0711 -0.1427
 1672SOL    HW1 5411   3.438   2.386   4.239 -0.6140  1.2878  0.1599
 1672SOL    HW2 5412   3.426   2.506   4.147  4.1314  1.2332 -0.7813
 1673SOL     OW 5413   3.361   6.025   0.054 -0.3342  0.3523 -0.2678
 1673SOL    HW1 5414   3.339   5.950   0.109  1.6278 -0.4069 -0.4379
 1673SOL    HW2 5415   3.400   6.088   0.114  1.2386 -0.2271 -0.6334
 1674SOL     OW 5416   4.763   6.547   3.803  0.3745  0.1261 -0.4053
 1674SOL    HW1 5417   4.744   6.635   3.771 -0.5360 -0.1511 -0.6652
 1674SOL    HW2 5418   4.779   6.558   3.896  0.1746  0.5530 -0.4181
 1675SOL     OW 5419   0.684   5.791   0.135 -0.1577  0.7949  0.6129
 1675SOL    HW1 5420   0.649   5.832   0.056  0.6850  2.9959  1.3095
 1675SOL    HW2 5421   0.626   5.716   0.150  0.3969 -0.4724 -2.7378
 1676SOL     OW 5422   3.065   6.897   5.419  0.9496 -0.1111  0.1350
 1676SOL    HW1 5423   3.149   6.917   5.378  0.5172  0.3788 -0.5541
 1676SOL    HW2 5424   3.028   6.983   5.441 -0.6252 -0.0975 -2.2067
 1677SOL     OW 5425   6.888   0.930   4.222 -0.3490 -0.5660 -0.4079
 1677SOL    HW1 5426   6.826   0.873   4.268  1.2687 -1.8879  0.2530
 1677SOL    HW2 5427   6.929   0.982   4.291 -0.4951  0.0842 -0.7997
 1678SOL     OW 5428   6.059   0.203   2.734  0.6017 -0.0197 -0.0255
 1678SOL    HW1 5429   6.057   0.288   2.689 -0.3562 -0.4712 -0.8763
 1678SOL    HW2 5430   6.111   0.219   2.813  1.3116  1.0951 -0.6911
 1679SOL     OW 5431   1.198   1.283   5.843  1.1425  0.2026  0.5453
 1679SOL    HW1 5432   1.212   1.377   5.853 -1.4893  1.0004 -1.7376
 1679SOL    HW2 5433   1.208   1.267   5.749  1.1048 -1.7114  0.8258
 1680SOL     OW 5434   4.530   0.247   1.856 -0.2224  0.4347 -0.0766
 1680SOL    HW1 5435   4.543   0.332   1.814  1.4477  0.5219  0.5284
 1680SOL    HW2 5436   4.530   0.267   1.950 -0.6056 -0.1367  0.0443
 1681SOL     OW 5437   5.704   0.743   4.622  0.5338  0.2648 -0.1682
 1681SOL    HW1 5438   5.664   0.828   4.640  1.1207  0.4253  0.4081
 1681SOL    HW2 5439   5.631   0.687   4.594 -0.7752 -0.4223  3.9533
 1682SOL     OW 5440   6.082   0.048   1.799 -0.5246  0.0366  0.1608
 1682SOL    HW1 5441   6.074   0.111   1.870 -0.5602  0.3271 -0.1000
 1682SOL    HW2 5442   6.150  -0.013   1.828  0.3982  0.9131 -0.1128
 1683SOL     OW 5443   3.246   6.139   1.031  0.5569 -0.2133 -0.1097
 1683SOL    HW1 5444   3.321   6.165   0.979  0.1031  0.0133 -0.6595
 1683SOL    HW2 5445   3.238   6.206   1.098  1.3693 -0.7065  0.4973
 1684SOL     OW 5446   3.965   2.437   4.874 -0.6275  0.6473  0.3055
 1684SOL    HW1 5447   3.966   2.361   4.816  3.5066  1.4410 -0.9398
 1684SOL    HW2 5448   3.905   2.499   4.831 -0.6004 -0.2469 -1.0803
 1685SOL     OW 5449   3.477   4.962   4.958  0.2502  0.1861 -0.3411
 1685SOL    HW1 5450   3.456   4.941   5.049 -3.1247 -0.4726 -1.1325
 1685SOL    HW2 5451   3.450   4.884   4.909  1.5724  0.7063 -1.9683
 1686SOL     OW 5452   4.001   2.875   4.720  0.4357 -0.0219 -0.6756
 1686SOL    HW1 5453   4.003   2.922   4.804 -0.4300  1.3149 -1.3896
 1686SOL    HW2 5454   4.074   2.812   4.727 -0.5064 -0.9832  1.6501
 1687SOL     OW 5455   2.421   4.631   6.210  0.2102  0.3321 -0.0309
 1687SOL    HW1 5456   2.482   4.631   6.283  0.8074 -1.3280 -0.4919
 1687SOL    HW2 5457   2.467   4.585   6.140 -0.3945  1.7479 -1.4350
 1688SOL     OW 5458   6.162   3.699   2.040  0.1580 -0.6615  0.0803
 1688SOL    HW1 5459   6.105   3.736   1.973  0.5146  0.3652  0.3277
 1688SOL    HW2 5460   6.165   3.605   2.020  0.3359 -0.3652 -1.4014
 1689SOL     OW 5461   6.438   3.478   2.160  0.0377  0.0281 -0.1189
 1689SOL    HW1 5462   6.462   3.555   2.108  0.1115 -0.0493 -0.2005
 1689SOL    HW2 5463   6.518   3.425   2.162 -0.6282 -1.1624 -2.0404
 1690SOL     OW 5464   4.797   2.938   0.417  0.4876 -0.6920  0.3236
 1690SOL    HW1 5465   4.857   2.976   0.353 -1.2186  0.6806 -0.5613
 1690SOL    HW2 5466   4.776   3.011   0.476 -1.1108 -0.8108 -0.0414
 1691SOL     OW 5467   3.869   3.812   4.994  0.2521 -0.6469 -0.1947
 1691SOL    HW1 5468   3.851   3.729   5.039 -0.6244 -0.0942  0.4927
 1691SOL    HW2 5469   3.896   3.872   5.064  1.7527 -0.5635 -0.7887
 1692SOL     OW 5470   5.660   0.561   5.223 -0.1549 -0.3353 -0.3135
 1692SOL    HW1 5471   5.746   0.594   5.248  0.3066 -2.2360  0.8091
 1692SOL    HW2 5472   5.647   0.594   5.134  1.4009  0.5654 -0.2519
 1693SOL     OW 5473   2.065   0.897   4.638  0.0545 -0.4290  0.3793
 1693SOL    HW1 5474   2.044   0.914   4.730  1.3308  0.9392  0.4660
 1693SOL    HW2 5475   2.160   0.914   4.632 -0.4701  2.5445 -1.7583
 1694SOL     OW 5476   6.911   6.810   1.890  0.3195  0.0001 -0.3133
 1694SOL    HW1 5477   6.866   6.730   1.865  0.6285  0.6498 -3.2313
 1694SOL    HW2 5478   6.874   6.878   1.834  0.6214  1.7819  1.5280
 1695SOL     OW 5479   2.758   6.190   2.200 -0.4011 -0.0618  0.1689
 1695SOL    HW1 5480   2.812   6.157   2.129  0.0501 -0.4720  0.6894
 1695SOL    HW2 5481   2.741   6.113   2.255 -3.6109 -0.5595 -1.2502
 1696SOL     OW 5482   0.732   4.217   5.617  0.2569  0.3102  0.5057
 1696SOL    HW1 5483   0.696   4.196   5.703 -0.7892 -0.1188 -0.0198
 1696SOL    HW2 5484   0.663   4.267   5.573 -0.5304 -2.0167 -1.1711
 1697SOL     OW 5485   6.742   2.865   1.502 -0.0209 -0.3534  0.5169
 1697SOL    HW1 5486   6.813   2.831   1.447  0.1404 -1.0542  1.1349
 1697SOL    HW2 5487   6.665   2.863   1.446  0.5814  1.1481 -0.4138
 1698SOL     OW 5488   0.647   3.896   0.133  0.0493  0.0569 -0.0205
 1698SOL    HW1 5489   0.640   3.826   0.069  0.6140  0.8050 -0.9134
 1698SOL    HW2 5490   0.740   3.902   0.153  0.4144  2.2694 -1.9521
 1699SOL     OW 5491   4.225   4.829   5.505  0.4529  0.0292  0.2717
 1699SOL    HW1 5492   4.246   4.904   5.560 -0.3972  1.2246 -0.9942
 1699SOL    HW2 5493   4.291   4.763   5.529  1.3054  1.2062  1.2936
 1700SOL     OW 5494   0.443   6.361   5.310  0.2838  0.3606  0.2473
 1700SOL    HW1 5495   0.379   6.305   5.267  0.9701 -0.5995  0.4287
 1700SOL    HW2 5496   0.429   6.347   5.404  1.1977 -0.4257  0.2921
 1701SOL     OW 5497   0.924   4.436   6.691 -0.3105 -0.0965  0.6070
 1701SOL    HW1 5498   0.949   4.525   6.669 -0.5669 -0.3162 -0.6505
 1701SOL    HW2 5499   0.833   4.428   6.660  0.0593 -1.1080 -0.3090
 1702SOL     OW 5500   6.736   4.129   1.977  0.6115  0.0700 -0.0288
 1702SOL    HW1 5501   6.810   4.073   1.998  0.2010 -0.2021  0.7355
 1702SOL    HW2 5502   6.764   4.217   2.002  0.8606  0.0455 -0.2188
 1703SOL     OW 5503   6.553   1.817   2.768  0.1727 -0.1951 -0.2107
 1703SOL    HW1 5504   6.608   1.788   2.841  0.8179  0.0633 -0.5882
 1703SOL    HW2 5505   6.590   1.775   2.691 -0.4065 -0.3375 -0.4187
 1704SOL     OW 5506   4.320   1.398   5.065 -0.0917  0.7244 -0.1425
 1704SOL    HW1 5507   4.287   1.484   5.041 -1.9634  0.0826 -0.0023
 1704SOL    HW2 5508   4.349   1.409   5.156  0.0007  1.2780 -0.2337
 1705SOL     OW 5509   2.751   5.867   0.705  0.3959  0.0495 -0.3100
 1705SOL    HW1 5510   2.691   5.853   0.632 -0.6291  1.1905  0.2719
 1705SOL    HW2 5511   2.809   5.937   0.675  0.4796 -0.0194 -0.3105
 1706SOL     OW 5512   6.376   2.616   5.539  0.3089 -0.1364 -0.1333
 1706SOL    HW1 5513   6.426   2.571   5.471  0.9537  0.5655 -0.1424
 1706SOL    HW2 5514   6.443   2.656   5.595 -0.1442 -1.8544  1.7535
 1707SOL     OW 5515   6.025   2.870   2.163  0.0025  0.5726 -0.5563
 1707SOL    HW1 5516   5.972   2.834   2.091  0.6546 -0.2934 -0.6242
 1707SOL    HW2 5517   6.022   2.802   2.230  0.4526  0.8206 -0.2872
 1708SOL     OW 5518   3.565   3.232   5.374 -0.0103  0.0570 -0.0586
 1708SOL    HW1 5519   3.612   3.227   5.291 -0.4994 -0.0363 -0.3384
 1708SOL    HW2 5520   3.591   3.315   5.412 -0.0393  0.2577 -0.4715
 1709SOL     OW 5521   2.155   0.211   1.594 -0.5122 -0.4929  0.0645
 1709SOL    HW1 5522   2.203   0.210   1.511 -1.3552 -0.2400 -0.4380
 1709SOL    HW2 5523   2.212   0.258   1.655  1.3305 -2.9763  0.4078
 1710SOL     OW 5524   1.729   2.269   5.876  0.0191  0.0303 -0.3103
 1710SOL    HW1 5525   1.670   2.195   5.864  1.7405 -1.4188 -0.2343
 1710SOL    HW2 5526   1.751   2.296   5.787  0.5727 -0.5551 -0.3571
 1711SOL     OW 5527   6.376   4.557   6.892 -0.2231 -0.0794 -0.5839
 1711SOL    HW1 5528   6.282   4.566   6.877 -0.0487  1.5938 -0.8591
 1711SOL    HW2 5529   6.416   4.618   6.830  1.1722 -2.0167 -1.7436
 1712SOL     OW 5530   1.869   2.101   1.628 -0.6539  0.7510  0.1900
 1712SOL    HW1 5531   1.910   2.158   1.563  1.3244  1.1266  1.6407
 1712SOL    HW2 5532   1.820   2.036   1.577 -0.4852  1.9496 -1.5813
 1713SOL     OW 5533   4.259   2.037   3.025  0.2779  0.0753  0.1490
 1713SOL    HW1 5534   4.256   1.981   3.103  2.7856 -0.5752 -0.1016
 1713SOL    HW2 5535   4.210   2.115   3.049  1.9284  0.4061  2.8684
 1714SOL     OW 5536   3.790   0.414   6.486  0.2258  0.2167  0.3170
 1714SOL    HW1 5537   3.843   0.436   6.562  0.5086  0.6062  0.0086
 1714SOL    HW2 5538   3.846   0.432   6.411 -0.5031  1.0810 -0.0312
 1715SOL     OW 5539   0.561   4.052   0.678  0.3293  0.3305 -0.0720
 1715SOL    HW1 5540   0.536   3.968   0.716  1.3834  0.2380  0.4288
 1715SOL    HW2 5541   0.483   4.106   0.688 -0.2479 -0.4693 -0.0829
 1716SOL     OW 5542   6.086   2.526   1.146  0.6001  0.2298  0.2577
 1716SOL    HW1 5543   6.071   2.496   1.236  2.0458  0.8822  0.7455
 1716SOL    HW2 5544   6.181   2.534   1.139  0.9716 -3.4211 -2.4973
 1717SOL     OW 5545   2.466   0.389   2.994  0.3815 -0.1995  0.1011
 1717SOL    HW1 5546   2.544   0.436   3.025  0.7904 -0.9073  0.1885
 1717SOL    HW2 5547   2.466   0.308   3.046  0.1833 -0.6845 -0.6421
 1718SOL     OW 5548   6.458   0.590   1.775 -0.9940 -0.4124  0.6697
 1718SOL    HW1 5549   6.459   0.667   1.718  1.6134 -0.5168  0.4822
 1718SOL    HW2 5550   6.377   0.544   1.752 -0.9470  0.5362 -1.6134
 1719SOL     OW 5551   3.856   1.588   2.846 -0.6435  0.2873  0.1426
 1719SOL    HW1 5552   3.820   1.614   2.761 -1.0572 -0.2391  0.1552
 1719SOL    HW2 5553   3.820   1.501   2.862  2.3271 -1.2706 -0.8417
 1720SOL     OW 5554   2.009   4.335   2.121  0.2907  0.3681  0.0328
 1720SOL    HW1 5555   2.062   4.415   2.120 -0.3348  0.7944 -0.9508
 1720SOL    HW2 5556   1.929   4.359   2.073 -0.6442 -0.3553  1.1788
 1721SOL     OW 5557   6.466   5.034   1.368  0.3887  0.4086 -0.0814
 1721SOL    HW1 5558   6.427   5.062   1.285  0.2787 -1.1317 -0.5662
 1721SOL    HW2 5559   6.550   4.996   1.343 -0.9785 -3.0352  0.0491
 1722SOL     OW 5560   3.461   5.440   3.673  0.4084  0.3264  0.3384
 1722SOL    HW1 5561   3.388   5.383   3.698 -0.0606  0.7945  0.0694
 1722SOL    HW2 5562   3.488   5.408   3.587  1.8310 -1.0994  1.2573
 1723SOL     OW 5563   6.161   5.880   1.286 -0.0111 -0.3480  0.1501
 1723SOL    HW1 5564   6.169   5.952   1.348  2.2162  1.0619 -1.6533
 1723SOL    HW2 5565   6.248   5.869   1.250 -1.1384 -1.2722 -2.5504
 1724SOL     OW 5566   3.462   1.940   2.374  0.1896 -0.2953 -0.3797
 1724SOL    HW1 5567   3.390   1.967   2.318  1.6999  3.1337 -0.8852
 1724SOL    HW2 5568   3.484   2.017   2.426  2.4488 -1.6833  0.9432
 1725SOL     OW 5569   6.636   6.296   5.244 -0.3669 -0.3204  0.2179
 1725SOL    HW1 5570   6.585   6.254   5.314 -1.2923 -0.1211 -0.3145
 1725SOL    HW2 5571   6.716   6.243   5.238 -0.3216 -0.4072  1.3392
 1726SOL     OW 5572   2.424   2.396   0.270  0.7955 -0.3781 -0.4553
 1726SOL    HW1 5573   2.342   2.368   0.228  0.3675  1.8284 -1.2229
 1726SOL    HW2 5574   2.435   2.335   0.344 -0.0972 -2.3942 -1.8752
 1727SOL     OW 5575   1.602   4.620   4.358 -0.3968  0.4973 -0.1659
 1727SOL    HW1 5576   1.634   4.546   4.306  1.7083 -0.1245  1.8950
 1727SOL    HW2 5577   1.507   4.615   4.349 -0.2077 -0.6469 -2.4351
 1728SOL     OW 5578   1.779   1.345   2.734 -0.4865 -0.3025  0.0904
 1728SOL    HW1 5579   1.818   1.418   2.685 -0.8013 -0.1196  0.1098
 1728SOL    HW2 5580   1.753   1.283   2.666  0.6569 -0.8483  0.1185
 1729SOL     OW 5581   1.233   5.215   2.036  0.1116  0.2600  0.0188
 1729SOL    HW1 5582   1.225   5.162   2.115 -0.3046  0.4790  0.1276
 1729SOL    HW2 5583   1.217   5.305   2.065  1.6494  0.5733 -0.0117
 1730SOL     OW 5584   6.421   1.767   3.505  0.2787 -0.1073 -0.3371
 1730SOL    HW1 5585   6.388   1.677   3.509  0.9049 -0.2978  1.2282
 1730SOL    HW2 5586   6.419   1.790   3.412 -1.1686 -1.2551 -0.6206
 1731SOL     OW 5587   3.430   3.924   2.407  0.2909  0.1547  0.1608
 1731SOL    HW1 5588   3.525   3.918   2.406  0.6060  1.9352  4.1447
 1731SOL    HW2 5589   3.401   3.838   2.439  0.7852  0.4340  1.4113
 1732SOL     OW 5590   0.326   1.891   2.908  0.1516 -0.5731 -0.2331
 1732SOL    HW1 5591   0.401   1.938   2.945  0.0564 -0.3402 -0.3350
 1732SOL    HW2 5592   0.259   1.958   2.897  1.0033 -0.0919 -3.2370
 1733SOL     OW 5593   1.903   1.865   3.867 -0.3082  0.1639  0.1735
 1733SOL    HW1 5594   1.993   1.846   3.893 -0.0937 -1.3894 -1.5070
 1733SOL    HW2 5595   1.876   1.789   3.816 -2.1823  1.1055 -0.3364
 1734SOL     OW 5596   1.732   4.071   0.554  0.0499 -0.8063  0.9312
 1734SOL    HW1 5597   1.764   4.153   0.590 -0.8783 -0.8687  1.9312
 1734SOL    HW2 5598   1.641   4.089   0.529  0.2335 -1.1761 -0.0546
 1735SOL     OW 5599   5.890   5.294   5.897  0.0415 -0.4712  0.2446
 1735SOL    HW1 5600   5.980   5.326   5.910 -0.4337  1.0834 -0.1199
 1735SOL    HW2 5601   5.882   5.221   5.959  1.1701  0.1318  1.1494
 1736SOL     OW 5602   5.062   1.022   6.944  0.4192 -0.0082 -0.0971
 1736SOL    HW1 5603   5.010   1.010   6.864  1.4260 -0.7214 -0.6659
 1736SOL    HW2 5604   5.053   0.939   6.990  1.4513 -0.3304 -0.4504
 1737SOL     OW 5605   2.191   3.548   6.120  0.2575  0.9250  0.2578
 1737SOL    HW1 5606   2.242   3.468   6.131  0.3597  0.9850  0.2197
 1737SOL    HW2 5607   2.141   3.534   6.039  0.4595  0.9978  0.1186
 1738SOL     OW 5608   5.958   6.079   6.579 -0.3149  0.2607  0.0918
 1738SOL    HW1 5609   6.024   6.037   6.524  0.2214  0.5397  0.5143
 1738SOL    HW2 5610   6.008   6.122   6.648 -0.8604  1.5724 -0.3159
 1739SOL     OW 5611   3.664   6.853   3.417 -0.1562  0.5142 -0.5231
 1739SOL    HW1 5612   3.691   6.771   3.376  2.1050  0.5575  0.6818
 1739SOL    HW2 5613   3.694   6.846   3.507  1.1723  3.0749 -0.6561
 1740SOL     OW 5614   0.645   1.485   2.136  0.0373 -0.0771 -0.0063
 1740SOL    HW1 5615   0.717   1.433   2.174  1.1958  0.1077 -1.8571
 1740SOL    HW2 5616   0.663   1.574   2.164  0.6155 -0.0128 -0.5626
 1741SOL     OW 5617   4.047   1.675   2.327  0.2433 -0.1428 -0.6087
 1741SOL    HW1 5618   3.959   1.713   2.326  0.1661 -0.2991  0.1225
 1741SOL    HW2 5619   4.090   1.713   2.250 -1.9017 -3.5353 -3.7800
 1742SOL     OW 5620   2.435   2.346   6.785 -0.3834 -0.2616 -0.7372
 1742SOL    HW1 5621   2.354   2.300   6.805  0.1403 -1.0664 -0.4114
 1742SOL    HW2 5622   2.408   2.435   6.763 -1.2282 -0.0342  1.0676
 1743SOL     OW 5623   2.299   4.465   1.644 -0.2350  0.0962 -0.1753
 1743SOL    HW1 5624   2.386   4.501   1.625 -0.6750  1.7414  0.7473
 1743SOL    HW2 5625   2.304   4.438   1.736 -0.5768 -0.2182 -0.2460
 1744SOL     OW 5626   5.779   5.421   3.131  0.2935  0.7728 -0.6746
 1744SOL    HW1 5627   5.835   5.470   3.192 -0.3057  1.5027 -0.6960
 1744SOL    HW2 5628   5.697   5.469   3.130 -0.5843 -0.6478 -0.1312
 1745SOL     OW 5629   5.254   1.187   3.912  0.5454 -0.3834 -0.3933
 1745SOL    HW1 5630   5.169   1.165   3.950 -0.1658  0.5641 -1.4064
 1745SOL    HW2 5631   5.258   1.282   3.915  2.1002 -0.4411  0.7212
 1746SOL     OW 5632   4.522   4.523   0.443  0.6204  0.3263 -0.1633
 1746SOL    HW1 5633   4.605   4.508   0.489  0.8716 -0.8724 -0.9499
 1746SOL    HW2 5634   4.462   4.457   0.479  0.9055 -0.8345 -1.6884
 1747SOL     OW 5635   3.503   4.483   6.359 -0.0673 -0.0524 -0.1015
 1747SOL    HW1 5636   3.544   4.542   6.296 -1.8412  0.5433 -0.7679
 1747SOL    HW2 5637   3.513   4.396   6.320 -0.9493  0.2853 -1.1391
 1748SOL     OW 5638   5.626   4.346   4.361 -0.3896 -0.4791 -0.4438
 1748SOL    HW1 5639   5.617   4.405   4.287  0.7592 -0.0966 -0.3029
 1748SOL    HW2 5640   5.709   4.301   4.345  0.6139  0.6319  1.2941
 1749SOL     OW 5641   4.381   2.645   5.408  0.5871  0.2358  0.4491
 1749SOL    HW1 5642   4.410   2.714   5.467  1.4515  1.0956 -0.9429
 1749SOL    HW2 5643   4.459   2.621   5.358 -0.5261  0.9302 -1.7222
 1750SOL     OW 5644   6.302   0.176   5.162  0.3096 -0.1616  0.2300
 1750SOL    HW1 5645   6.321   0.115   5.233  0.3583 -0.7425 -0.2704
 1750SOL    HW2 5646   6.207   0.176   5.154  0.1953  1.1676  1.3731
 1751SOL     OW 5647   0.645   6.739   0.550  0.0154  0.3717 -0.1141
 1751SOL    HW1 5648   0.630   6.644   0.547  0.8409  0.1091  2.3514
 1751SOL    HW2 5649   0.663   6.758   0.642 -0.7362  3.0427 -0.4340
 1752SOL     OW 5650   2.658   4.399   3.970 -0.6117  0.7148 -0.1781
 1752SOL    HW1 5651   2.617   4.419   3.886 -0.6658  1.6937  0.0727
 1752SOL    HW2 5652   2.698   4.481   3.998  0.0073  0.2252  0.4261
 1753SOL     OW 5653   3.281   5.729   6.838  0.2192 -0.6406  0.4324
 1753SOL    HW1 5654   3.237   5.700   6.918 -1.6757  2.1242  0.5334
 1753SOL    HW2 5655   3.271   5.824   6.839  3.2811 -0.1720 -1.3593
 1754SOL     OW 5656   5.337   5.842   6.403  0.8906 -0.7796  0.4999
 1754SOL    HW1 5657   5.357   5.861   6.311 -0.1622  0.0222  0.4106
 1754SOL    HW2 5658   5.287   5.761   6.401  1.9726 -1.4605  0.4983
 1755SOL     OW 5659   3.047   0.475   0.524 -0.0596 -0.1535 -0.0863
 1755SOL    HW1 5660   2.972   0.414   0.525  0.7117 -1.1798  2.2869
 1755SOL    HW2 5661   3.107   0.437   0.460 -0.3946 -0.8828  0.0135
 1756SOL     OW 5662   3.864   3.779   3.937  0.0822  0.1796  0.0979
 1756SOL    HW1 5663   3.800   3.713   3.964  0.6487  0.1635  1.4569
 1756SOL    HW2 5664   3.842   3.797   3.845  0.0736 -2.0647 -0.3832
 1757SOL     OW 5665   1.438   1.133   1.192  0.1966  0.0018  0.3422
 1757SOL    HW1 5666   1.366   1.160   1.134  0.1304  0.5938  0.6881
 1757SOL    HW2 5667   1.442   1.203   1.258 -1.3479 -1.8061  2.5315
 1758SOL     OW 5668   0.123   3.575   1.433 -0.1009 -0.2652 -0.5556
 1758SOL    HW1 5669   0.073   3.599   1.355  0.9432  2.5657 -0.4639
 1758SOL    HW2 5670   0.159   3.488   1.413 -2.6437 -1.1285 -1.7481
 1759SOL     OW 5671   2.034   2.578   4.871  0.1391  0.1311 -0.3452
 1759SOL    HW1 5672   2.086   2.530   4.807  0.6769  0.1035  0.1016
 1759SOL    HW2 5673   2.076   2.560   4.955  0.3559  1.3701 -0.1591
 1760SOL     OW 5674   3.955   4.646   5.256 -0.1119  0.0118 -0.1625
 1760SOL    HW1 5675   3.939   4.725   5.307  1.2637  1.1571 -1.4047
 1760SOL    HW2 5676   3.869   4.607   5.242 -1.0777  2.3579 -1.1505
 1761SOL     OW 5677   2.789   6.760   1.780  0.0725  0.1897  0.1222
 1761SOL    HW1 5678   2.843   6.681   1.777  0.0770  0.1815  0.4188
 1761SOL    HW2 5679   2.847   6.829   1.747  0.6484  0.3972  1.5024
 1762SOL     OW 5680   5.379   4.630   5.203  0.2548  0.2376  0.1247
 1762SOL    HW1 5681   5.380   4.666   5.114 -1.4864 -0.2568 -0.1129
 1762SOL    HW2 5682   5.446   4.561   5.201 -1.5092 -1.5377 -1.5942
 1763SOL     OW 5683   3.492   3.439   6.136  0.0129 -0.4260  0.4424
 1763SOL    HW1 5684   3.541   3.357   6.144 -1.2880 -1.1593  1.1334
 1763SOL    HW2 5685   3.401   3.415   6.151 -0.8824  0.5641 -2.5559
 1764SOL     OW 5686   3.645   5.379   6.751 -0.4440  0.0297  0.4668
 1764SOL    HW1 5687   3.684   5.391   6.665  0.1159 -1.1138  0.5541
 1764SOL    HW2 5688   3.595   5.460   6.765  0.8877  1.0022 -0.1553
 1765SOL     OW 5689   0.573   1.340   4.759  0.4436  0.0853 -0.1835
 1765SOL    HW1 5690   0.560   1.432   4.779 -0.6814 -0.2063  0.4934
 1765SOL    HW2 5691   0.501   1.295   4.804  0.3054 -1.0064 -1.4414
 1766SOL     OW 5692   5.329   5.047   6.328  0.3684 -0.4040  0.3924
 1766SOL    HW1 5693   5.316   5.005   6.413  2.0340 -0.3205  0.7069
 1766SOL    HW2 5694   5.328   5.140   6.347 -2.2196 -0.2306 -0.1532
 1767SOL     OW 5695   3.399   3.001   6.202  0.6650 -0.3776 -0.3557
 1767SOL    HW1 5696   3.308   3.031   6.194  0.8571  0.7787  1.3784
 1767SOL    HW2 5697   3.451   3.081   6.206  1.8351 -1.0322 -1.7863
 1768SOL     OW 5698   1.254   6.360   6.182 -0.2561 -0.9394 -0.2957
 1768SOL    HW1 5699   1.226   6.299   6.115  3.4475  0.1208 -3.1547
 1768SOL    HW2 5700   1.213   6.443   6.159  0.9444 -0.5968 -1.3037
 1769SOL     OW 5701   3.099   1.551   4.592 -0.4347  0.1923 -0.1409
 1769SOL    HW1 5702   3.014   1.507   4.598  1.1108 -3.6606 -2.2580
 1769SOL    HW2 5703   3.104   1.581   4.501  1.6428 -3.0532 -1.3097
 1770SOL     OW 5704   0.876   6.362   3.162  0.4163 -0.7405  0.1624
 1770SOL    HW1 5705   0.826   6.425   3.214 -0.2995 -1.0689 -0.1050
 1770SOL    HW2 5706   0.960   6.355   3.207  0.6983  0.7736 -0.0922
 1771SOL     OW 5707   0.488   5.317   2.758  0.4512  0.6471 -0.6455
 1771SOL    HW1 5708   0.419   5.270   2.711 -0.0193 -0.1491  0.7655
 1771SOL    HW2 5709   0.476   5.409   2.734  0.3196  0.2643 -2.1475
 1772SOL     OW 5710   5.036   1.061   4.406  0.0598 -0.4814  0.0144
 1772SOL    HW1 5711   5.039   1.156   4.398  0.5032 -0.5097 -0.2086
 1772SOL    HW2 5712   4.947   1.037   4.379  0.0182 -0.1486 -0.1490
 1773SOL     OW 5713   5.347   5.860   3.910  0.9957 -0.5132  0.0563
 1773SOL    HW1 5714   5.437   5.874   3.941  1.3046 -1.1178 -0.5433
 1773SOL    HW2 5715   5.342   5.767   3.891  0.5842 -0.2956 -0.9667
 1774SOL     OW 5716   2.609   6.739   2.990  0.2524 -0.1227 -0.2101
 1774SOL    HW1 5717   2.651   6.764   3.073  0.0441 -0.9872  0.1698
 1774SOL    HW2 5718   2.559   6.816   2.964  1.1937  0.5420 -0.0981
 1775SOL     OW 5719   2.353   0.231   2.754  0.1415 -0.0890 -0.4467
 1775SOL    HW1 5720   2.373   0.298   2.820 -1.6669  0.2717 -0.2235
 1775SOL    HW2 5721   2.413   0.250   2.682 -0.5613  2.0488 -0.5477
 1776SOL     OW 5722   2.112   0.121   4.528 -0.5933  0.2360 -0.4600
 1776SOL    HW1 5723   2.172   0.158   4.464 -0.1055 -1.1740 -0.8614
 1776SOL    HW2 5724   2.059   0.195   4.559  0.9513  1.3994 -0.5303
 1777SOL     OW 5725   5.301   5.168   4.193  0.5554  0.3270  0.7865
 1777SOL    HW1 5726   5.227   5.164   4.254  1.7184 -0.6735  2.2046
 1777SOL    HW2 5727   5.342   5.252   4.212 -2.4524  2.9591 -2.9000
 1778SOL     OW 5728   2.369   1.660   3.851 -0.2926 -0.1661  0.0625
 1778SOL    HW1 5729   2.379   1.565   3.848  0.9891 -0.0531  0.1996
 1778SOL    HW2 5730   2.451   1.691   3.888 -0.3500  1.0582 -0.7937
 1779SOL     OW 5731   4.618   6.127   5.998  0.3138 -1.0418  0.4160
 1779SOL    HW1 5732   4.635   6.090   5.911  0.0315 -2.5479  0.9752
 1779SOL    HW2 5733   4.526   6.153   5.995  0.9843  1.5819 -0.6324
 1780SOL     OW 5734   1.391   1.691   0.237 -0.4204  0.0506 -0.5172
 1780SOL    HW1 5735   1.355   1.634   0.305 -1.6608 -1.7429 -2.5531
 1780SOL    HW2 5736   1.318   1.748   0.213  0.6888  2.3864  1.2003
 1781SOL     OW 5737   0.504   6.869   3.451 -0.2851  0.0256  0.5918
 1781SOL    HW1 5738   0.511   6.955   3.409 -0.5327  0.2469  1.0016
 1781SOL    HW2 5739   0.457   6.815   3.387 -2.3492  0.8755  1.3128
 1782SOL     OW 5740   5.529   0.052   4.044  0.3469 -0.2813 -0.3888
 1782SOL    HW1 5741   5.475   0.123   4.010 -0.0686 -0.4794 -0.1408
 1782SOL    HW2 5742   5.572   0.015   3.966 -0.5660 -0.7046 -0.7035
 1783SOL     OW 5743   0.342   1.333   3.609  0.5843 -0.5558 -0.5825
 1783SOL    HW1 5744   0.413   1.397   3.616  0.8625 -0.7488 -1.5503
 1783SOL    HW2 5745   0.269   1.373   3.656  0.3291  1.0739 -2.2719
 1784SOL     OW 5746   3.847   3.758   0.053 -0.2067 -0.1121  0.5904
 1784SOL    HW1 5747   3.763   3.779   0.093  0.7360 -0.3551  2.8494
 1784SOL    HW2 5748   3.898   3.839   0.060 -0.1529 -0.0390 -0.5270
 1785SOL     OW 5749   4.025   2.464   5.425 -0.1468  0.0596  0.2631
 1785SOL    HW1 5750   4.047   2.495   5.513  0.3400  0.1794  0.1020
 1785SOL    HW2 5751   3.948   2.516   5.400 -0.4548 -0.1690  0.7210
 1786SOL     OW 5752   0.957   6.012   6.721 -0.0359  0.1823  0.0335
 1786SOL    HW1 5753   1.019   6.074   6.682  0.5945 -0.2604  0.3326
 1786SOL    HW2 5754   0.991   5.926   6.698 -1.1103 -0.0677 -0.6948
 1787SOL     OW 5755   6.080   6.535   2.335  0.1147  0.4097  0.4209
 1787SOL    HW1 5756   6.123   6.618   2.313  3.1136 -0.4026  2.5628
 1787SOL    HW2 5757   6.056   6.545   2.428 -3.3183  0.2738 -0.3034
 1788SOL     OW 5758   4.437   5.942   6.760  0.5012  0.0959  0.8196
 1788SOL    HW1 5759   4.374   5.887   6.714  1.9334 -2.2757  1.5125
 1788SOL    HW2 5760   4.397   5.957   6.846 -0.1819  0.7559  0.4069
 1789SOL     OW 5761   0.584   0.451   3.805 -0.5168  0.2425  0.3599
 1789SOL    HW1 5762   0.663   0.497   3.776  1.0711 -2.3718  0.2413
 1789SOL    HW2 5763   0.600   0.433   3.898 -0.5002 -1.1150  0.1133
 1790SOL     OW 5764   5.406   3.589   4.677  0.2791  0.1830  0.1828
 1790SOL    HW1 5765   5.452   3.507   4.660 -1.5160 -1.1217  1.2362
 1790SOL    HW2 5766   5.339   3.565   4.741 -1.4250  2.0971 -0.7943
 1791SOL     OW 5767   4.460   3.193   2.158  0.5561  0.4236 -0.4480
 1791SOL    HW1 5768   4.506   3.217   2.078  0.3647 -2.1036 -1.4053
 1791SOL    HW2 5769   4.389   3.257   2.166  1.7408  1.8656 -1.2180
 1792SOL     OW 5770   4.376   3.228   5.721 -0.4000 -0.0188 -0.0094
 1792SOL    HW1 5771   4.463   3.257   5.693  0.2531 -1.9013 -0.1473
 1792SOL    HW2 5772   4.345   3.175   5.647 -1.5210  0.3447  0.1894
 1793SOL     OW 5773   0.265   3.100   3.394  0.8355  0.4707  0.5172
 1793SOL    HW1 5774   0.350   3.083   3.352  0.5213 -0.1123  0.1056
 1793SOL    HW2 5775   0.228   3.173   3.344  0.0942 -0.7513 -0.8094
 1794SOL     OW 5776   0.222   4.478   2.366  0.2687  0.0287  0.6119
 1794SOL    HW1 5777   0.156   4.458   2.432 -0.4716 -0.3290 -0.2084
 1794SOL    HW2 5778   0.303   4.486   2.415 -0.5096  1.3185  1.7666
 1795SOL     OW 5779   5.974   6.004   5.456 -0.6044 -0.3476  0.8304
 1795SOL    HW1 5780   6.041   6.072   5.445  0.1562 -1.3160 -0.6743
 1795SOL    HW2 5781   6.003   5.954   5.532 -0.1769 -0.1428  0.8041
 1796SOL     OW 5782   5.988   0.878   6.371 -0.6568  0.0039 -0.6226
 1796SOL    HW1 5783   5.960   0.834   6.291 -0.6453 -2.2663  0.5423
 1796SOL    HW2 5784   5.908   0.886   6.423 -0.6082  1.1812 -0.7040
 1797SOL     OW 5785   2.564   2.242   5.791 -0.2156  0.2667 -0.5018
 1797SOL    HW1 5786   2.534   2.303   5.859  0.7519  0.7720 -0.5164
 1797SOL    HW2 5787   2.654   2.269   5.773  1.1535 -2.6393  1.2568
 1798SOL     OW 5788   6.141   2.545   2.637 -1.0459  0.1417 -0.4195
 1798SOL    HW1 5789   6.131   2.453   2.661 -0.2367 -0.4913 -2.3117
 1798SOL    HW2 5790   6.131   2.592   2.719 -1.1109 -1.6536  0.6649
 1799SOL     OW 5791   1.106   0.305   3.464 -0.1258 -0.3843 -0.1272
 1799SOL    HW1 5792   1.041   0.320   3.395  2.4017  0.7237 -2.4149
 1799SOL    HW2 5793   1.181   0.266   3.419  1.4049 -0.2313  2.1281
 1800SOL     OW 5794   3.782   0.720   3.233 -0.6701 -0.5684 -0.0155
 1800SOL    HW1 5795   3.757   0.812   3.240 -0.1619 -0.5018  1.2133
 1800SOL    HW2 5796   3.728   0.676   3.300  1.5017 -0.6051  1.8277
 1801SOL     OW 5797   5.398   4.237   3.916 -0.2103 -0.4207  0.5615
 1801SOL    HW1 5798   5.480   4.197   3.891  0.2261 -0.2693  1.6772
 1801SOL    HW2 5799   5.412   4.331   3.905 -0.8919 -0.4875 -1.0815
 1802SOL     OW 5800   6.321   2.073   1.147 -0.5182 -0.4044  0.0035
 1802SOL    HW1 5801   6.301   1.998   1.090  0.4502  0.6955 -1.8887
 1802SOL    HW2 5802   6.349   2.142   1.087 -0.3094  1.1440  1.7766
 1803SOL     OW 5803   4.659   6.003   1.405  0.3512 -0.0892 -0.0184
 1803SOL    HW1 5804   4.723   6.042   1.346  0.5455  1.8839  1.4009
 1803SOL    HW2 5805   4.578   6.002   1.355  1.4057 -2.6376 -1.8443
 1804SOL     OW 5806   2.325   6.608   6.830  0.3391 -0.2234 -0.5158
 1804SOL    HW1 5807   2.269   6.531   6.832 -1.2661  0.9119  1.0061
 1804SOL    HW2 5808   2.271   6.677   6.791  1.1366  0.5947 -0.2192
 1805SOL     OW 5809   0.808   2.754   5.272 -0.1652 -0.1167 -0.4510
 1805SOL    HW1 5810   0.759   2.693   5.217  1.1524 -0.6589 -1.0655
 1805SOL    HW2 5811   0.896   2.716   5.277 -0.0237  0.3616  1.3427
 1806SOL     OW 5812   4.656   2.022   5.314 -0.6142  0.2874  0.2399
 1806SOL    HW1 5813   4.682   2.007   5.405 -0.2371 -1.1776 -0.0871
 1806SOL    HW2 5814   4.580   2.080   5.321 -1.7788 -1.2974  1.6248
 1807SOL     OW 5815   0.849   5.513   1.024  0.6227  0.7237 -0.2360
 1807SOL    HW1 5816   0.754   5.529   1.025  0.6751  1.0368 -0.1155
 1807SOL    HW2 5817   0.865   5.464   1.105  0.3989 -0.3130 -0.8169
 1808SOL     OW 5818   3.862   6.633   6.791 -0.2082  0.4310 -0.5350
 1808SOL    HW1 5819   3.926   6.699   6.767 -0.6877  1.7439  1.5176
 1808SOL    HW2 5820   3.864   6.569   6.720  1.6225  1.6803 -1.6618
 1809SOL     OW 5821   2.369   5.967   5.375 -0.0846 -0.3213 -0.2448
 1809SOL    HW1 5822   2.278   5.970   5.406  0.1636  1.6451  0.4295
 1809SOL    HW2 5823   2.394   5.875   5.383 -0.9841 -0.4136  2.6978
 1810SOL     OW 5824   0.096   4.864   2.795 -0.3502 -0.5215  0.2569
 1810SOL    HW1 5825   0.189   4.878   2.811 -0.3584  0.4911 -0.5007
 1810SOL    HW2 5826   0.078   4.909   2.712 -1.4294 -1.0399  0.1862
 1811SOL     OW 5827   6.045   3.842   5.954 -0.0656  0.1159  0.0651
 1811SOL    HW1 5828   5.980   3.773   5.948 -0.0152  0.0395  0.4033
 1811SOL    HW2 5829   6.110   3.809   6.016  0.2586  0.2197 -0.2145
 1812SOL     OW 5830   6.131   5.057   0.984 -0.0009 -0.5851 -0.2114
 1812SOL    HW1 5831   6.068   5.108   1.035  1.0886  0.7325 -0.1298
 1812SOL    HW2 5832   6.082   5.030   0.906 -0.8246 -0.0851  0.1153
 1813SOL     OW 5833   0.967   1.754   4.033  0.6766 -0.0591 -0.6385
 1813SOL    HW1 5834   0.906   1.755   3.959  0.7780 -1.6743 -0.7946
 1813SOL    HW2 5835   0.954   1.668   4.074  1.3624  0.3952  0.5935
 1814SOL     OW 5836   6.310   4.106   0.843  0.1671 -0.1278 -0.1546
 1814SOL    HW1 5837   6.358   4.063   0.914 -0.9216  0.2258  0.8159
 1814SOL    HW2 5838   6.365   4.093   0.766  0.9185 -1.3391  0.5602
 1815SOL     OW 5839   0.913   2.951   4.118  0.6513  0.3286  0.3251
 1815SOL    HW1 5840   0.953   3.009   4.053  0.7223 -0.6124 -0.4971
 1815SOL    HW2 5841   0.822   2.940   4.089  0.6349  0.0319  0.4787
 1816SOL     OW 5842   3.603   6.505   3.600 -0.1397 -0.1482  0.3001
 1816SOL    HW1 5843   3.556   6.527   3.520 -0.2192 -2.2032 -0.2907
 1816SOL    HW2 5844   3.636   6.416   3.585  3.4528  0.9105  0.9173
 1817SOL     OW 5845   4.607   0.354   6.730 -0.5001 -0.7466  0.3795
 1817SOL    HW1 5846   4.686   0.301   6.733  0.0165  0.0449  2.0154
 1817SOL    HW2 5847   4.591   0.369   6.637 -0.5321 -3.5060 -0.1346
 1818SOL     OW 5848   4.398   4.604   2.566  0.1937 -0.0929 -0.2958
 1818SOL    HW1 5849   4.469   4.609   2.502  0.1537  0.0593 -0.3297
 1818SOL    HW2 5850   4.368   4.694   2.576 -0.4212 -0.2396 -0.7664
 1819SOL     OW 5851   3.443   5.055   4.486  0.3558  0.0766  0.5515
 1819SOL    HW1 5852   3.528   5.081   4.520  1.3223 -2.1061  0.0267
 1819SOL    HW2 5853   3.452   4.961   4.469 -1.9253 -0.0688 -0.2464
 1820SOL     OW 5854   4.072   2.161   6.014 -0.0271 -0.2118  0.3659
 1820SOL    HW1 5855   4.147   2.137   5.960  1.6302  0.4354  2.2725
 1820SOL    HW2 5856   4.089   2.251   6.041 -2.1043  0.3733 -0.0932
 1821SOL     OW 5857   5.413   3.600   0.904  0.0744 -0.3181  0.0284
 1821SOL    HW1 5858   5.358   3.598   0.982  0.3503 -0.1291  0.2332
 1821SOL    HW2 5859   5.388   3.680   0.858  0.1037 -0.2859  0.0678
 1822SOL     OW 5860   3.624   0.913   5.825  0.0869  0.1688 -0.0325
 1822SOL    HW1 5861   3.615   0.824   5.792  0.3250  0.1175  0.0396
 1822SOL    HW2 5862   3.560   0.964   5.775  1.9193  0.5238 -2.1948
 1823SOL     OW 5863   1.496   0.769   5.342  0.4806 -0.2560  0.5477
 1823SOL    HW1 5864   1.469   0.859   5.324  0.6921  0.3636  2.9433
 1823SOL    HW2 5865   1.463   0.718   5.269 -0.8225  1.5755 -0.1929
 1824SOL     OW 5866   6.756   2.216   1.725 -0.1182  0.2928 -0.3399
 1824SOL    HW1 5867   6.702   2.160   1.668  0.2384 -0.0309 -0.3654
 1824SOL    HW2 5868   6.846   2.197   1.698  0.1397 -0.8772  1.2347
 1825SOL     OW 5869   6.309   4.324   4.800 -0.4510 -0.1725 -0.7392
 1825SOL    HW1 5870   6.382   4.263   4.795 -0.1531  0.2503 -2.2538
 1825SOL    HW2 5871   6.324   4.384   4.727 -0.2594  2.2538  1.1645
 1826SOL     OW 5872   1.358   1.435   5.329 -0.2027 -0.2409 -0.1351
 1826SOL    HW1 5873   1.447   1.469   5.325  1.3821 -4.0191 -1.4106
 1826SOL    HW2 5874   1.318   1.465   5.247  0.6023 -0.2331 -0.5307
 1827SOL     OW 5875   6.897   0.672   0.586 -0.4546 -0.3353 -0.1458
 1827SOL    HW1 5876   6.876   0.597   0.531  0.4313 -3.1235  2.9734
 1827SOL    HW2 5877   6.819   0.726   0.584 -2.0871 -2.5604 -0.7254
 1828SOL     OW 5878   2.836   2.843   3.405  0.1183  0.1670  0.1143
 1828SOL    HW1 5879   2.864   2.753   3.394  0.6898  0.1872  1.2208
 1828SOL    HW2 5880   2.846   2.883   3.319  1.3299 -0.4267 -0.0288
 1829SOL     OW 5881   6.579   6.847   1.520  0.0823 -0.1070  0.3117
 1829SOL    HW1 5882   6.535   6.920   1.475 -0.0042  0.3451  1.1116
 1829SOL    HW2 5883   6.573   6.774   1.459 -1.5512  0.0086  0.2988
 1830SOL     OW 5884   6.846   2.695   6.359  0.9234  0.3202  0.0892
 1830SOL    HW1 5885   6.846   2.600   6.353 -0.7847  0.3283 -0.4326
 1830SOL    HW2 5886   6.802   2.714   6.443  0.3892  0.6461 -0.2564
 1831SOL     OW 5887   3.588   4.700   3.212 -0.2525  0.1246 -0.0598
 1831SOL    HW1 5888   3.569   4.650   3.292 -1.1939  0.1678 -0.2433
 1831SOL    HW2 5889   3.663   4.755   3.236 -0.5910  0.2221  0.8336
 1832SOL     OW 5890   5.588   3.361   5.388  0.3527  0.2157 -0.0803
 1832SOL    HW1 5891   5.580   3.295   5.457  1.1668  0.6626  0.4567
 1832SOL    HW2 5892   5.631   3.315   5.316 -0.0951 -0.1306 -0.1333
 1833SOL     OW 5893   3.409   0.895   3.745 -0.3178  0.5511  0.3272
 1833SOL    HW1 5894   3.382   0.926   3.659  2.4296 -0.1621 -0.9153
 1833SOL    HW2 5895   3.447   0.809   3.729  0.0391  0.2971  2.2952
 1834SOL     OW 5896   3.089   5.020   6.437 -0.1191 -0.0484 -0.1958
 1834SOL    HW1 5897   3.001   4.984   6.427 -1.0151  1.8245  0.4332
 1834SOL    HW2 5898   3.130   5.007   6.352 -0.3475 -2.4497 -0.0335
 1835SOL     OW 5899   2.944   0.096   0.929 -0.1439  1.2224 -0.1776
 1835SOL    HW1 5900   3.009   0.054   0.986 -0.5713  2.3415  1.2148
 1835SOL    HW2 5901   2.931   0.034   0.858  0.9390  0.0586  0.5818
 1836SOL     OW 5902   1.701   5.250   6.656  0.2257  0.2354 -0.4115
 1836SOL    HW1 5903   1.625   5.230   6.602 -1.0785  0.9405  1.0836
 1836SOL    HW2 5904   1.727   5.166   6.694 -0.1490  0.0892 -0.4836
 1837SOL     OW 5905   4.917   0.061   1.725  0.2737  0.1798 -0.4836
 1837SOL    HW1 5906   4.893   0.077   1.816  1.4488  2.1234 -0.4579
 1837SOL    HW2 5907   4.845   0.098   1.674  0.8426  1.5095 -0.3516
 1838SOL     OW 5908   3.139   4.959   4.827 -0.5755 -0.0318 -0.6750
 1838SOL    HW1 5909   3.070   4.896   4.850  0.6228 -0.0413  3.7923
 1838SOL    HW2 5910   3.218   4.907   4.820  0.0400  0.6062  0.9065
 1839SOL     OW 5911   2.098   2.263   4.234  0.2153  0.2804  0.1498
 1839SOL    HW1 5912   2.156   2.339   4.223  0.2379  0.3239  0.5388
 1839SOL    HW2 5913   2.087   2.228   4.146  0.0336  0.8657 -0.0653
 1840SOL     OW 5914   3.565   5.953   6.786 -0.1862  0.0932 -0.2103
 1840SOL    HW1 5915   3.526   5.958   6.873  0.0295 -0.7873 -0.0573
 1840SOL    HW2 5916   3.497   5.912   6.732 -0.6733  1.4540 -0.6852
 1841SOL     OW 5917   3.178   5.121   6.178  0.3351 -0.2829  0.4234
 1841SOL    HW1 5918   3.171   5.173   6.097  0.5901 -1.1906 -0.1892
 1841SOL    HW2 5919   3.258   5.071   6.167 -0.9995 -2.4360  0.0413
 1842SOL     OW 5920   5.917   0.347   1.189  0.2454  0.4360  0.0922
 1842SOL    HW1 5921   5.878   0.314   1.108 -0.9227  0.9400  0.4391
 1842SOL    HW2 5922   5.888   0.286   1.256  0.7250  0.3582  0.2340
 1843SOL     OW 5923   0.491   5.133   4.521 -0.3740  0.1968 -0.1027
 1843SOL    HW1 5924   0.448   5.136   4.607 -0.6142  0.5203 -0.2331
 1843SOL    HW2 5925   0.574   5.088   4.538 -0.1520  0.7795  0.4204
 1844SOL     OW 5926   3.903   2.596   0.132 -0.1253 -0.2757  0.1397
 1844SOL    HW1 5927   3.969   2.587   0.201  1.6547 -1.9984 -1.6639
 1844SOL    HW2 5928   3.869   2.508   0.119 -0.4189  0.0113 -1.1853
 1845SOL     OW 5929   5.047   4.522   6.251 -0.0021 -0.3126  0.1257
 1845SOL    HW1 5930   5.047   4.427   6.267  1.4842 -0.2896  0.3736
 1845SOL    HW2 5931   5.139   4.547   6.257 -0.2776  1.0137 -0.7939
 1846SOL     OW 5932   1.102   6.059   1.053 -0.2083  0.1155  0.1356
 1846SOL    HW1 5933   1.058   6.008   1.121  0.9518  0.0205  0.8454
 1846SOL    HW2 5934   1.065   6.147   1.061  0.9196  0.4790  1.8815
 1847SOL     OW 5935   5.278   4.710   6.282 -0.0020 -0.3202  0.0418
 1847SOL    HW1 5936   5.297   4.642   6.217  1.2679 -0.8535  0.9115
 1847SOL    HW2 5937   5.289   4.792   6.234  1.7369 -0.6832 -0.2639
 1848SOL     OW 5938   0.172   2.741   4.146 -0.5423 -0.2806 -0.5486
 1848SOL    HW1 5939   0.149   2.832   4.167  0.3521 -0.4489  1.3970
 1848SOL    HW2 5940   0.099   2.708   4.095 -0.7342  1.6328 -1.5989
 1849SOL     OW 5941   1.719   3.005   6.439  0.4590 -0.3254 -0.4322
 1849SOL    HW1 5942   1.802   2.960   6.424  0.1764 -0.8685 -0.3860
 1849SOL    HW2 5943   1.655   2.935   6.449  0.2640  0.0468  1.1738
 1850SOL     OW 5944   2.988   5.407   5.688 -0.3864  0.1390 -0.0065
 1850SOL    HW1 5945   2.934   5.352   5.631 -0.7910 -0.6759  1.1321
 1850SOL    HW2 5946   2.957   5.389   5.777  0.2249  1.3902  0.4898
 1851SOL     OW 5947   6.082   5.172   5.010  0.0001  0.1639  0.2345
 1851SOL    HW1 5948   6.116   5.113   5.078  0.6511 -0.4179 -0.5789
 1851SOL    HW2 5949   6.154   5.233   4.993 -1.2230  2.3945  2.2962
 1852SOL     OW 5950   0.513   0.908   0.667 -0.7375 -0.5663  0.0420
 1852SOL    HW1 5951   0.450   0.972   0.636  1.7916  0.4604 -3.6273
 1852SOL    HW2 5952   0.578   0.958   0.715 -0.3836 -0.8813 -0.0988
 1853SOL     OW 5953   0.581   0.606   0.397 -0.5170 -0.6886 -0.0786
 1853SOL    HW1 5954   0.494   0.623   0.434 -0.3364 -0.7771  0.3964
 1853SOL    HW2 5955   0.641   0.652   0.456 -0.1850 -1.2941  0.0628
 1854SOL     OW 5956   1.721   0.045   6.678  1.0388  0.1716  0.8047
 1854SOL    HW1 5957   1.749   0.080   6.594  0.0177 -0.1014  0.3387
 1854SOL    HW2 5958   1.735   0.116   6.740  2.3969  0.1669  0.5357
 1855SOL     OW 5959   3.470   6.381   4.186  0.0462  0.1896 -0.1041
 1855SOL    HW1 5960   3.473   6.294   4.227  0.0810  0.1731 -0.1422
 1855SOL    HW2 5961   3.429   6.366   4.101 -0.6849  0.3302  0.2120
 1856SOL     OW 5962   5.788   6.438   4.848 -0.0548 -0.1549 -0.0126
 1856SOL    HW1 5963   5.861   6.399   4.800 -1.2028 -0.8147 -1.2693
 1856SOL    HW2 5964   5.747   6.364   4.893 -0.7240 -0.0054 -0.3691
 1857SOL     OW 5965   6.774   0.594   1.595  0.4669  0.5825  0.1468
 1857SOL    HW1 5966   6.855   0.641   1.575 -0.4079  3.2982  2.2973
 1857SOL    HW2 5967   6.717   0.611   1.521  1.3786 -0.2629 -0.7808
 1858SOL     OW 5968   6.378   6.760   4.333 -1.0110  0.0232 -0.0288
 1858SOL    HW1 5969   6.425   6.830   4.287 -1.5711  1.5138  1.5339
 1858SOL    HW2 5970   6.434   6.738   4.407 -0.8558 -1.2032 -0.4985
 1859SOL     OW 5971   2.556   4.004   4.010 -0.0004  0.3124 -0.2902
 1859SOL    HW1 5972   2.564   3.911   4.031 -0.7787  0.3316  0.1664
 1859SOL    HW2 5973   2.481   4.033   4.062 -0.2707  1.0125 -1.0475
 1860SOL     OW 5974   1.643   3.778   6.476  0.7277 -0.3824 -0.1853
 1860SOL    HW1 5975   1.640   3.783   6.380 -0.2397  1.5311 -0.1012
 1860SOL    HW2 5976   1.555   3.751   6.501  0.5443  0.5258  0.1959
 1861SOL     OW 5977   4.926   2.225   3.836  0.4937  0.5134 -0.2538
 1861SOL    HW1 5978   4.918   2.226   3.741  2.5310  0.6957 -0.4888
 1861SOL    HW2 5979   4.976   2.304   3.856 -1.4941  1.4850  1.1929
 1862SOL     OW 5980   3.246   4.219   5.660 -0.3548  0.0378  0.2913
 1862SOL    HW1 5981   3.301   4.291   5.628  0.0595 -0.6535 -0.5955
 1862SOL    HW2 5982   3.280   4.201   5.748  0.7899 -0.3020 -0.1923
 1863SOL     OW 5983   6.354   1.542   1.728 -0.3394  0.2120 -0.1795
 1863SOL    HW1 5984   6.371   1.520   1.820 -1.5483 -0.4367 -0.0902
 1863SOL    HW2 5985   6.394   1.470   1.679  1.5395  1.2587 -0.2740
 1864SOL     OW 5986   4.726   3.966   2.146  0.1600  0.7677  0.8070
 1864SOL    HW1 5987   4.667   3.967   2.070 -0.3187  2.8093  1.1408
 1864SOL    HW2 5988   4.748   3.874   2.158 -3.0551 -0.1502  0.7238
 1865SOL     OW 5989   2.604   6.180   1.461 -0.4395 -0.1593  0.1309
 1865SOL    HW1 5990   2.575   6.114   1.399  1.2115 -0.3582 -0.4691
 1865SOL    HW2 5991   2.524   6.225   1.488 -1.3473 -1.0738 -0.9812
 1866SOL     OW 5992   2.217   6.870   2.391 -0.7281 -0.3253  0.3735
 1866SOL    HW1 5993   2.167   6.938   2.346 -2.0431 -1.0044  0.7316
 1866SOL    HW2 5994   2.286   6.917   2.437 -1.3182  0.7190  0.2369
 1867SOL     OW 5995   5.911   2.291   3.905 -0.0220 -0.6062  0.1635
 1867SOL    HW1 5996   5.832   2.238   3.910 -2.0892  2.1181 -0.8709
 1867SOL    HW2 5997   5.912   2.339   3.988 -0.7560  0.9047 -0.6410
 1868SOL     OW 5998   5.604   2.663   3.288  0.0287 -0.5966  0.6136
 1868SOL    HW1 5999   5.521   2.624   3.317 -1.4833 -0.4438 -2.9197
 1868SOL    HW2 6000   5.589   2.757   3.295  0.0633 -0.5749  0.3970
 1869SOL     OW 6001   3.745   5.715   2.652 -0.0179  0.1120 -0.0100
 1869SOL    HW1 6002   3.737   5.625   2.620 -0.2542  0.9952 -2.6716
 1869SOL    HW2 6003   3.659   5.735   2.689  0.3675 -1.0731  1.5857
 1870SOL     OW 6004   6.190   0.316   4.043  0.2386 -0.6741 -0.5790
 1870SOL    HW1 6005   6.254   0.376   4.081 -0.7983 -0.1737  0.3860
 1870SOL    HW2 6006   6.156   0.362   3.966  0.3328 -0.5458 -0.5430
 1871SOL     OW 6007   3.931   5.776   5.316 -0.2996  0.2686  0.4374
 1871SOL    HW1 6008   4.006   5.721   5.340  2.4065  3.2234 -0.6496
 1871SOL    HW2 6009   3.878   5.720   5.259  0.8103 -2.0606  1.5494
 1872SOL     OW 6010   4.689   4.826   4.394  0.1845  0.3892  0.7321
 1872SOL    HW1 6011   4.636   4.749   4.377  2.1289 -0.7437 -0.6349
 1872SOL    HW2 6012   4.651   4.895   4.339 -0.3453 -0.1644  0.3990
 1873SOL     OW 6013   2.326   1.777   3.106 -0.1359 -0.0936  0.0173
 1873SOL    HW1 6014   2.244   1.825   3.097  0.1165  0.0282 -2.2717
 1873SOL    HW2 6015   2.391   1.831   3.061  0.7851 -1.1211  0.0679
 1874SOL     OW 6016   6.052   4.564   0.323 -0.2716 -0.1667  0.4979
 1874SOL    HW1 6017   5.991   4.574   0.396 -2.1824 -2.9199 -0.6117
 1874SOL    HW2 6018   6.139   4.565   0.365 -1.0167  2.2785  2.2649
 1875SOL     OW 6019   0.063   5.791   6.447 -0.9391 -0.4549  0.3087
 1875SOL    HW1 6020  -0.018   5.759   6.408 -0.1276 -2.5816  0.2754
 1875SOL    HW2 6021   0.034   5.852   6.515 -2.6184 -1.8735  0.9334
 1876SOL     OW 6022   2.980   5.295   6.233 -0.4221  0.2757 -0.3645
 1876SOL    HW1 6023   3.053   5.233   6.235 -0.1202  0.6390  0.0486
 1876SOL    HW2 6024   2.908   5.248   6.276 -0.5502 -0.2163 -1.0851
 1877SOL     OW 6025   5.335   6.523   5.539 -0.6214 -0.1604  0.1036
 1877SOL    HW1 6026   5.260   6.466   5.551  0.0957 -0.9455  0.9899
 1877SOL    HW2 6027   5.345   6.568   5.623  0.7666 -1.1441  0.4912
 1878SOL     OW 6028   3.410   3.886   4.637  0.0452 -0.3869  0.0732
 1878SOL    HW1 6029   3.327   3.859   4.677 -0.9075 -0.6874 -1.9666
 1878SOL    HW2 6030   3.400   3.981   4.624 -0.4894 -0.5826 -1.1566
 1879SOL     OW 6031   4.386   4.662   2.995 -0.1227  0.1951  0.1687
 1879SOL    HW1 6032   4.448   4.734   2.985 -0.0061  0.2076  0.9115
 1879SOL    HW2 6033   4.435   4.595   3.043 -1.0905  0.7681  2.0461
 1880SOL     OW 6034   6.940   1.722   5.684 -0.0696  0.5897 -0.3682
 1880SOL    HW1 6035   7.012   1.763   5.732 -0.2121 -0.2483  0.6030
 1880SOL    HW2 6036   6.868   1.784   5.691 -0.4700 -0.0253  1.6023
 1881SOL     OW 6037   0.905   3.782   6.648 -0.0024  0.0960  0.1345
 1881SOL    HW1 6038   0.936   3.785   6.739 -0.4287 -4.0066  0.6312
 1881SOL    HW2 6039   0.897   3.873   6.622  0.3204  1.4714  4.1398
 1882SOL     OW 6040   4.382   6.626   1.764  0.7014 -0.4587 -0.2349
 1882SOL    HW1 6041   4.398   6.584   1.849  0.3937  0.5322  0.3330
 1882SOL    HW2 6042   4.444   6.699   1.761 -1.4387  1.5255  0.6191
 1883SOL     OW 6043   3.366   4.259   0.159 -0.1024  0.2606  0.3576
 1883SOL    HW1 6044   3.437   4.273   0.221  0.6282 -1.7792  0.0571
 1883SOL    HW2 6045   3.303   4.330   0.177  1.4099  1.3792  1.4526
 1884SOL     OW 6046   0.152   4.427   1.788 -0.1850  0.8954  0.0627
 1884SOL    HW1 6047   0.179   4.367   1.858 -0.3938  0.1027 -0.5245
 1884SOL    HW2 6048   0.125   4.370   1.716 -1.1169  1.6884 -0.2431
 1885SOL     OW 6049   4.661   0.247   3.540  0.1237  0.2535 -0.0452
 1885SOL    HW1 6050   4.581   0.207   3.574 -0.0754  0.8698  0.2200
 1885SOL    HW2 6051   4.631   0.305   3.470  0.5037 -0.7944 -1.1280
 1886SOL     OW 6052   0.156   0.121   1.224  0.2731  0.8416 -0.7888
 1886SOL    HW1 6053   0.229   0.183   1.218  0.1373  0.9277 -1.6287
 1886SOL    HW2 6054   0.179   0.065   1.298  0.8784  1.2690 -0.6391
 1887SOL     OW 6055   3.015   3.980   1.817 -0.1695  0.2818  0.4317
 1887SOL    HW1 6056   3.040   4.047   1.881  0.1473  0.0547  0.5444
 1887SOL    HW2 6057   2.925   4.003   1.794 -0.5919 -0.1394  1.6008
 1888SOL     OW 6058   2.212   3.102   3.291 -0.4139 -0.0952 -0.0365
 1888SOL    HW1 6059   2.130   3.061   3.319  0.6410 -2.3647 -0.0052
 1888SOL    HW2 6060   2.281   3.043   3.324  1.3592  2.4864  1.2348
 1889SOL     OW 6061   1.459   0.249   4.825  0.7390 -0.1631 -0.8431
 1889SOL    HW1 6062   1.521   0.309   4.784  0.3726  1.0053  0.2300
 1889SOL    HW2 6063   1.378   0.300   4.832  0.6359 -0.5024  0.7813
 1890SOL     OW 6064   4.357   5.829   4.205  0.2257 -0.4871 -0.5059
 1890SOL    HW1 6065   4.266   5.835   4.232  0.8004 -1.0309  1.8148
 1890SOL    HW2 6066   4.374   5.735   4.198  0.1837 -0.3901 -2.7742
 1891SOL     OW 6067   3.750   1.335   0.458 -0.1459  0.3160  0.0533
 1891SOL    HW1 6068   3.737   1.335   0.553 -4.1579  0.1589 -0.3329
 1891SOL    HW2 6069   3.779   1.424   0.438 -1.1538  0.9597  1.2728
 1892SOL     OW 6070   6.537   2.064   3.003  0.4948  0.8821 -0.1840
 1892SOL    HW1 6071   6.483   2.136   2.969 -2.4380 -0.6494  0.8603
 1892SOL    HW2 6072   6.624   2.082   2.970 -0.7334  3.2372 -2.5479
 1893SOL     OW 6073   2.713   1.096   3.471 -0.0336  0.0006 -0.0736
 1893SOL    HW1 6074   2.805   1.087   3.496 -0.5527  0.4418  2.2677
 1893SOL    HW2 6075   2.715   1.127   3.381  2.1673  1.8133  0.5053
 1894SOL     OW 6076   6.787   2.612   2.202 -0.3079 -0.3518 -0.5766
 1894SOL    HW1 6077   6.785   2.661   2.284 -0.1875  0.0963 -0.8406
 1894SOL    HW2 6078   6.697   2.615   2.169 -0.2077  0.0736 -0.8159
 1895SOL     OW 6079   1.551   0.590   1.401 -0.5922  0.1611 -0.1786
 1895SOL    HW1 6080   1.538   0.685   1.394  2.5480  0.6088 -2.0919
 1895SOL    HW2 6081   1.575   0.563   1.312  0.0492 -2.1788  0.6395
 1896SOL     OW 6082   2.058   3.145   1.832  0.2286 -0.2472  0.9092
 1896SOL    HW1 6083   2.015   3.178   1.753  2.0092  0.5389  0.2292
 1896SOL    HW2 6084   1.991   3.151   1.900 -0.3085  2.4325  0.2608
 1897SOL     OW 6085   0.935   1.011   0.217 -0.2164 -0.1547 -0.3119
 1897SOL    HW1 6086   1.023   1.009   0.256 -0.3961  0.0791  0.1133
 1897SOL    HW2 6087   0.876   1.022   0.292 -0.6220 -0.5131 -0.5769
 1898SOL     OW 6088   3.702   2.495   5.399 -0.6473  0.1983  0.7086
 1898SOL    HW1 6089   3.727   2.487   5.307 -0.3919 -0.0962  0.8000
 1898SOL    HW2 6090   3.628   2.555   5.399 -0.8823 -0.0893  0.2696
 1899SOL     OW 6091   2.217   1.419   5.995  0.0944  0.3824  0.0396
 1899SOL    HW1 6092   2.147   1.458   5.943 -0.3409 -0.8640 -0.3538
 1899SOL    HW2 6093   2.241   1.340   5.947 -0.7358 -1.1579  1.9876
 1900SOL     OW 6094   6.474   0.220   2.906  0.2457 -0.4792  0.3684
 1900SOL    HW1 6095   6.552   0.195   2.856  0.0685  1.0943 -0.7842
 1900SOL    HW2 6096   6.509   0.265   2.983  0.4811 -0.6868  0.3856
 1901SOL     OW 6097   3.850   4.207   6.901 -0.0952 -0.0604 -0.2653
 1901SOL    HW1 6098   3.914   4.252   6.846 -0.9603 -0.4374 -1.6352
 1901SOL    HW2 6099   3.770   4.206   6.849 -1.2102  0.2998  1.3573
 1902SOL     OW 6100   3.959   2.966   0.151  0.0595  0.2690 -0.0472
 1902SOL    HW1 6101   3.892   3.016   0.198  2.3656  2.0108  1.6087
 1902SOL    HW2 6102   3.968   3.010   0.067  0.2517  1.0376  0.3725
 1903SOL     OW 6103   3.814   3.284   4.596 -0.4667 -0.3533  0.4929
 1903SOL    HW1 6104   3.766   3.202   4.599  0.6065 -0.9684  1.8229
 1903SOL    HW2 6105   3.878   3.272   4.526 -1.6232  0.1540 -0.7036
 1904SOL     OW 6106   6.060   1.678   0.819  0.5734  0.6262  0.0962
 1904SOL    HW1 6107   6.137   1.732   0.804  0.6030  0.6228  0.2375
 1904SOL    HW2 6108   6.013   1.722   0.890  1.6736 -0.6481  1.6928
 1905SOL     OW 6109   6.675   2.178   1.072 -0.5976 -0.1014 -0.4421
 1905SOL    HW1 6110   6.687   2.249   1.136 -0.5384  0.0320 -0.5990
 1905SOL    HW2 6111   6.603   2.208   1.017 -1.0540 -0.4937 -0.0601
 1906SOL     OW 6112   5.319   0.624   1.194 -1.1019  0.1985 -0.1036
 1906SOL    HW1 6113   5.356   0.598   1.110 -0.3294 -0.5740  0.4509
 1906SOL    HW2 6114   5.226   0.607   1.185 -1.2852  1.6251 -1.3288
 1907SOL     OW 6115   6.846   3.479   2.821 -0.1575 -0.6470 -0.4468
 1907SOL    HW1 6116   6.782   3.419   2.859 -0.1979  0.2192  0.9670
 1907SOL    HW2 6117   6.827   3.563   2.864  2.2488 -0.4796  0.4171
 1908SOL     OW 6118   4.147   5.711   0.098 -0.6727 -0.1159 -0.4449
 1908SOL    HW1 6119   4.161   5.803   0.119 -1.2553 -0.1706  0.2477
 1908SOL    HW2 6120   4.164   5.665   0.180  2.3251 -0.9551 -1.4016
 1909SOL     OW 6121   0.499   4.862   0.767 -0.5245 -0.3480 -0.4306
 1909SOL    HW1 6122   0.581   4.854   0.817 -0.1851 -1.1048 -1.0764
 1909SOL    HW2 6123   0.431   4.872   0.833  0.0693  0.0620  0.1284
 1910SOL     OW 6124   4.045   4.675   1.395  0.1922 -0.0598 -0.8845
 1910SOL    HW1 6125   4.000   4.600   1.358  1.5510  0.6421 -4.2761
 1910SOL    HW2 6126   4.088   4.640   1.474 -0.8958 -2.2636 -1.1897
 1911SOL     OW 6127   5.751   6.461   2.828  0.2477  0.1293 -0.0877
 1911SOL    HW1 6128   5.729   6.553   2.811  0.3612 -0.0629 -1.4075
 1911SOL    HW2 6129   5.672   6.413   2.801  0.3388 -0.1956  0.2164
 1912SOL     OW 6130   4.130   4.441   3.143  0.2258  0.1922 -0.1502
 1912SOL    HW1 6131   4.136   4.346   3.137  0.3471  0.2108 -0.3197
 1912SOL    HW2 6132   4.176   4.473   3.065 -1.5267  0.3450 -1.1788
 1913SOL     OW 6133   3.005   4.006   1.490  0.3355 -0.5372  0.5310
 1913SOL    HW1 6134   2.954   4.023   1.410 -0.1120  0.9113  1.0875
 1913SOL    HW2 6135   2.940   3.976   1.553  0.8078 -2.4654  0.1745
 1914SOL     OW 6136   5.829   2.768   2.939  0.4677  0.2932  0.2758
 1914SOL    HW1 6137   5.754   2.825   2.923 -0.0606 -0.4824 -0.0646
 1914SOL    HW2 6138   5.793   2.679   2.941  1.6780 -0.4189 -2.7009
 1915SOL     OW 6139   6.670   0.036   3.115 -0.2225  0.1369  0.5737
 1915SOL    HW1 6140   6.761   0.065   3.127 -0.5130  1.2887  0.1778
 1915SOL    HW2 6141   6.621   0.087   3.180 -0.7138  0.2598  0.1080
 1916SOL     OW 6142   0.085   5.183   4.516 -0.3071 -0.1837 -0.7172
 1916SOL    HW1 6143   0.053   5.094   4.501 -0.1928 -0.5792  1.1753
 1916SOL    HW2 6144   0.064   5.201   4.608  0.9006  1.2162 -0.6832
 1917SOL     OW 6145   5.333   5.397   0.749  0.0721  0.1402 -0.2322
 1917SOL    HW1 6146   5.255   5.421   0.699 -1.0017 -1.2995  0.6715
 1917SOL    HW2 6147   5.335   5.459   0.821  1.3795  1.9439 -1.7199
 1918SOL     OW 6148   1.938   6.781   6.270  0.1939 -0.4295  0.3051
 1918SOL    HW1 6149   1.989   6.849   6.314  1.1563 -0.0923 -1.2769
 1918SOL    HW2 6150   1.982   6.699   6.294  1.4387 -0.1555 -0.9036
 1919SOL     OW 6151   1.332   2.632   3.359  0.1766 -0.3477  0.2574
 1919SOL    HW1 6152   1.332   2.722   3.328  0.3449 -1.0973 -2.0832
 1919SOL    HW2 6153   1.396   2.631   3.430  1.0536  1.1140 -0.4816
 1920SOL     OW 6154   0.248   5.509   2.063 -0.1704 -0.6539 -0.4448
 1920SOL    HW1 6155   0.338   5.539   2.049 -0.3185 -0.1529 -0.3233
 1920SOL    HW2 6156   0.215   5.491   1.975  0.4472 -2.0472 -0.4332
 1921SOL     OW 6157   2.083   6.049   4.430 -0.1167 -0.1922  0.3798
 1921SOL    HW1 6158   2.062   6.006   4.513  1.9038 -0.3627  0.8441
 1921SOL    HW2 6159   2.086   6.142   4.452  0.2326 -0.2220  0.4651
 1922SOL     OW 6160   4.185   6.106   1.169 -0.3752  0.5416 -0.1413
 1922SOL    HW1 6161   4.094   6.078   1.161 -0.6959  1.1482  1.1138
 1922SOL    HW2 6162   4.199   6.166   1.096 -1.4087  1.4657  0.3821
 1923SOL     OW 6163   2.170   4.255   0.116 -0.2795  1.0589 -0.0221
 1923SOL    HW1 6164   2.257   4.274   0.152  0.7675 -0.4471 -1.5971
 1923SOL    HW2 6165   2.121   4.337   0.127  0.5781  1.2954  2.8944
 1924SOL     OW 6166   6.818   2.441   5.303  0.0802  0.8005 -0.8990
 1924SOL    HW1 6167   6.851   2.353   5.286  1.5977  1.0964  0.2916
 1924SOL    HW2 6168   6.859   2.495   5.236 -0.1333  0.7690 -1.0604
 1925SOL     OW 6169   2.061   6.466   3.950  0.4587  0.1420 -0.2667
 1925SOL    HW1 6170   2.118   6.528   3.996 -1.3250  0.0055  2.3922
 1925SOL    HW2 6171   1.991   6.519   3.913  0.9301  0.0592 -1.3054
 1926SOL     OW 6172   4.574   0.376   4.489  0.0641 -0.2281  0.2645
 1926SOL    HW1 6173   4.497   0.321   4.475  0.8020 -1.1814 -0.1713
 1926SOL    HW2 6174   4.635   0.321   4.539  0.6864  0.3043  0.1134
 1927SOL     OW 6175   4.500   1.514   0.844  1.1462 -1.0868  0.1331
 1927SOL    HW1 6176   4.466   1.468   0.767  2.1267 -1.0217 -0.3520
 1927SOL    HW2 6177   4.510   1.605   0.814  2.3925 -1.2423  0.0534
 1928SOL     OW 6178   1.842   5.178   3.305  0.2796 -0.4236  0.4807
 1928SOL    HW1 6179   1.792   5.194   3.225  0.5877  0.5259  0.4661
 1928SOL    HW2 6180   1.933   5.196   3.280  0.3857 -0.1800  1.0235
 1929SOL     OW 6181   0.799   5.072   0.947 -0.0858 -0.0103 -0.0889
 1929SOL    HW1 6182   0.741   5.005   0.911  0.9905 -0.6468 -0.6934
 1929SOL    HW2 6183   0.883   5.056   0.904  0.0612  2.0805 -0.6966
 1930SOL     OW 6184   4.417   3.990   4.935  0.2091 -0.5113 -0.1215
 1930SOL    HW1 6185   4.473   3.918   4.962  0.4442  0.1117  1.1183
 1930SOL    HW2 6186   4.405   4.042   5.014 -0.2433  0.6189 -0.9079
 1931SOL     OW 6187   6.579   2.244   3.817 -0.1261 -0.0362  0.0110
 1931SOL    HW1 6188   6.490   2.214   3.836  0.4284 -0.3478  2.5034
 1931SOL    HW2 6189   6.635   2.183   3.866  1.4227  0.5854 -0.9287
 1932SOL     OW 6190   3.391   1.330   1.706  0.3481  0.7679  0.7488
 1932SOL    HW1 6191   3.452   1.334   1.633 -1.4063  1.4636 -0.7788
 1932SOL    HW2 6192   3.435   1.277   1.772  1.7519 -0.4669 -1.0790
 1933SOL     OW 6193   2.398   2.393   3.314  0.4613 -0.3567  0.3295
 1933SOL    HW1 6194   2.470   2.437   3.267  0.0340 -1.0460 -1.0213
 1933SOL    HW2 6195   2.440   2.320   3.358  0.5719 -0.8906 -0.6413
 1934SOL     OW 6196   5.952   3.594   0.880 -0.2685 -0.3930  0.4862
 1934SOL    HW1 6197   6.034   3.632   0.849  0.2170 -1.7936 -0.0238
 1934SOL    HW2 6198   5.925   3.651   0.952  0.7287  0.5404  0.1544
 1935SOL     OW 6199   3.181   3.515   0.534 -0.1409  0.2914 -0.1982
 1935SOL    HW1 6200   3.239   3.477   0.468  0.9919 -0.5785  1.2224
 1935SOL    HW2 6201   3.166   3.444   0.597 -1.0447  1.1284  0.5832
 1936SOL     OW 6202   1.547   3.119   0.070  0.5065 -0.2154 -0.4566
 1936SOL    HW1 6203   1.537   3.025   0.055  1.3953 -0.4745  0.4517
 1936SOL    HW2 6204   1.522   3.159  -0.013  0.0103 -1.2457 -0.8208
 1937SOL     OW 6205   2.974   5.720   4.063  0.0935  0.3098 -0.2060
 1937SOL    HW1 6206   3.010   5.650   4.009  1.8444  2.2387 -1.7315
 1937SOL    HW2 6207   2.920   5.772   4.003  0.3097  1.2854  0.4125
 1938SOL     OW 6208   2.966   3.758   1.973 -0.4134 -0.2133 -0.0193
 1938SOL    HW1 6209   2.925   3.696   1.913 -1.0939 -0.2462  0.4741
 1938SOL    HW2 6210   3.023   3.812   1.918 -0.8440 -0.4017 -0.6471
 1939SOL     OW 6211   1.826   1.926   2.207 -0.3473  0.0418  0.0347
 1939SOL    HW1 6212   1.787   1.995   2.153 -0.0568  1.0181  1.0234
 1939SOL    HW2 6213   1.796   1.947   2.296  1.6318  0.2744  0.6920
 1940SOL     OW 6214   5.301   0.491   2.951  0.9743 -0.4714 -0.2309
 1940SOL    HW1 6215   5.207   0.479   2.965  0.9448  0.0097  0.0333
 1940SOL    HW2 6216   5.315   0.466   2.860  0.6408 -0.8340 -0.1836
 1941SOL     OW 6217   0.702   0.664   0.657 -0.2027 -0.2058  0.0594
 1941SOL    HW1 6218   0.712   0.625   0.744 -0.6753 -1.0815 -0.2722
 1941SOL    HW2 6219   0.640   0.736   0.671  2.1323  1.7994  1.0552
 1942SOL     OW 6220   1.636   3.510   1.504 -0.4410  0.7353  0.2046
 1942SOL    HW1 6221   1.617   3.551   1.588  0.8685  0.4177  0.6790
 1942SOL    HW2 6222   1.681   3.428   1.526 -1.6434 -0.2265 -0.7626
 1943SOL     OW 6223   1.632   2.279   1.279  0.0998  0.2269  0.2272
 1943SOL    HW1 6224   1.688   2.202   1.282  1.0856  0.8213 -1.5568
 1943SOL    HW2 6225   1.618   2.296   1.185 -2.8193  0.3141  0.5700
 1944SOL     OW 6226   5.714   4.490   1.583  0.6542 -0.2524  0.2199
 1944SOL    HW1 6227   5.625   4.483   1.547  0.8149  2.0363 -0.7748
 1944SOL    HW2 6228   5.733   4.402   1.614 -1.6147 -1.0369 -0.3583
 1945SOL     OW 6229   5.959   0.421   0.660  0.4126  0.1713  0.5744
 1945SOL    HW1 6230   6.029   0.416   0.725 -0.0626  1.3933  1.2085
 1945SOL    HW2 6231   5.919   0.507   0.674  0.3694  0.5348 -1.4165
 1946SOL     OW 6232   6.458   3.305   4.107 -0.2488  0.0952  1.0088
 1946SOL    HW1 6233   6.549   3.333   4.101  0.1209 -1.2898 -0.5135
 1946SOL    HW2 6234   6.458   3.234   4.172  0.4605 -2.2450 -1.3882
 1947SOL     OW 6235   3.201   2.751   1.600  0.5036 -0.2157  0.3397
 1947SOL    HW1 6236   3.189   2.830   1.547  0.9064 -0.6851 -0.4540
 1947SOL    HW2 6237   3.121   2.700   1.586  0.3952 -0.1131  0.5779
 1948SOL     OW 6238   0.540   2.247   3.614  0.0481  0.6576  0.3964
 1948SOL    HW1 6239   0.518   2.309   3.684 -0.4742 -0.1074  0.9319
 1948SOL    HW2 6240   0.636   2.242   3.616  0.0180 -1.6204  3.1773
 1949SOL     OW 6241   5.256   3.482   1.789  0.0842  0.2929  0.0823
 1949SOL    HW1 6242   5.254   3.546   1.859 -0.7379  0.7134 -0.3151
 1949SOL    HW2 6243   5.296   3.528   1.715 -0.7186  0.4463 -0.2750
 1950SOL     OW 6244   3.129   0.152   4.137  0.3876  0.0971  0.2822
 1950SOL    HW1 6245   3.108   0.086   4.072 -0.6242 -0.6130  1.2928
 1950SOL    HW2 6246   3.046   0.199   4.150 -0.6539 -2.3808  3.9374
 1951SOL     OW 6247   5.247   0.887   2.010 -0.0041 -0.1742  0.1284
 1951SOL    HW1 6248   5.174   0.861   2.067  0.1823  1.1425  1.0059
 1951SOL    HW2 6249   5.209   0.953   1.951  0.8097  1.7472  1.6698
 1952SOL     OW 6250   3.596   0.832   0.590  0.0986 -0.8147  0.1888
 1952SOL    HW1 6251   3.550   0.902   0.637  1.4203  0.3308 -0.1799
 1952SOL    HW2 6252   3.559   0.752   0.626 -4.8518 -0.1584 -2.5257
 1953SOL     OW 6253   3.558   6.191   0.170  0.6745 -0.6000  0.7129
 1953SOL    HW1 6254   3.554   6.189   0.266  0.6168 -2.7006  0.7041
 1953SOL    HW2 6255   3.633   6.248   0.151  0.1656  0.5458  1.9556
 1954SOL     OW 6256   5.164   6.026   1.911  0.3694  0.1846  0.3658
 1954SOL    HW1 6257   5.142   6.025   2.004  1.8827 -0.3472  0.7466
 1954SOL    HW2 6258   5.160   5.934   1.883  1.1528  0.1748  0.2401
 1955SOL     OW 6259   6.182   5.520   6.422 -0.0164 -0.6947  0.1846
 1955SOL    HW1 6260   6.158   5.435   6.384 -0.9418 -0.2404 -0.2866
 1955SOL    HW2 6261   6.188   5.579   6.346  0.0308 -0.2077  0.5652
 1956SOL     OW 6262   4.848   2.674   5.780  0.3617 -0.4221 -0.2795
 1956SOL    HW1 6263   4.927   2.644   5.826  1.8668  1.6970 -1.3185
 1956SOL    HW2 6264   4.807   2.736   5.840  0.7154  0.1240 -0.5908
 1957SOL     OW 6265   1.124   2.809   5.736  0.5379  0.1059  0.1880
 1957SOL    HW1 6266   1.054   2.787   5.798 -0.7739  1.5673 -0.6909
 1957SOL    HW2 6267   1.195   2.843   5.791  0.6545 -1.5126  1.1071
 1958SOL     OW 6268   4.778   0.121   1.976  0.7555 -0.0316  0.1998
 1958SOL    HW1 6269   4.779   0.044   2.032 -1.6379 -0.1725  0.1538
 1958SOL    HW2 6270   4.688   0.154   1.982  1.1262  1.4685 -1.5187
 1959SOL     OW 6271   4.350   5.789   2.161 -0.2252  0.1775  0.5985
 1959SOL    HW1 6272   4.278   5.747   2.209 -0.6851  0.7046  0.3878
 1959SOL    HW2 6273   4.386   5.720   2.107 -0.8452 -0.0020  0.4051
 1960SOL     OW 6274   0.827   5.279   3.944  0.8052  0.3117 -0.1035
 1960SOL    HW1 6275   0.776   5.358   3.928  1.1723  0.9983  1.8550
 1960SOL    HW2 6276   0.902   5.309   3.996  0.6641 -1.3644  1.1552
 1961SOL     OW 6277   2.015   4.355   4.744  0.1511  0.2347  0.1932
 1961SOL    HW1 6278   1.922   4.349   4.722  0.2439  2.0872 -0.8415
 1961SOL    HW2 6279   2.057   4.295   4.681 -0.3433 -0.9720  0.9680
 1962SOL     OW 6280   2.095   3.303   6.491 -0.4990 -0.3068 -0.3578
 1962SOL    HW1 6281   2.098   3.397   6.478 -0.3778 -0.2655 -0.0452
 1962SOL    HW2 6282   2.002   3.282   6.495 -0.5708  0.1532  1.9731
 1963SOL     OW 6283   0.229   4.165   1.886  0.1210 -0.3613  0.5932
 1963SOL    HW1 6284   0.287   4.162   1.962  0.1524  2.8234  0.8163
 1963SOL    HW2 6285   0.282   4.131   1.814  1.7738  1.0055  1.0971
 1964SOL     OW 6286   1.043   3.737   6.935  0.0354  0.2890  0.0463
 1964SOL    HW1 6287   1.094   3.812   6.903  2.3498 -1.5451 -0.9008
 1964SOL    HW2 6288   1.013   3.764   7.021  3.3981  1.3109  1.0834
 1965SOL     OW 6289   6.717   6.021   4.663 -0.1771 -0.0923  0.1724
 1965SOL    HW1 6290   6.789   5.971   4.624  1.4493  0.9474  1.6428
 1965SOL    HW2 6291   6.712   6.101   4.610  0.4668  0.2842  0.6606
 1966SOL     OW 6292   6.887   6.446   2.361 -0.5084  0.5777  0.1398
 1966SOL    HW1 6293   6.935   6.528   2.367  0.3886  0.2825 -2.0914
 1966SOL    HW2 6294   6.932   6.388   2.423  0.9906  0.8219 -0.6651
 1967SOL     OW 6295   3.098   5.070   4.288  0.3845 -0.7191 -0.2505
 1967SOL    HW1 6296   3.107   5.013   4.364  1.8855 -0.7322 -0.4160
 1967SOL    HW2 6297   3.044   5.143   4.318  1.6213 -0.3096  1.0802
 1968SOL     OW 6298   3.462   1.274   5.767 -0.1005 -0.0048  0.2985
 1968SOL    HW1 6299   3.452   1.253   5.860  0.1051  1.0661  0.5694
 1968SOL    HW2 6300   3.541   1.327   5.762 -0.6266  0.7349 -0.3670
 1969SOL     OW 6301   4.786   4.009   3.009  0.3528  0.1745 -0.0927
 1969SOL    HW1 6302   4.708   3.957   3.028 -1.1797  1.5864 -2.1696
 1969SOL    HW2 6303   4.852   3.945   2.984 -0.7375 -0.9194 -0.2439
 1970SOL     OW 6304   4.927   2.899   6.308 -0.0328  0.1941 -0.1690
 1970SOL    HW1 6305   4.960   2.813   6.281 -1.0896 -0.6597  1.1128
 1970SOL    HW2 6306   4.971   2.961   6.250  0.6459 -1.2167 -1.2288
 1971SOL     OW 6307   5.992   6.457   0.309  0.0894  0.7683  0.1034
 1971SOL    HW1 6308   6.003   6.464   0.214 -1.0327  0.8730 -0.0350
 1971SOL    HW2 6309   5.905   6.418   0.320 -0.1064  1.4503  1.0942
 1972SOL     OW 6310   1.957   5.053   0.813 -0.7631 -0.2632 -0.4630
 1972SOL    HW1 6311   2.051   5.074   0.808 -0.7443 -0.6501 -2.2742
 1972SOL    HW2 6312   1.937   5.013   0.729 -2.7826  0.7257 -0.5020
 1973SOL     OW 6313   1.573   2.920   5.653 -0.6440  0.2449  0.0437
 1973SOL    HW1 6314   1.561   3.014   5.638  1.4290  0.2078 -2.4726
 1973SOL    HW2 6315   1.613   2.915   5.740 -0.6586  1.6951  0.1641
 1974SOL     OW 6316   5.373   2.086   2.015 -0.1141  0.7416 -0.7019
 1974SOL    HW1 6317   5.279   2.102   2.019 -0.2222  0.3175 -1.2951
 1974SOL    HW2 6318   5.380   1.997   1.979  0.5163  0.9350 -1.0727
 1975SOL     OW 6319   1.777   3.793   3.688  0.4277 -0.1794  0.4845
 1975SOL    HW1 6320   1.741   3.876   3.720 -1.1639 -1.0043  0.9123
 1975SOL    HW2 6321   1.711   3.760   3.627  1.7144 -0.4577 -0.8064
 1976SOL     OW 6322   4.247   1.834   4.386 -0.9191  0.2180  0.3341
 1976SOL    HW1 6323   4.218   1.791   4.306  0.4864 -2.4432  1.1221
 1976SOL    HW2 6324   4.192   1.912   4.393 -0.4752  1.1004 -3.6531
 1977SOL     OW 6325   3.770   2.454   5.133  0.3064 -0.4070  0.1629
 1977SOL    HW1 6326   3.712   2.522   5.099  1.6613  1.2795  1.0873
 1977SOL    HW2 6327   3.789   2.399   5.057 -0.4740  0.4866 -0.7070
 1978SOL     OW 6328   1.628   1.727   5.346  0.0410  0.3076  0.2515
 1978SOL    HW1 6329   1.569   1.709   5.272  2.5211 -1.3732 -1.5094
 1978SOL    HW2 6330   1.609   1.817   5.371 -2.1817  0.3148 -1.2269
 1979SOL     OW 6331   4.692   4.231   6.238 -0.3502 -0.2094  0.2088
 1979SOL    HW1 6332   4.680   4.286   6.315 -0.2712 -0.7502  0.6056
 1979SOL    HW2 6333   4.606   4.193   6.222 -0.5362  0.4368 -0.3847
 1980SOL     OW 6334   0.222   3.734   0.406  0.2407  0.1896  0.5512
 1980SOL    HW1 6335   0.225   3.782   0.489 -0.1426  0.5111  0.3888
 1980SOL    HW2 6336   0.190   3.799   0.343  2.7067  0.6275 -0.3533
 1981SOL     OW 6337   2.267   0.674   1.686 -0.1405 -0.3003  1.0411
 1981SOL    HW1 6338   2.344   0.730   1.680 -0.6978  0.6624  2.3259
 1981SOL    HW2 6339   2.204   0.726   1.736 -0.8777 -1.8662  1.8030
 1982SOL     OW 6340   2.514   5.620   1.416 -0.3936 -0.2971  0.2236
 1982SOL    HW1 6341   2.505   5.579   1.502  2.9030  0.5341  1.1153
 1982SOL    HW2 6342   2.596   5.670   1.422  0.2220 -0.5511 -3.5292
 1983SOL     OW 6343   0.464   2.645   6.394 -0.1044 -0.5161  0.0753
 1983SOL    HW1 6344   0.388   2.700   6.373 -1.2437 -1.9459  0.2522
 1983SOL    HW2 6345   0.529   2.705   6.428 -1.6707  0.5905  1.2475
 1984SOL     OW 6346   4.603   3.085   0.171 -0.2548 -0.1819 -0.7661
 1984SOL    HW1 6347   4.696   3.105   0.182 -0.4139 -0.0274  0.3561
 1984SOL    HW2 6348   4.561   3.123   0.247 -1.2455 -0.2774 -1.2502
 1985SOL     OW 6349   6.696   2.048   5.026  0.2956  0.0388  0.3812
 1985SOL    HW1 6350   6.728   2.037   4.937 -0.6814 -0.4840  0.0854
 1985SOL    HW2 6351   6.618   1.993   5.031  0.2878  0.1218  1.5359
 1986SOL     OW 6352   6.643   6.827   6.801 -0.0426  0.0285 -0.0794
 1986SOL    HW1 6353   6.703   6.813   6.728 -0.4168  1.7228 -0.7715
 1986SOL    HW2 6354   6.591   6.746   6.805  1.3238 -0.9003 -0.3485
 1987SOL     OW 6355   4.768   0.241   4.664  0.3452 -0.2581 -0.0812
 1987SOL    HW1 6356   4.792   0.254   4.756  1.3175 -0.6482 -0.2693
 1987SOL    HW2 6357   4.747   0.148   4.657  2.4566 -0.7316 -0.7087
 1988SOL     OW 6358   1.647   1.264   4.816 -0.0724 -0.0486  0.4738
 1988SOL    HW1 6359   1.607   1.193   4.866  0.4445  0.3518  1.4845
 1988SOL    HW2 6360   1.711   1.220   4.759 -0.2453 -0.4525  0.5855
 1989SOL     OW 6361   5.519   5.121   3.686 -0.4467  0.0470  0.3553
 1989SOL    HW1 6362   5.533   5.087   3.775  1.0543  0.7239  0.4004
 1989SOL    HW2 6363   5.441   5.074   3.655 -1.5346  0.4020  2.3295
 1990SOL     OW 6364   5.004   0.123   2.767  0.6041  0.0063  0.4583
 1990SOL    HW1 6365   5.008   0.027   2.764 -1.9337 -0.1852  1.2149
 1990SOL    HW2 6366   5.078   0.147   2.823  2.8542 -1.2521 -1.7549
 1991SOL     OW 6367   1.336   6.864   5.760  0.4510 -0.0512 -0.2938
 1991SOL    HW1 6368   1.255   6.907   5.733  0.9522  1.0297 -0.1331
 1991SOL    HW2 6369   1.385   6.851   5.679  0.1990 -0.5252 -0.3686
 1992SOL     OW 6370   6.456   5.163   0.532 -0.1448 -0.3143  0.2160
 1992SOL    HW1 6371   6.497   5.250   0.538 -1.0854  0.3134 -1.7266
 1992SOL    HW2 6372   6.382   5.168   0.593 -0.1037  0.1899  0.2337
 1993SOL     OW 6373   2.006   4.920   2.014  0.4953 -0.5804  0.6968
 1993SOL    HW1 6374   1.964   4.847   2.059  0.6018 -1.9197 -1.2099
 1993SOL    HW2 6375   1.957   4.997   2.041 -0.5694 -1.5600  1.6689
 1994SOL     OW 6376   2.677   3.681   3.825  0.1515  0.2644  0.4775
 1994SOL    HW1 6377   2.763   3.677   3.867  0.3481  2.2737  0.3697
 1994SOL    HW2 6378   2.630   3.605   3.858  1.4254  0.0026  1.7764
 1995SOL     OW 6379   0.298   5.822   4.623 -0.1229  0.0513  0.0528
 1995SOL    HW1 6380   0.377   5.838   4.572  0.1949  0.9959  0.8021
 1995SOL    HW2 6381   0.321   5.848   4.713 -1.0599 -0.3407  0.4283
 1996SOL     OW 6382   3.038   2.289   2.830 -0.2668 -0.5403  0.2891
 1996SOL    HW1 6383   3.012   2.213   2.778 -0.0237  0.1354 -0.8566
 1996SOL    HW2 6384   3.132   2.298   2.814 -0.6150  1.1295 -1.1756
 1997SOL     OW 6385   3.210   3.788   5.313 -0.4261 -0.0546  0.4511
 1997SOL    HW1 6386   3.210   3.705   5.361 -0.6293  0.5774  1.5827
 1997SOL    HW2 6387   3.178   3.765   5.225  0.5301 -1.3376  0.4167
 1998SOL     OW 6388   4.820   5.423   5.161 -0.3066  0.5572 -0.3175
 1998SOL    HW1 6389   4.855   5.422   5.250 -2.5807 -0.9913  0.6658
 1998SOL    HW2 6390   4.764   5.501   5.158 -0.1245  0.6841 -0.4455
 1999SOL     OW 6391   0.855   4.882   2.187 -0.0138  0.4286  0.6981
 1999SOL    HW1 6392   0.884   4.826   2.260  0.4821  0.3654  0.4557
 1999SOL    HW2 6393   0.792   4.942   2.227 -0.4360 -0.1959  0.9985
 2000SOL     OW 6394   3.169   1.729   4.337 -0.2291 -0.6193 -0.9939
 2000SOL    HW1 6395   3.199   1.719   4.247  1.2348  0.7443 -0.7182
 2000SOL    HW2 6396   3.107   1.802   4.334  1.3081  0.7798 -0.6743
 2001SOL     OW 6397   5.232   6.321   1.943 -0.4231 -0.6170  0.0201
 2001SOL    HW1 6398   5.230   6.417   1.947  1.7524 -0.5745  1.2447
 2001SOL    HW2 6399   5.206   6.292   2.030  0.3345 -1.1009  0.0928
 2002SOL     OW 6400   0.999   0.941   5.359  0.0747 -0.8867  0.4291
 2002SOL    HW1 6401   1.083   0.950   5.405 -0.4614  1.8635  1.0459
 2002SOL    HW2 6402   0.976   1.031   5.334 -2.9104 -1.4941  0.6660
 2003SOL     OW 6403   6.272   1.002   2.284 -0.2422  0.3198 -0.0712
 2003SOL    HW1 6404   6.338   1.045   2.338  1.2314  0.7824 -2.1229
 2003SOL    HW2 6405   6.284   0.908   2.301 -0.1881  0.4643  0.7644
 2004SOL     OW 6406   2.955   4.385   0.625 -0.3141 -0.3290  0.2950
 2004SOL    HW1 6407   2.992   4.373   0.712 -0.6533 -0.5204  0.4137
 2004SOL    HW2 6408   2.867   4.419   0.641  0.0250  0.7439  0.0050
 2005SOL     OW 6409   5.219   2.695   3.096  0.2629 -0.1760 -0.0052
 2005SOL    HW1 6410   5.210   2.688   3.191  0.9121  0.0761  0.0771
 2005SOL    HW2 6411   5.206   2.606   3.064 -0.5841 -0.1624  0.2579
 2006SOL     OW 6412   4.317   2.074   0.078  0.2511  0.1253 -0.1505
 2006SOL    HW1 6413   4.347   2.118  -0.002  0.5996 -0.4407 -0.3409
 2006SOL    HW2 6414   4.392   2.021   0.106 -0.2307 -0.5287 -0.0637
 2007SOL     OW 6415   4.336   2.029   0.662 -0.0027  0.2396 -0.2935
 2007SOL    HW1 6416   4.420   2.043   0.618  0.6931  0.9068  1.1611
 2007SOL    HW2 6417   4.313   2.115   0.697 -0.2511 -0.3598  1.0718
 2008SOL     OW 6418   4.134   6.587   4.449 -0.4040 -0.1365  1.2277
 2008SOL    HW1 6419   4.062   6.607   4.389  0.3465 -0.5712  0.1531
 2008SOL    HW2 6420   4.127   6.493   4.465 -0.0450 -0.1882  1.0836
 2009SOL     OW 6421   3.449   3.651   3.542  0.0095 -0.0603 -0.2362
 2009SOL    HW1 6422   3.461   3.572   3.596 -0.7476  1.2414  1.9653
 2009SOL    HW2 6423   3.520   3.647   3.478  1.1173 -1.5935  0.9993
 2010SOL     OW 6424   5.389   0.119   0.466  0.0263  0.4762  0.2760
 2010SOL    HW1 6425   5.416   0.170   0.390 -0.3098  0.3804  0.0902
 2010SOL    HW2 6426   5.450   0.046   0.470  1.0213  1.3053  1.0079
 2011SOL     OW 6427   3.701   6.639   6.452  0.4114 -0.4852 -0.1866
 2011SOL    HW1 6428   3.622   6.614   6.500  0.0881  0.9967  0.1098
 2011SOL    HW2 6429   3.671   6.656   6.363  0.6645 -1.3255 -0.4386
 2012SOL     OW 6430   1.490   2.557   3.566  0.0681 -0.3685 -0.3406
 2012SOL    HW1 6431   1.551   2.600   3.625  0.6359 -2.5187  0.7103
 2012SOL    HW2 6432   1.519   2.466   3.562 -0.6341 -0.5794 -3.0616
 2013SOL     OW 6433   5.931   1.221   6.820 -0.2048  0.3864 -0.7256
 2013SOL    HW1 6434   5.977   1.138   6.830 -0.0173  0.5742  0.0078
 2013SOL    HW2 6435   5.979   1.283   6.874 -2.1476  0.2491  1.3187
 2014SOL     OW 6436   2.219   5.647   5.200  0.1012  0.1114  0.0034
 2014SOL    HW1 6437   2.290   5.626   5.261 -0.5916 -0.3748  0.6624
 2014SOL    HW2 6438   2.264   5.669   5.118  1.0508  0.7912  0.6791
 2015SOL     OW 6439   0.934   4.804   4.312 -0.0229 -0.2982  0.2795
 2015SOL    HW1 6440   0.848   4.769   4.287  0.6175 -1.1272 -0.8393
 2015SOL    HW2 6441   0.991   4.783   4.238  1.4036 -0.6786  1.4418
 2016SOL     OW 6442   0.201   2.746   2.233  0.0742 -0.2258 -0.1061
 2016SOL    HW1 6443   0.214   2.720   2.325  0.7838 -0.3906 -0.2506
 2016SOL    HW2 6444   0.168   2.667   2.191 -1.4362  0.1783  0.2489
 2017SOL     OW 6445   3.204   6.472   0.432  0.6449 -0.6604 -0.0336
 2017SOL    HW1 6446   3.272   6.496   0.369  1.2487 -0.0708  0.8095
 2017SOL    HW2 6447   3.204   6.545   0.494  1.0713 -1.8905  1.4545
 2018SOL     OW 6448   0.636   5.247   0.815  0.5706 -0.3875 -0.6851
 2018SOL    HW1 6449   0.706   5.207   0.867  1.0603  0.7955 -0.4113
 2018SOL    HW2 6450   0.555   5.220   0.859  0.9947  0.9923  1.0132
 2019SOL     OW 6451   3.250   1.922   3.123 -0.1215 -0.1269  0.3943
 2019SOL    HW1 6452   3.316   1.964   3.068  0.8772 -1.3168  0.6508
 2019SOL    HW2 6453   3.187   1.885   3.061  0.2930 -0.3384  0.0978
 2020SOL     OW 6454   4.424   3.984   3.500  0.3591  0.4472  0.0649
 2020SOL    HW1 6455   4.411   4.051   3.434  0.1271 -1.3723 -1.8476
 2020SOL    HW2 6456   4.454   3.907   3.451  3.0392 -0.1868  2.4082
 2021SOL     OW 6457   1.569   1.265   0.477 -0.8609  0.1811  0.1611
 2021SOL    HW1 6458   1.486   1.247   0.432  0.7434 -0.8079 -2.6480
 2021SOL    HW2 6459   1.609   1.335   0.426 -0.0822  0.9385  1.7210
 2022SOL     OW 6460   5.463   1.607   3.672 -0.5588  0.1309 -0.2677
 2022SOL    HW1 6461   5.458   1.603   3.768  0.5737 -0.6550 -0.2159
 2022SOL    HW2 6462   5.382   1.566   3.642 -0.8252  0.1885  0.3546
 2023SOL     OW 6463   3.939   3.461   4.110  0.1668  0.3983  0.3797
 2023SOL    HW1 6464   3.878   3.503   4.050 -1.0095 -1.6821  0.0145
 2023SOL    HW2 6465   3.885   3.428   4.181  1.2230  0.6709  1.3453
 2024SOL     OW 6466   4.196   6.133   0.792  0.3457  0.4796 -0.3277
 2024SOL    HW1 6467   4.117   6.079   0.793  0.6474 -0.0102  1.7581
 2024SOL    HW2 6468   4.261   6.080   0.746  0.1780 -0.2652  0.2720
 2025SOL     OW 6469   6.763   4.835   5.489 -0.1200 -0.6637  0.1188
 2025SOL    HW1 6470   6.710   4.806   5.415  0.5509 -1.1531 -0.1874
 2025SOL    HW2 6471   6.717   4.801   5.566 -1.2038  0.4516 -0.0060
 2026SOL     OW 6472   0.741   3.255   4.107  0.8088  0.6698  0.3561
 2026SOL    HW1 6473   0.713   3.169   4.138  1.4448  0.4149  0.2499
 2026SOL    HW2 6474   0.670   3.284   4.050  0.1600  0.6306  1.1204
 2027SOL     OW 6475   1.628   2.045   5.742 -0.3804 -0.1569 -0.4113
 2027SOL    HW1 6476   1.722   2.038   5.759 -0.0853  0.9335 -1.4037
 2027SOL    HW2 6477   1.607   1.971   5.686  0.0247 -0.0626 -0.6897
 2028SOL     OW 6478   6.871   1.095   4.894 -0.1115 -0.0517 -0.3039
 2028SOL    HW1 6479   6.841   1.184   4.912  2.3565  0.7237  0.3838
 2028SOL    HW2 6480   6.797   1.039   4.918 -1.0117  1.6928  1.2044
 2029SOL     OW 6481   4.318   2.343   0.190  0.1862 -0.2884 -0.1599
 2029SOL    HW1 6482   4.336   2.259   0.147  2.0802 -0.8469  1.5430
 2029SOL    HW2 6483   4.333   2.409   0.123 -0.7005 -1.2698 -1.3549
 2030SOL     OW 6484   6.512   2.565   4.391  0.0438 -0.2422  0.1170
 2030SOL    HW1 6485   6.474   2.608   4.468  4.6141  1.5420  1.6876
 2030SOL    HW2 6486   6.529   2.476   4.419 -0.6857 -0.3638  0.2052
 2031SOL     OW 6487   1.058   5.593   2.387  0.3684 -0.9959 -0.6529
 2031SOL    HW1 6488   0.995   5.664   2.398 -0.7476 -1.9277 -0.8229
 2031SOL    HW2 6489   1.140   5.626   2.425 -0.1076  0.3869 -0.7923
 2032SOL     OW 6490   1.259   1.630   1.117 -0.2333  0.1811 -0.2272
 2032SOL    HW1 6491   1.236   1.663   1.203  2.2258  1.1233  0.1594
 2032SOL    HW2 6492   1.184   1.650   1.062 -0.5616  2.5665  0.9677
 2033SOL     OW 6493   1.430   3.076   6.451  0.0086  0.2623 -0.1663
 2033SOL    HW1 6494   1.523   3.063   6.437 -0.5042 -0.4646 -3.8984
 2033SOL    HW2 6495   1.418   3.171   6.448  0.7596  0.5032  2.3007
 2034SOL     OW 6496   4.320   0.522   6.604  0.0300  0.2592 -0.5231
 2034SOL    HW1 6497   4.296   0.432   6.582 -0.5115  0.0010  0.9826
 2034SOL    HW2 6498   4.411   0.530   6.577 -0.2300 -0.3785 -1.6773
 2035SOL     OW 6499   2.809   5.799   3.875 -1.0670  0.1245  0.4687
 2035SOL    HW1 6500   2.863   5.820   3.799  0.6391  1.0217  1.8753
 2035SOL    HW2 6501   2.719   5.801   3.842 -0.4508  1.6875 -1.2554
 2036SOL     OW 6502   4.500   2.673   6.331 -0.4479  0.4410 -0.0136
 2036SOL    HW1 6503   4.571   2.734   6.352  1.0172 -0.0776 -2.8611
 2036SOL    HW2 6504   4.502   2.608   6.401  2.6428 -0.0941 -0.4442
 2037SOL     OW 6505   3.231   3.401   1.835 -0.1739  0.2384  0.7670
 2037SOL    HW1 6506   3.144   3.370   1.812 -0.4158  0.6837  1.0657
 2037SOL    HW2 6507   3.274   3.326   1.876 -0.4653  0.0593  0.7470
 2038SOL     OW 6508   5.698   0.204   4.215 -0.2283 -0.4273  0.0727
 2038SOL    HW1 6509   5.645   0.171   4.142 -1.1395  0.4890  0.2945
 2038SOL    HW2 6510   5.733   0.287   4.182 -1.8405  0.7489  1.1301
 2039SOL     OW 6511   3.253   0.097   4.613 -0.2960  0.2872  0.4359
 2039SOL    HW1 6512   3.197   0.038   4.565 -1.4030  1.6782 -0.0504
 2039SOL    HW2 6513   3.296   0.150   4.546  0.8710 -0.0858  0.8474
 2040SOL     OW 6514   3.080   6.211   5.018  0.4180  0.5313  0.0688
 2040SOL    HW1 6515   3.112   6.290   4.975  0.7519  0.2772 -0.1568
 2040SOL    HW2 6516   3.016   6.174   4.956 -0.1959  0.9447  0.4420
 2041SOL     OW 6517   6.052   0.737   2.489 -0.1137 -0.2506 -0.2107
 2041SOL    HW1 6518   6.132   0.735   2.435  1.3298 -0.3630  1.8223
 2041SOL    HW2 6519   6.067   0.670   2.556 -2.0841 -0.4961  0.0469
 2042SOL     OW 6520   6.683   5.126   0.208  0.9229  0.0545  0.1704
 2042SOL    HW1 6521   6.713   5.100   0.296  0.3997 -0.4944  0.1924
 2042SOL    HW2 6522   6.764   5.147   0.161  1.1752  0.9541  0.9628
 2043SOL     OW 6523   6.513   0.572   2.818 -0.8793  0.1723 -0.4768
 2043SOL    HW1 6524   6.487   0.485   2.849  0.2212 -0.3262 -0.8845
 2043SOL    HW2 6525   6.608   0.565   2.806 -0.3682  2.1848  1.8314
 2044SOL     OW 6526   4.519   3.219   2.898  0.1722  0.1763  0.1566
 2044SOL    HW1 6527   4.471   3.225   2.980  0.8700 -0.4412  0.6224
 2044SOL    HW2 6528   4.595   3.164   2.918  0.3002 -0.0740 -0.9239
 2045SOL     OW 6529   2.605   2.837   2.401 -0.6143 -0.0622 -0.5091
 2045SOL    HW1 6530   2.582   2.909   2.343 -0.3650  1.4168  1.1179
 2045SOL    HW2 6531   2.613   2.761   2.344 -0.8908  1.1931 -2.3012
 2046SOL     OW 6532   3.218   0.326   5.021  0.0812 -0.1337 -0.7566
 2046SOL    HW1 6533   3.245   0.256   4.962  0.1607 -0.8090  0.0549
 2046SOL    HW2 6534   3.295   0.343   5.075 -0.4745 -0.6894  0.2497
 2047SOL     OW 6535   4.954   1.920   2.548 -0.2521 -0.0949  0.3456
 2047SOL    HW1 6536   4.945   1.936   2.642  0.0383 -0.3586  0.4193
 2047SOL    HW2 6537   5.028   1.859   2.541  0.9660  1.3920 -0.1870
 2048SOL     OW 6538   6.908   5.944   6.651 -0.4261 -0.0505 -0.2708
 2048SOL    HW1 6539   6.888   5.910   6.738  0.4231 -1.1615 -0.4955
 2048SOL    HW2 6540   6.978   6.008   6.665  0.2617 -0.8059 -0.2215
 2049SOL     OW 6541   1.457   1.121   5.581 -0.4292  0.0916  0.2622
 2049SOL    HW1 6542   1.538   1.154   5.542 -0.7743 -0.7011 -1.1804
 2049SOL    HW2 6543   1.486   1.063   5.651  0.2067  1.2863  1.0267
 2050SOL     OW 6544   5.808   1.094   5.734 -0.1801  0.7408 -0.4479
 2050SOL    HW1 6545   5.735   1.149   5.708 -1.0979 -1.9359 -4.4921
 2050SOL    HW2 6546   5.874   1.108   5.666  0.9257 -0.7056  0.2569
 2051SOL     OW 6547   3.580   2.847   4.863  0.6066 -0.2468 -0.4675
 2051SOL    HW1 6548   3.517   2.794   4.813  0.7774  1.3243 -2.4532
 2051SOL    HW2 6549   3.581   2.931   4.818  3.5696  0.0317 -0.0478
 2052SOL     OW 6550   5.898   5.005   3.235 -0.0490  0.3809 -0.2556
 2052SOL    HW1 6551   5.820   4.984   3.286  0.0119  0.4871 -0.1180
 2052SOL    HW2 6552   5.866   5.056   3.160  0.0601  1.9417  0.7016
 2053SOL     OW 6553   5.865   3.730   2.866  0.0250 -0.7995  0.0257
 2053SOL    HW1 6554   5.939   3.758   2.814 -0.2468 -1.5907 -0.8144
 2053SOL    HW2 6555   5.792   3.785   2.837  0.1640 -0.3485  0.5123
 2054SOL     OW 6556   2.955   3.166   3.183  0.2696  0.5402  0.2033
 2054SOL    HW1 6557   2.898   3.222   3.132  0.5017  1.4306  0.8877
 2054SOL    HW2 6558   2.911   3.158   3.268  0.9308  0.8736  0.5882
 2055SOL     OW 6559   6.273   6.330   6.931 -0.0887  0.5812 -0.4214
 2055SOL    HW1 6560   6.283   6.425   6.935 -1.3167  0.6753  1.2947
 2055SOL    HW2 6561   6.320   6.297   7.007 -0.3402 -0.1217 -0.5603
 2056SOL     OW 6562   1.859   3.951   4.056 -0.4054  0.4162 -0.0354
 2056SOL    HW1 6563   1.913   3.959   4.135  0.8885 -2.6546 -0.4591
 2056SOL    HW2 6564   1.913   3.988   3.986  0.6373 -1.2885 -0.2027
 2057SOL     OW 6565   0.096   6.947   0.918  0.3695 -0.3155  0.0117
 2057SOL    HW1 6566   0.176   6.925   0.871 -0.8724 -2.1228 -1.3845
 2057SOL    HW2 6567   0.094   7.043   0.921  2.7812 -0.2261  0.5231
 2058SOL     OW 6568   5.084   5.775   2.979  0.0137  0.1060 -0.6876
 2058SOL    HW1 6569   5.167   5.727   2.979  0.2336  0.4766 -0.3675
 2058SOL    HW2 6570   5.020   5.714   2.944  0.1594 -0.6319  0.2990
 2059SOL     OW 6571   0.572   6.245   6.072  0.1524  0.2218  0.0197
 2059SOL    HW1 6572   0.593   6.202   5.989  1.9247  1.5909 -0.3203
 2059SOL    HW2 6573   0.612   6.190   6.139  0.9773  0.4588 -0.2693
 2060SOL     OW 6574   2.633   1.975   4.922 -0.0004 -0.0203 -0.3571
 2060SOL    HW1 6575   2.583   1.965   4.841 -1.8622 -0.3577  0.7900
 2060SOL    HW2 6576   2.687   1.896   4.926 -2.8571 -2.0926  0.6584
 2061SOL     OW 6577   6.309   0.537   5.340 -0.1304 -0.8453  0.2405
 2061SOL    HW1 6578   6.255   0.613   5.316 -0.3424 -1.3542 -0.9950
 2061SOL    HW2 6579   6.348   0.509   5.257 -0.2844 -2.2599  0.6199
 2062SOL     OW 6580   3.619   6.571   6.916  0.1251 -0.2192  0.3524
 2062SOL    HW1 6581   3.673   6.609   6.847  0.6685 -1.3147  0.1442
 2062SOL    HW2 6582   3.678   6.565   6.991  0.3102 -1.3860  0.1370
 2063SOL     OW 6583   0.858   1.274   2.004 -0.1055 -0.1185  0.0842
 2063SOL    HW1 6584   0.872   1.338   1.934  1.1830 -2.0645 -1.5512
 2063SOL    HW2 6585   0.874   1.323   2.084 -1.5817  2.1908 -0.9223
 2064SOL     OW 6586   3.964   1.829   1.472 -0.4567 -0.2386 -0.4762
 2064SOL    HW1 6587   3.912   1.789   1.542 -0.2623 -2.0807 -1.3134
 2064SOL    HW2 6588   3.905   1.827   1.396 -0.5982  1.5554 -0.4564
 2065SOL     OW 6589   0.915   5.114   1.909 -0.5405 -0.3474  0.3348
 2065SOL    HW1 6590   0.892   5.114   2.002  0.6373 -1.4049  0.6501
 2065SOL    HW2 6591   0.888   5.029   1.876  1.6171 -1.1366  0.4290
 2066SOL     OW 6592   1.111   6.081   2.771  0.0970  0.1792 -0.6286
 2066SOL    HW1 6593   1.022   6.115   2.760 -0.6407 -1.3206  0.4258
 2066SOL    HW2 6594   1.167   6.155   2.748 -1.4080  1.2965 -0.9089
 2067SOL     OW 6595   5.157   6.371   5.692 -0.0073  0.4448  0.4647
 2067SOL    HW1 6596   5.077   6.322   5.671 -0.4457  2.2901 -3.0117
 2067SOL    HW2 6597   5.126   6.446   5.742  0.1023 -0.5687  2.1264
 2068SOL     OW 6598   0.944   5.222   3.351  0.1830  0.1182  0.0286
 2068SOL    HW1 6599   0.927   5.171   3.430 -2.3503  1.1647  0.2449
 2068SOL    HW2 6600   0.917   5.311   3.374  0.5554  0.6974 -1.6464
 2069SOL     OW 6601   3.811   4.864   5.394 -0.5264 -0.0951  0.7573
 2069SOL    HW1 6602   3.723   4.829   5.410 -0.4213 -0.1637  1.2099
 2069SOL    HW2 6603   3.806   4.955   5.423  0.0308 -0.5790  2.5412
 2070SOL     OW 6604   3.216   5.236   3.955  0.1625  0.1472 -0.1337
 2070SOL    HW1 6605   3.287   5.296   3.981 -0.1020  0.0274  0.9173
 2070SOL    HW2 6606   3.144   5.257   4.015 -0.5996  0.0694 -1.0024
 2071SOL     OW 6607   4.786   5.376   3.047 -0.0362 -0.3071  0.1567
 2071SOL    HW1 6608   4.806   5.394   3.139  2.5051 -1.3542 -0.1201
 2071SOL    HW2 6609   4.696   5.344   3.049  0.3832 -1.6122  2.5033
 2072SOL     OW 6610   2.094   4.224   4.988 -0.4386  0.1374  0.2000
 2072SOL    HW1 6611   2.029   4.231   4.919  2.0049 -1.6012 -2.5048
 2072SOL    HW2 6612   2.152   4.299   4.975  0.3783 -0.5230 -0.0612
 2073SOL     OW 6613   1.086   4.185   5.186  0.1748  0.1368 -0.1908
 2073SOL    HW1 6614   1.072   4.149   5.098  3.1951  0.1134 -0.7509
 2073SOL    HW2 6615   1.092   4.279   5.173 -0.3321  0.2227  0.1647
 2074SOL     OW 6616   3.147   2.900   6.489  0.4703  0.2349 -0.0816
 2074SOL    HW1 6617   3.104   2.950   6.420 -0.1867 -0.7193 -0.3814
 2074SOL    HW2 6618   3.196   2.965   6.539 -0.6663  1.2294 -0.2344
 2075SOL     OW 6619   3.158   2.167   6.817  0.0039 -0.3201  0.0484
 2075SOL    HW1 6620   3.211   2.088   6.806  1.1547  0.3959  0.2415
 2075SOL    HW2 6621   3.170   2.191   6.909 -1.1191 -0.4546  0.2356
 2076SOL     OW 6622   5.803   5.177   4.926 -0.2449 -0.5224  0.0420
 2076SOL    HW1 6623   5.832   5.235   4.996  0.3032  0.4852 -0.9797
 2076SOL    HW2 6624   5.883   5.138   4.891 -0.4323 -0.4096 -0.5319
 2077SOL     OW 6625   0.052   1.793   4.476  0.4379  0.0122 -0.1105
 2077SOL    HW1 6626   0.053   1.697   4.470  0.5213  0.0714 -1.2189
 2077SOL    HW2 6627   0.104   1.822   4.401  0.8880  0.9165  0.5372
 2078SOL     OW 6628   0.567   2.569   5.588  0.4097  0.0290 -0.2881
 2078SOL    HW1 6629   0.626   2.498   5.561 -1.1466 -1.1826 -0.6394
 2078SOL    HW2 6630   0.553   2.555   5.681  0.9976  0.5990 -0.0993
 2079SOL     OW 6631   6.578   6.166   3.681 -0.6258  0.3287 -1.0704
 2079SOL    HW1 6632   6.486   6.174   3.655 -0.6030  1.5800 -0.8270
 2079SOL    HW2 6633   6.625   6.222   3.619 -0.1411  0.3789 -0.6638
 2080SOL     OW 6634   0.752   4.947   6.045 -0.2081  0.1434 -0.0463
 2080SOL    HW1 6635   0.794   4.963   6.130  0.1247  0.7392 -0.3213
 2080SOL    HW2 6636   0.704   4.865   6.058 -0.4215  0.3856  0.8183
 2081SOL     OW 6637   4.329   5.871   1.376 -0.1815 -0.5491  0.0394
 2081SOL    HW1 6638   4.360   5.791   1.419 -1.2103 -0.5195  0.8738
 2081SOL    HW2 6639   4.289   5.923   1.446 -1.0439 -0.0763 -0.7750
 2082SOL     OW 6640   6.015   0.188   5.202 -0.2997 -0.0024 -0.5729
 2082SOL    HW1 6641   5.949   0.233   5.149  1.0734 -1.9647 -4.3763
 2082SOL    HW2 6642   5.978   0.102   5.219 -0.4315  0.3757  1.1847
 2083SOL     OW 6643   1.830   1.103   4.641 -0.1260 -0.0685 -0.7794
 2083SOL    HW1 6644   1.895   1.062   4.584  0.7174  0.3477 -0.1439
 2083SOL    HW2 6645   1.768   1.034   4.662 -0.7387 -0.1155 -2.5849
 2084SOL     OW 6646   0.784   0.663   2.382 -0.2864 -0.3974 -0.0368
 2084SOL    HW1 6647   0.819   0.746   2.351 -0.9301  0.5845  1.6940
 2084SOL    HW2 6648   0.857   0.622   2.428  0.3351 -1.3192 -1.7741
 2085SOL     OW 6649   2.765   1.956   2.163  0.7143  0.1215  0.5049
 2085SOL    HW1 6650   2.743   1.876   2.116 -0.1751  0.1915  0.7887
 2085SOL    HW2 6651   2.728   2.026   2.109 -0.4239  0.1981  1.3370
 2086SOL     OW 6652   3.964   0.109   5.956  0.2940 -0.2032  0.3303
 2086SOL    HW1 6653   4.030   0.080   5.893 -1.2966  0.4738 -1.7656
 2086SOL    HW2 6654   3.992   0.198   5.980 -0.6189  0.7620 -1.8555
 2087SOL     OW 6655   0.263   5.189   2.650  0.1050  0.2190  0.2434
 2087SOL    HW1 6656   0.216   5.122   2.599 -0.8030  0.9696  0.0586
 2087SOL    HW2 6657   0.210   5.268   2.639  1.3753  1.0757  0.1300
 2088SOL     OW 6658   2.901   0.412   6.228 -0.0623 -0.6250 -0.0162
 2088SOL    HW1 6659   2.849   0.366   6.294  0.6666  0.4596  1.3852
 2088SOL    HW2 6660   2.992   0.397   6.255  0.2037  1.4653  0.4178
 2089SOL     OW 6661   2.628   3.341   0.164  0.8474 -0.4522  0.1373
 2089SOL    HW1 6662   2.570   3.370   0.234 -0.5554 -1.2183 -0.6800
 2089SOL    HW2 6663   2.667   3.260   0.197  2.8618  0.9507  1.4003
 2090SOL     OW 6664   6.679   2.712   5.222 -0.2641  0.1006  0.3593
 2090SOL    HW1 6665   6.665   2.801   5.189  1.4948 -0.0019 -0.8047
 2090SOL    HW2 6666   6.675   2.656   5.144 -0.7481 -0.7694  0.9939
 2091SOL     OW 6667   6.648   0.969   5.013  0.2632  0.4991  0.2533
 2091SOL    HW1 6668   6.556   0.994   5.005 -0.1320 -1.0778 -0.5929
 2091SOL    HW2 6669   6.651   0.914   5.092  0.6532  1.2119  0.7456
 2092SOL     OW 6670   6.843   2.859   6.762  0.5362 -0.6219  0.0671
 2092SOL    HW1 6671   6.907   2.915   6.717  0.4043  1.5671  2.3972
 2092SOL    HW2 6672   6.878   2.849   6.851 -1.1602 -1.3877  0.6976
 2093SOL     OW 6673   3.714   6.252   2.338 -0.4748  0.2035 -0.1995
 2093SOL    HW1 6674   3.737   6.257   2.245 -0.1432 -0.6176 -0.1691
 2093SOL    HW2 6675   3.753   6.170   2.368  0.7503  1.1970  1.0429
 2094SOL     OW 6676   3.883   6.061   3.028 -0.3064  0.5771  0.0230
 2094SOL    HW1 6677   3.866   6.144   3.072  0.7871  1.6767 -1.5042
 2094SOL    HW2 6678   3.841   6.070   2.943 -2.0212 -1.3270  0.5984
 2095SOL     OW 6679   5.254   1.907   0.253 -0.0659  0.4641 -0.6820
 2095SOL    HW1 6680   5.341   1.872   0.237  0.0170  1.5450 -2.9522
 2095SOL    HW2 6681   5.195   1.843   0.212 -0.2039  0.6620 -0.7955
 2096SOL     OW 6682   5.791   0.659   4.944 -0.6728  0.0173 -0.6466
 2096SOL    HW1 6683   5.778   0.616   4.860  2.5872  1.3811 -2.0322
 2096SOL    HW2 6684   5.762   0.749   4.930 -1.8490 -0.1784  0.3363
 2097SOL     OW 6685   6.738   2.424   1.512 -0.1632  0.0678 -0.9649
 2097SOL    HW1 6686   6.756   2.338   1.550  1.5780  0.3966 -0.9453
 2097SOL    HW2 6687   6.664   2.458   1.562 -0.7593 -1.3378 -0.8613
 2098SOL     OW 6688   5.010   4.058   4.501 -0.1518 -0.7747 -0.0608
 2098SOL    HW1 6689   5.004   3.964   4.482  1.3438 -0.7884 -0.5727
 2098SOL    HW2 6690   5.081   4.089   4.445 -1.8154  1.0499 -1.3053
 2099SOL     OW 6691   3.092   2.353   3.845 -0.5768 -0.3048  0.1199
 2099SOL    HW1 6692   3.158   2.299   3.889 -0.1255 -0.0729 -0.2627
 2099SOL    HW2 6693   3.093   2.323   3.755 -0.8175 -0.1271  0.0573
 2100SOL     OW 6694   3.416   3.862   0.177 -0.1167 -0.0938  0.4684
 2100SOL    HW1 6695   3.431   3.779   0.132 -2.2415 -0.1576 -0.2381
 2100SOL    HW2 6696   3.449   3.929   0.118  1.2198 -0.3932  0.8553
 2101SOL     OW 6697   0.519   5.786   2.265  0.4502 -0.2748  0.1928
 2101SOL    HW1 6698   0.603   5.753   2.234  0.9490 -0.8933  2.0833
 2101SOL    HW2 6699   0.487   5.718   2.325  0.1977  1.4350  2.0970
 2102SOL     OW 6700   1.434   0.233   1.862  0.1377 -0.3579 -0.1449
 2102SOL    HW1 6701   1.453   0.204   1.951 -0.0309  0.6500  0.2234
 2102SOL    HW2 6702   1.353   0.187   1.839 -0.3525  0.1190  0.5848
 2103SOL     OW 6703   4.015   3.159   5.956  0.1183  0.0178 -0.1071
 2103SOL    HW1 6704   3.989   3.215   5.883  0.1908 -2.4308 -2.1102
 2103SOL    HW2 6705   4.084   3.208   6.001  0.6262  1.2570 -2.1503
 2104SOL     OW 6706   0.143   4.088   2.181  0.3483  0.0481  0.0619
 2104SOL    HW1 6707   0.192   4.012   2.212 -0.9302 -0.2489  1.4234
 2104SOL    HW2 6708   0.178   4.162   2.230 -1.1734 -0.3136  1.7969
 2105SOL     OW 6709   1.877   0.002   5.710 -0.0653 -0.2473 -0.1781
 2105SOL    HW1 6710   1.955   0.042   5.748 -0.9373  0.0935  1.3540
 2105SOL    HW2 6711   1.818   0.076   5.692 -0.4578 -0.5801 -0.2989
 2106SOL     OW 6712   4.385   1.427   5.321  0.2946 -0.2123 -0.1810
 2106SOL    HW1 6713   4.334   1.427   5.402  0.3234  0.4810 -0.1578
 2106SOL    HW2 6714   4.434   1.509   5.324 -0.1744  0.1116 -1.1956
 2107SOL     OW 6715   4.552   6.808   0.057  0.1912 -0.6547  0.9491
 2107SOL    HW1 6716   4.613   6.734   0.054 -0.2401 -1.0058 -2.0998
 2107SOL    HW2 6717   4.466   6.770   0.037 -0.1109  0.5385 -0.2116
 2108SOL     OW 6718   5.627   2.916   2.794  0.2236  0.1354 -0.2638
 2108SOL    HW1 6719   5.575   2.836   2.804 -0.3821  0.6018  0.3775
 2108SOL    HW2 6720   5.563   2.983   2.773  0.7344  0.4549 -0.8411
 2109SOL     OW 6721   3.740   3.417   4.328 -0.3025 -0.0439  0.4999
 2109SOL    HW1 6722   3.785   3.447   4.407 -2.1809  2.4608  0.7621
 2109SOL    HW2 6723   3.648   3.438   4.344 -1.0040 -1.2094 -1.6256
 2110SOL     OW 6724   1.886   4.784   1.773 -0.6286 -0.2207  0.1049
 2110SOL    HW1 6725   1.801   4.744   1.793 -0.3992 -0.4341  0.6804
 2110SOL    HW2 6726   1.916   4.819   1.857 -0.3273  0.2004 -0.1762
 2111SOL     OW 6727   3.277   5.394   2.496  0.7307 -0.0240  0.6690
 2111SOL    HW1 6728   3.296   5.402   2.402  0.7832 -0.8990  0.5944
 2111SOL    HW2 6729   3.248   5.481   2.522  1.3882  0.4163 -0.0072
 2112SOL     OW 6730   2.294   5.650   2.367 -0.6267  0.0989 -0.2062
 2112SOL    HW1 6731   2.386   5.675   2.369 -0.5858 -0.0323 -0.4585
 2112SOL    HW2 6732   2.289   5.580   2.302 -0.7326 -0.5754  0.5037
 2113SOL     OW 6733   4.677   4.147   2.354  0.1354 -0.0642  0.0394
 2113SOL    HW1 6734   4.687   4.227   2.302  0.4758 -0.4594 -0.5047
 2113SOL    HW2 6735   4.675   4.076   2.290 -0.9771 -0.4381  0.4596
 2114SOL     OW 6736   6.168   2.424   5.401  0.0430 -0.2878  0.0502
 2114SOL    HW1 6737   6.138   2.334   5.412 -0.3627 -0.2270 -0.4751
 2114SOL    HW2 6738   6.223   2.441   5.477  0.1442 -0.9870  0.1385
 2115SOL     OW 6739   5.493   5.561   1.391 -0.2205 -0.1748 -0.0498
 2115SOL    HW1 6740   5.578   5.520   1.408 -0.0415 -0.7096 -1.9297
 2115SOL    HW2 6741   5.443   5.547   1.471  1.0647 -0.9007  0.6625
 2116SOL     OW 6742   4.347   5.630   0.958 -0.2162 -0.0182 -0.5567
 2116SOL    HW1 6743   4.260   5.648   0.924  0.0386  1.7666 -0.3495
 2116SOL    HW2 6744   4.395   5.594   0.884 -0.7888  0.0977 -0.9884
 2117SOL     OW 6745   6.036   3.088   3.358 -0.1679 -0.3802  0.1896
 2117SOL    HW1 6746   5.977   3.083   3.283  0.1640 -1.0146 -0.0308
 2117SOL    HW2 6747   6.119   3.053   3.326  0.1233 -0.1752  0.7081
 2118SOL     OW 6748   4.287   1.682   5.502  0.1151 -0.0895 -0.4762
 2118SOL    HW1 6749   4.206   1.643   5.470  0.7030 -0.2336 -1.8734
 2118SOL    HW2 6750   4.321   1.618   5.565 -2.0851  1.1176  2.1537
 2119SOL     OW 6751   4.300   2.103   5.893  0.2771 -0.0677 -0.0336
 2119SOL    HW1 6752   4.305   2.146   5.808 -0.7954 -0.3682 -0.2724
 2119SOL    HW2 6753   4.386   2.115   5.932  1.1555 -0.8791 -1.6328
 2120SOL     OW 6754   2.654   2.366   6.176  0.2199 -0.1667 -0.5244
 2120SOL    HW1 6755   2.733   2.401   6.216 -0.5109  1.2779 -0.3014
 2120SOL    HW2 6756   2.670   2.271   6.171  1.7051  0.0289  0.0531
 2121SOL     OW 6757   0.120   4.889   5.667 -0.1976 -0.3828  0.3067
 2121SOL    HW1 6758   0.115   4.845   5.582 -0.2357  1.7970 -0.8750
 2121SOL    HW2 6759   0.032   4.879   5.703 -0.9191  0.7482 -1.0395
 2122SOL     OW 6760   2.648   4.398   5.723 -0.1343 -0.3862  0.2964
 2122SOL    HW1 6761   2.605   4.470   5.677  1.4482 -0.9227 -2.2517
 2122SOL    HW2 6762   2.598   4.320   5.697  0.4792 -0.6337 -0.1825
 2123SOL     OW 6763   6.362   1.385   6.317 -0.4307  0.2612 -0.2111
 2123SOL    HW1 6764   6.411   1.325   6.262  1.7841  0.8482  0.9999
 2123SOL    HW2 6765   6.428   1.445   6.352 -2.0562  1.2467  1.3374
 2124SOL     OW 6766   3.611   3.918   5.322  0.0001 -0.7226 -0.2267
 2124SOL    HW1 6767   3.525   3.939   5.358 -0.3569 -2.0937 -0.2483
 2124SOL    HW2 6768   3.666   3.993   5.347 -0.9354 -0.3160  0.6924
 2125SOL     OW 6769   4.815   1.517   3.475 -0.1204 -0.1572  0.4935
 2125SOL    HW1 6770   4.887   1.458   3.452  1.8209  1.2467  2.5567
 2125SOL    HW2 6771   4.826   1.532   3.569 -2.1802  1.3573  0.5472
 2126SOL     OW 6772   5.775   3.022   5.933 -0.1903  0.6644 -0.5147
 2126SOL    HW1 6773   5.802   2.948   5.878  0.2424  1.4950 -1.4475
 2126SOL    HW2 6774   5.734   2.981   6.009  0.3200 -0.5485 -0.8592
 2127SOL     OW 6775   4.743   3.837   6.378  0.6582 -0.0846  0.1312
 2127SOL    HW1 6776   4.732   3.818   6.471  0.4838  0.7945  0.3040
 2127SOL    HW2 6777   4.679   3.781   6.334 -0.0881  0.3497  0.6388
 2128SOL     OW 6778   1.283   0.998   4.243  0.5494 -0.8307  0.2056
 2128SOL    HW1 6779   1.247   1.064   4.304 -0.5599 -0.4768 -0.7968
 2128SOL    HW2 6780   1.206   0.954   4.208  0.8747  0.9850 -3.1945
 2129SOL     OW 6781   4.688   6.840   5.168 -0.9873  0.4073 -0.3098
 2129SOL    HW1 6782   4.686   6.829   5.263 -3.5769  0.2176 -0.3176
 2129SOL    HW2 6783   4.741   6.766   5.137  1.5419  1.5158  0.9952
 2130SOL     OW 6784   2.869   6.478   2.513 -0.5523  0.0628 -0.6789
 2130SOL    HW1 6785   2.811   6.494   2.588 -2.4160 -0.7062 -1.9112
 2130SOL    HW2 6786   2.830   6.527   2.441 -0.2129 -1.2443 -1.7830
 2131SOL     OW 6787   3.414   2.348   6.930  0.5221 -0.0809 -0.2229
 2131SOL    HW1 6788   3.348   2.392   6.875  0.9489 -1.4749 -1.9350
 2131SOL    HW2 6789   3.403   2.388   7.016 -1.6717  0.6523 -0.7696
 2132SOL     OW 6790   6.521   2.951   5.087 -0.7679  0.3167  0.4702
 2132SOL    HW1 6791   6.507   2.923   4.997 -1.8582 -0.9748  0.9986
 2132SOL    HW2 6792   6.570   3.033   5.080 -0.8135  0.2263 -1.2796
 2133SOL     OW 6793   3.723   1.372   6.932 -0.1291 -0.2314  0.3922
 2133SOL    HW1 6794   3.744   1.463   6.952 -0.6513 -0.0570  0.1540
 2133SOL    HW2 6795   3.735   1.326   7.015  0.5624 -0.0272  0.4107
 2134SOL     OW 6796   6.110   1.927   1.739 -0.5418  0.2388 -0.6618
 2134SOL    HW1 6797   6.158   1.894   1.814 -0.3007 -1.4259 -1.5026
 2134SOL    HW2 6798   6.029   1.964   1.775 -0.5893 -0.8504  0.3773
 2135SOL     OW 6799   6.233   3.733   6.139 -0.5791 -0.6231 -0.5251
 2135SOL    HW1 6800   6.325   3.715   6.119 -0.5652 -1.8552  0.4816
 2135SOL    HW2 6801   6.193   3.646   6.143 -1.8006 -0.0959 -0.9704
 2136SOL     OW 6802   1.403   0.647   5.562 -0.1949 -0.8999  0.2632
 2136SOL    HW1 6803   1.386   0.716   5.627  2.2911 -0.1135  0.1848
 2136SOL    HW2 6804   1.430   0.695   5.484  0.3011 -1.9290 -0.2096
 2137SOL     OW 6805   0.953   3.968   5.821 -0.2402  0.1537 -0.3979
 2137SOL    HW1 6806   1.002   3.887   5.830  1.7441  1.1453 -1.6526
 2137SOL    HW2 6807   0.886   3.949   5.756  1.0898 -0.1249 -1.7275
 2138SOL     OW 6808   2.902   4.741   3.875  0.2960 -0.6799 -0.1568
 2138SOL    HW1 6809   2.989   4.766   3.843  0.0557 -0.3407 -0.5558
 2138SOL    HW2 6810   2.859   4.701   3.800 -0.2938  0.1792 -0.3010
 2139SOL     OW 6811   1.782   2.776   1.450 -0.0033  0.3392  0.7366
 2139SOL    HW1 6812   1.825   2.816   1.375 -0.4084  1.2767  0.9935
 2139SOL    HW2 6813   1.853   2.764   1.514  0.0268  1.1950  0.8760
 2140SOL     OW 6814   6.941   2.301   0.954  0.0745  0.2010  0.1001
 2140SOL    HW1 6815   6.863   2.259   0.990 -0.0779 -1.1351 -1.6555
 2140SOL    HW2 6816   6.924   2.395   0.962 -0.1525  0.0139  2.9282
 2141SOL     OW 6817   6.509   0.326   6.219  0.3128 -0.2768 -0.5711
 2141SOL    HW1 6818   6.544   0.311   6.307 -0.5839  0.1326 -0.1267
 2141SOL    HW2 6819   6.583   0.310   6.161  1.3131  0.7695  0.3339
 2142SOL     OW 6820   1.412   5.684   6.160  0.5199  0.3061 -0.1581
 2142SOL    HW1 6821   1.396   5.777   6.178  1.4709  0.5615 -0.5777
 2142SOL    HW2 6822   1.372   5.638   6.234  1.4198  1.1366  0.8723
 2143SOL     OW 6823   6.512   3.732   2.949  0.1168 -0.3527  0.2229
 2143SOL    HW1 6824   6.585   3.680   2.914  0.4984 -0.7369  1.5534
 2143SOL    HW2 6825   6.477   3.777   2.872  1.2602 -0.7646 -0.5784
 2144SOL     OW 6826   5.067   6.582   1.214  0.3921 -0.4136  0.1085
 2144SOL    HW1 6827   5.145   6.634   1.234 -0.1905  0.9566 -1.0236
 2144SOL    HW2 6828   5.083   6.498   1.257  0.9166  0.9891  2.8975
 2145SOL     OW 6829   6.581   5.553   3.438  0.0153 -0.3206 -0.2675
 2145SOL    HW1 6830   6.635   5.526   3.512 -1.2885 -1.4856  0.2951
 2145SOL    HW2 6831   6.582   5.649   3.442  0.4909 -0.3584  0.8592
 2146SOL     OW 6832   2.579   0.135   4.054 -0.6121  0.0798 -0.6916
 2146SOL    HW1 6833   2.639   0.089   4.113 -2.4625 -0.2801  1.0268
 2146SOL    HW2 6834   2.607   0.109   3.967  0.1765 -2.0503  0.1303
 2147SOL     OW 6835   5.630   1.749   6.770  0.4348 -0.0001 -0.1156
 2147SOL    HW1 6836   5.547   1.725   6.729 -0.0980  1.0384  0.3310
 2147SOL    HW2 6837   5.614   1.835   6.810  1.6327  0.0830  0.2358
 2148SOL     OW 6838   0.357   6.031   2.229 -0.1868  0.0613 -0.2890
 2148SOL    HW1 6839   0.359   6.097   2.297 -3.9231 -0.8210  0.9372
 2148SOL    HW2 6840   0.389   5.951   2.272 -1.3041 -0.1977  0.0988
 2149SOL     OW 6841   0.269   0.666   3.838  0.5896  0.0001 -0.6198
 2149SOL    HW1 6842   0.290   0.620   3.920  1.4529 -0.8396 -1.2903
 2149SOL    HW2 6843   0.277   0.599   3.771 -0.6464  0.5608 -1.3405
 2150SOL     OW 6844   2.842   0.567   0.224  0.2768 -0.1583  0.0323
 2150SOL    HW1 6845   2.882   0.568   0.311  0.3630 -1.5749  0.0280
 2150SOL    HW2 6846   2.913   0.545   0.164 -0.4481 -2.9212  0.0465
 2151SOL     OW 6847   6.052   3.900   1.167  0.0764  0.1806  0.0820
 2151SOL    HW1 6848   6.086   3.944   1.245 -0.0212  0.3489  0.0309
 2151SOL    HW2 6849   6.004   3.968   1.120  0.3246  0.1390 -0.2422
 2152SOL     OW 6850   0.760   3.301   0.914 -0.4957  1.1108  0.0153
 2152SOL    HW1 6851   0.718   3.246   0.980  1.5120 -0.7382 -0.1433
 2152SOL    HW2 6852   0.692   3.315   0.848 -1.5324  0.1833  0.8566
 2153SOL     OW 6853   6.294   0.010   5.631 -1.1872 -0.7428 -0.0775
 2153SOL    HW1 6854   6.303   0.070   5.557 -0.6752  2.9031  2.6559
 2153SOL    HW2 6855   6.204  -0.021   5.626 -1.7941  1.0360 -1.1825
 2154SOL     OW 6856   0.578   6.574   3.838 -0.2090 -0.2637 -0.1614
 2154SOL    HW1 6857   0.658   6.616   3.870  0.5960 -0.7030 -1.5101
 2154SOL    HW2 6858   0.555   6.512   3.908  0.1022  0.5146  0.6492
 2155SOL     OW 6859   5.460   5.572   5.398  0.0435 -0.0311  0.3125
 2155SOL    HW1 6860   5.507   5.644   5.355  0.0934 -0.4900 -0.4168
 2155SOL    HW2 6861   5.413   5.528   5.327  0.8506 -1.3667  0.5703
 2156SOL     OW 6862   3.943   5.775   5.889 -0.2781 -0.4477 -0.2312
 2156SOL    HW1 6863   3.895   5.794   5.970  0.4870  2.2676 -0.3002
 2156SOL    HW2 6864   3.875   5.752   5.826 -1.3499  1.1846  0.2315
 2157SOL     OW 6865   1.124   5.663   0.436  0.4393  0.1947 -0.3510
 2157SOL    HW1 6866   1.175   5.739   0.411  0.9946 -0.6284 -1.8371
 2157SOL    HW2 6867   1.184   5.609   0.488 -0.1219  0.9849  1.1888
 2158SOL     OW 6868   6.158   0.767   2.792 -0.3550 -0.1298  0.4756
 2158SOL    HW1 6869   6.162   0.786   2.886 -0.0849 -1.7687  0.8198
 2158SOL    HW2 6870   6.246   0.787   2.760 -0.6365  1.1011  0.4071
 2159SOL     OW 6871   4.708   6.784   3.705  0.5534 -0.2536  0.4580
 2159SOL    HW1 6872   4.615   6.791   3.727 -0.1583  0.3775 -2.4294
 2159SOL    HW2 6873   4.751   6.847   3.763 -1.2065  1.6379 -0.2010
 2160SOL     OW 6874   4.219   6.302   5.326  0.7622  0.4039  0.2315
 2160SOL    HW1 6875   4.314   6.316   5.319  0.8484  0.0289  0.5856
 2160SOL    HW2 6876   4.210   6.207   5.338  0.3996  0.5234  1.0182
 2161SOL     OW 6877   0.734   5.794   4.258 -0.5539 -0.2104 -0.0715
 2161SOL    HW1 6878   0.664   5.811   4.195 -0.8645 -0.7781  0.1205
 2161SOL    HW2 6879   0.801   5.860   4.237 -1.2127  0.4395 -0.1413
 2162SOL     OW 6880   0.140   0.654   6.124 -0.3474  0.1506  0.6312
 2162SOL    HW1 6881   0.193   0.575   6.131 -2.5017 -1.3959  0.7904
 2162SOL    HW2 6882   0.151   0.683   6.033  1.7709  0.7088  1.0227
 2163SOL     OW 6883   3.357   3.448   0.859  0.4733  0.3525  0.1682
 2163SOL    HW1 6884   3.398   3.396   0.928 -1.8590 -2.8324 -0.6547
 2163SOL    HW2 6885   3.347   3.535   0.898 -1.1266 -1.3596  4.0804
 2164SOL     OW 6886   2.961   0.430   3.253  0.0949  0.4083  0.0100
 2164SOL    HW1 6887   3.035   0.423   3.313 -0.1796 -0.4101  0.2627
 2164SOL    HW2 6888   2.952   0.342   3.216  0.1154  0.8373 -1.0574
 2165SOL     OW 6889   0.762   3.032   5.283 -0.1109  0.2818 -0.2015
 2165SOL    HW1 6890   0.830   3.085   5.241  0.7130 -0.6029 -0.0059
 2165SOL    HW2 6891   0.796   2.943   5.280 -0.2923  0.1174  1.8170
 2166SOL     OW 6892   0.679   1.725   6.319 -0.2237 -0.3945  0.0719
 2166SOL    HW1 6893   0.740   1.746   6.389 -1.7161 -0.4824  1.4363
 2166SOL    HW2 6894   0.733   1.724   6.240  0.9639  2.7606  0.7225
 2167SOL     OW 6895   3.770   5.437   6.502  0.2290  0.2357 -0.2380
 2167SOL    HW1 6896   3.861   5.422   6.476  0.5836 -0.7511  1.4247
 2167SOL    HW2 6897   3.770   5.527   6.535  0.9527 -0.1786  0.9862
 2168SOL     OW 6898   4.262   5.467   3.745  0.4034 -0.0301 -0.2612
 2168SOL    HW1 6899   4.309   5.392   3.709 -0.0844 -0.5789  0.2208
 2168SOL    HW2 6900   4.327   5.537   3.749  1.0978 -0.6800  0.0842
 2169SOL     OW 6901   4.929   6.449   2.508  0.4047 -0.0341 -0.3055
 2169SOL    HW1 6902   4.910   6.373   2.563 -0.2704  0.1335 -0.3096
 2169SOL    HW2 6903   4.857   6.510   2.523  0.4771  0.2328 -0.9894
 2170SOL     OW 6904   4.117   6.198   1.911  0.2867 -0.2514 -0.0181
 2170SOL    HW1 6905   4.134   6.239   1.826 -0.5650 -0.5278 -0.3288
 2170SOL    HW2 6906   4.197   6.148   1.930  0.0615 -1.0784 -1.1791
 2171SOL     OW 6907   0.204   4.868   3.201  0.4090  0.1508 -0.0826
 2171SOL    HW1 6908   0.133   4.903   3.146 -0.8349 -1.0618  0.6756
 2171SOL    HW2 6909   0.199   4.919   3.281  0.0001 -0.2931  0.1850
 2172SOL     OW 6910   0.193   0.947   1.669  0.0918  0.2383 -0.3890
 2172SOL    HW1 6911   0.127   0.938   1.738 -1.5204  2.3554 -1.5384
 2172SOL    HW2 6912   0.274   0.963   1.716 -0.5353 -0.5193  1.0380
 2173SOL     OW 6913   3.553   5.762   5.101  0.7132 -0.9671 -0.1716
 2173SOL    HW1 6914   3.549   5.798   5.013 -0.5564  1.2705  0.7124
 2173SOL    HW2 6915   3.485   5.695   5.102  1.5753 -1.8923 -1.2090
 2174SOL     OW 6916   1.234   0.462   1.735 -0.1680 -0.1771  0.2381
 2174SOL    HW1 6917   1.296   0.525   1.698 -0.4141  0.2167  0.4911
 2174SOL    HW2 6918   1.285   0.383   1.747  0.1568 -0.0141 -0.0424
 2175SOL     OW 6919   5.027   3.616   2.794  0.3332 -0.1274  0.2216
 2175SOL    HW1 6920   5.087   3.542   2.804 -0.7703 -1.0149  0.4465
 2175SOL    HW2 6921   5.056   3.660   2.714 -0.3063 -2.0774 -1.1582
 2176SOL     OW 6922   4.492   1.698   5.323  0.0318 -0.4719 -0.0519
 2176SOL    HW1 6923   4.499   1.781   5.277  2.2918 -0.5605  0.0177
 2176SOL    HW2 6924   4.422   1.711   5.387 -0.0497  1.1656 -0.4399
 2177SOL     OW 6925   1.588   0.983   2.649 -0.1187  0.3277 -0.0450
 2177SOL    HW1 6926   1.665   0.960   2.701 -0.2943  0.2045  0.1671
 2177SOL    HW2 6927   1.532   0.905   2.654  0.1786  0.0431 -1.0269
 2178SOL     OW 6928   1.609   5.353   3.377 -0.1239  0.4296  0.4504
 2178SOL    HW1 6929   1.703   5.369   3.367 -0.2251  0.6788 -0.1638
 2178SOL    HW2 6930   1.583   5.408   3.451  0.4417 -0.5999  1.4571
 2179SOL     OW 6931   4.651   2.980   5.709 -0.2288  0.3086  0.6210
 2179SOL    HW1 6932   4.574   2.946   5.662 -0.3405  1.1278  0.2011
 2179SOL    HW2 6933   4.663   3.068   5.675  1.6382 -0.2218 -0.1998
 2180SOL     OW 6934   2.901   5.926   3.649 -0.3229 -0.2175 -0.6449
 2180SOL    HW1 6935   2.837   5.890   3.588  0.9972 -0.6537 -1.8049
 2180SOL    HW2 6936   2.970   5.961   3.594  1.9945 -2.6131  0.5348
 2181SOL     OW 6937   6.030   3.908   0.335 -0.4510 -0.2155  0.2248
 2181SOL    HW1 6938   6.075   3.992   0.343 -0.9306  0.0701 -0.0343
 2181SOL    HW2 6939   5.983   3.914   0.252  1.7212 -1.8012 -1.2487
 2182SOL     OW 6940   2.051   0.362   0.647  0.0896  0.3267 -0.5713
 2182SOL    HW1 6941   1.966   0.358   0.691  1.0065 -2.6122  1.2790
 2182SOL    HW2 6942   2.054   0.449   0.608 -2.7026  1.4808  1.4319
 2183SOL     OW 6943   1.959   1.323   5.809 -0.2229  0.5608 -0.2650
 2183SOL    HW1 6944   1.881   1.364   5.771  0.1884  0.7502 -0.9205
 2183SOL    HW2 6945   2.028   1.340   5.745  0.2102 -0.1677  0.0070
 2184SOL     OW 6946   2.940   0.298   1.539  0.2602 -0.3835  0.2258
 2184SOL    HW1 6947   2.874   0.330   1.600  2.5967  0.4483  2.5433
 2184SOL    HW2 6948   3.023   0.334   1.572  1.8750 -1.0257 -2.7096
 2185SOL     OW 6949   0.854   5.010   6.288  0.0052 -0.5027  0.2743
 2185SOL    HW1 6950   0.819   5.049   6.368 -0.8099 -1.8997  0.6224
 2185SOL    HW2 6951   0.946   4.991   6.308  0.8557  2.3857 -0.3566
 2186SOL     OW 6952   0.188   3.778   5.643  0.0352  0.2269  0.2432
 2186SOL    HW1 6953   0.143   3.750   5.723  0.9000 -0.8068  0.3897
 2186SOL    HW2 6954   0.123   3.769   5.574 -0.1629 -0.7071  0.5420
 2187SOL     OW 6955   3.472   2.005   4.061  0.7492  0.0827  0.2190
 2187SOL    HW1 6956   3.529   2.069   4.020 -0.0665  0.7320  0.0689
 2187SOL    HW2 6957   3.504   1.920   4.030  0.7877  0.5111 -0.9332
 2188SOL     OW 6958   1.232   3.898   5.086 -0.3837 -0.8460 -0.0766
 2188SOL    HW1 6959   1.226   3.917   5.180  1.8523 -1.2903  0.2335
 2188SOL    HW2 6960   1.308   3.949   5.057 -0.0595 -1.9672 -1.2753
 2189SOL     OW 6961   2.001   6.927   3.387  0.2462  0.6338  1.0217
 2189SOL    HW1 6962   2.018   7.003   3.443  0.1271  0.3044  1.5084
 2189SOL    HW2 6963   2.047   6.947   3.305 -0.5550  1.6480  0.7946
 2190SOL     OW 6964   6.179   0.811   3.059 -0.2375  0.2028  0.2253
 2190SOL    HW1 6965   6.266   0.808   3.098  0.7881 -2.1925 -2.0198
 2190SOL    HW2 6966   6.120   0.786   3.131  0.7264  2.5415  1.9641
 2191SOL     OW 6967   4.153   4.371   4.986 -0.0536 -0.2679 -0.0850
 2191SOL    HW1 6968   4.138   4.321   5.066  2.2045  0.0587  0.6115
 2191SOL    HW2 6969   4.229   4.329   4.946  0.1093  0.8343 -0.9758
 2192SOL     OW 6970   5.481   5.202   5.799 -0.0596 -0.4094 -0.1059
 2192SOL    HW1 6971   5.511   5.112   5.803 -0.9782 -0.7264 -0.1809
 2192SOL    HW2 6972   5.531   5.241   5.726  0.5551 -0.7612  0.1214
 2193SOL     OW 6973   6.539   1.799   4.418 -0.2110  0.4999 -0.1884
 2193SOL    HW1 6974   6.530   1.782   4.325 -0.4521  2.0385 -0.4741
 2193SOL    HW2 6975   6.468   1.859   4.439 -0.1998  0.1296  1.0058
 2194SOL     OW 6976   5.004   1.571   6.618  0.5936 -0.0880 -0.6312
 2194SOL    HW1 6977   4.975   1.489   6.658  1.7404 -0.6029 -0.7936
 2194SOL    HW2 6978   4.998   1.555   6.524  1.3518 -0.2051 -0.6685
 2195SOL     OW 6979   5.022   5.238   1.925  0.6416 -0.1297 -0.0970
 2195SOL    HW1 6980   5.084   5.271   1.990 -1.4549 -0.1310  2.0332
 2195SOL    HW2 6981   4.963   5.311   1.909  0.3918 -0.5295 -1.1062
 2196SOL     OW 6982   2.866   3.238   5.357 -0.3053 -0.3377 -0.3428
 2196SOL    HW1 6983   2.805   3.261   5.426 -1.7777 -1.1119 -1.3436
 2196SOL    HW2 6984   2.948   3.220   5.403 -0.7363  0.9388  0.9990
 2197SOL     OW 6985   5.070   5.695   4.588 -0.4334 -0.1894 -0.7229
 2197SOL    HW1 6986   4.990   5.665   4.631  0.8465  0.6962  2.6711
 2197SOL    HW2 6987   5.137   5.633   4.615  0.5229  0.6068 -1.1825
 2198SOL     OW 6988   5.132   1.101   1.796 -0.0041 -0.1154 -0.5765
 2198SOL    HW1 6989   5.201   1.151   1.839  0.8037 -1.2825 -0.4710
 2198SOL    HW2 6990   5.157   1.099   1.704 -1.1701  1.4674 -0.9639
 2199SOL     OW 6991   2.877   0.708   4.043  0.2549  0.1085  0.2081
 2199SOL    HW1 6992   2.872   0.771   3.971 -1.1180  0.2064  0.3628
 2199SOL    HW2 6993   2.905   0.627   4.002  1.1865  0.5879 -0.1354
 2200SOL     OW 6994   5.582   3.956   3.035 -0.3512 -0.0367  0.2773
 2200SOL    HW1 6995   5.534   3.885   2.992 -0.1598 -0.5490  0.9013
 2200SOL    HW2 6996   5.520   4.029   3.036 -1.9416 -1.2716  2.9031
 2201SOL     OW 6997   4.093   5.816   1.539  0.3562  0.3598 -0.1189
 2201SOL    HW1 6998   4.100   5.730   1.582 -0.5057  0.6114  0.5509
 2201SOL    HW2 6999   4.156   5.871   1.586 -0.4705  0.5918  0.7414
 2202SOL     OW 7000   4.239   0.983   3.438  0.2709 -0.8853 -0.3959
 2202SOL    HW1 7001   4.325   0.942   3.443  1.1488  0.7853 -1.0713
 2202SOL    HW2 7002   4.241   1.033   3.356 -1.1939 -0.4874 -0.2158
 2203SOL     OW 7003   2.947   2.317   3.415  0.9786 -0.2888  0.3183
 2203SOL    HW1 7004   3.028   2.298   3.367  2.1397  1.0562  1.6543
 2203SOL    HW2 7005   2.947   2.412   3.425 -1.3298 -0.1411 -0.5452
 2204SOL     OW 7006   0.413   1.728   1.443 -0.3575  0.0083  0.6998
 2204SOL    HW1 7007   0.410   1.818   1.477 -2.2609 -0.0031  0.6853
 2204SOL    HW2 7008   0.404   1.739   1.348 -2.4140 -0.2344  0.8345
 2205SOL     OW 7009   0.237   3.453   3.859  0.4245  0.2791 -0.1235
 2205SOL    HW1 7010   0.239   3.536   3.906  0.8302 -0.0371  0.4384
 2205SOL    HW2 7011   0.156   3.456   3.808  1.2095  1.6737 -1.3488
 2206SOL     OW 7012   0.084   5.156   6.620 -0.4436  0.2904 -0.2044
 2206SOL    HW1 7013   0.080   5.120   6.532  0.4864  1.0237 -0.5637
 2206SOL    HW2 7014   0.020   5.227   6.620 -0.9848 -0.1938 -0.0502
 2207SOL     OW 7015   5.779   5.280   2.570 -0.0355  0.0292  0.0775
 2207SOL    HW1 7016   5.851   5.338   2.542  0.3562  0.8575  2.5299
 2207SOL    HW2 7017   5.727   5.334   2.630 -0.6860 -1.6328  1.0737
 2208SOL     OW 7018   1.473   0.900   0.474 -0.4202  0.0003  0.8041
 2208SOL    HW1 7019   1.439   0.966   0.534  1.6682  3.2334 -1.2539
 2208SOL    HW2 7020   1.516   0.950   0.405 -0.8692 -3.5007 -2.3590
 2209SOL     OW 7021   0.455   5.873   4.151 -0.2985 -0.2873  0.1450
 2209SOL    HW1 7022   0.387   5.935   4.124 -2.0401 -1.4778  1.5010
 2209SOL    HW2 7023   0.423   5.788   4.119  0.6626 -0.8375  0.6147
 2210SOL     OW 7024   0.666   1.787   2.490  0.5153 -0.0078  0.0274
 2210SOL    HW1 7025   0.648   1.712   2.548 -2.6002 -0.3912 -1.2148
 2210SOL    HW2 7026   0.612   1.858   2.525 -1.0442 -0.1043 -1.9898
 2211SOL     OW 7027   1.713   2.668   3.273 -0.4186  0.5239  0.1105
 2211SOL    HW1 7028   1.627   2.705   3.255  0.0481  1.9879  0.7500
 2211SOL    HW2 7029   1.774   2.741   3.262  0.5764 -0.1210  1.0992
 2212SOL     OW 7030   4.985   0.486   2.673  0.1620  0.4991 -0.0647
 2212SOL    HW1 7031   5.012   0.578   2.664 -0.1863  0.4871 -1.4128
 2212SOL    HW2 7032   4.905   0.479   2.622 -0.5535 -0.2692  1.1137
 2213SOL     OW 7033   1.732   0.441   0.416 -0.2415  0.2255  0.6230
 2213SOL    HW1 7034   1.680   0.384   0.472 -2.3660  0.8201 -0.6030
 2213SOL    HW2 7035   1.693   0.528   0.428  1.1877  0.9126  0.4633
 2214SOL     OW 7036   1.501   5.853   4.974  0.5792  0.2337  0.5394
 2214SOL    HW1 7037   1.498   5.872   5.068 -1.3587 -0.1634  0.5861
 2214SOL    HW2 7038   1.415   5.816   4.954  0.6881  1.0009 -1.5521
 2215SOL     OW 7039   3.347   3.737   2.112 -0.0336 -0.1381  0.2433
 2215SOL    HW1 7040   3.291   3.660   2.119  1.8876 -1.4837  2.0054
 2215SOL    HW2 7041   3.350   3.774   2.201  0.0562  1.2554 -0.3050
 2216SOL     OW 7042   2.845   3.977   5.032 -0.0757 -0.4997 -0.2995
 2216SOL    HW1 7043   2.840   3.887   4.999  0.1733 -0.2788 -0.9614
 2216SOL    HW2 7044   2.771   3.985   5.092 -0.5489 -0.9202 -0.8145
 2217SOL     OW 7045   1.778   5.148   2.553 -0.3346 -0.1447  0.0250
 2217SOL    HW1 7046   1.826   5.101   2.620 -1.1587 -1.1640 -0.0680
 2217SOL    HW2 7047   1.693   5.167   2.593  0.2052  1.9551  0.3216
 2218SOL     OW 7048   1.376   6.387   1.182 -0.3712  0.2499  0.0153
 2218SOL    HW1 7049   1.294   6.409   1.227 -1.5761 -1.4715 -1.1854
 2218SOL    HW2 7050   1.364   6.422   1.093  0.3663  0.2959 -0.0701
 2219SOL     OW 7051   5.264   0.612   4.624 -0.0844 -0.2915 -0.8838
 2219SOL    HW1 7052   5.242   0.561   4.702 -2.7791  1.5917 -0.2544
 2219SOL    HW2 7053   5.179   0.633   4.585  1.0614  1.3425 -2.6529
 2220SOL     OW 7054   0.110   3.585   1.723  0.6544 -0.3347 -0.5492
 2220SOL    HW1 7055   0.175   3.524   1.758 -1.0049 -2.0821 -0.3772
 2220SOL    HW2 7056   0.110   3.568   1.628 -0.8486 -1.7190 -0.3332
 2221SOL     OW 7057   5.848   4.573   4.165 -0.5425 -0.0085 -0.3404
 2221SOL    HW1 7058   5.779   4.523   4.121 -2.2480  1.2681  0.7867
 2221SOL    HW2 7059   5.822   4.574   4.257  0.2369  1.6750 -0.1139
 2222SOL     OW 7060   5.419   3.920   6.336 -0.1747  0.0181  0.4944
 2222SOL    HW1 7061   5.472   3.960   6.406 -0.0933 -0.4122  0.6832
 2222SOL    HW2 7062   5.456   3.832   6.326  0.0547  0.2063 -0.3546
 2223SOL     OW 7063   0.826   4.823   4.836 -0.1429  0.4466 -0.2361
 2223SOL    HW1 7064   0.795   4.735   4.859  0.1977  0.5774  0.7462
 2223SOL    HW2 7065   0.832   4.821   4.740  0.4904 -0.8132 -0.1976
 2224SOL     OW 7066   5.072   1.113   0.599 -0.7998 -0.9023  0.0972
 2224SOL    HW1 7067   5.138   1.046   0.582  1.8593  1.8308 -1.2696
 2224SOL    HW2 7068   5.102   1.155   0.680 -0.2119  0.9261 -0.9951
 2225SOL     OW 7069   2.158   0.106   3.148 -0.1254  0.3913  0.6396
 2225SOL    HW1 7070   2.183   0.022   3.110 -0.6405  0.0193  1.0986
 2225SOL    HW2 7071   2.222   0.121   3.218  0.8579  1.1039 -0.3665
 2226SOL     OW 7072   2.254   0.737   2.247 -0.2815  0.8904  0.5173
 2226SOL    HW1 7073   2.302   0.804   2.198 -0.4631 -0.7132 -2.0457
 2226SOL    HW2 7074   2.176   0.720   2.194 -0.5625 -0.8554  1.4358
 2227SOL     OW 7075   1.442   2.647   5.919 -0.2144 -0.2109  0.1372
 2227SOL    HW1 7076   1.530   2.616   5.899  0.0946  0.1433  0.9083
 2227SOL    HW2 7077   1.424   2.613   6.007 -0.6683  0.0821  0.1586
 2228SOL     OW 7078   3.459   4.670   1.099  0.0414  0.1435 -0.1524
 2228SOL    HW1 7079   3.455   4.726   1.176  0.3477  0.9763 -0.7334
 2228SOL    HW2 7080   3.540   4.619   1.111  0.2424  0.4821 -0.0677
 2229SOL     OW 7081   3.632   3.749   1.803  0.0051  0.1333 -0.3653
 2229SOL    HW1 7082   3.562   3.688   1.782 -0.5330 -0.4631  2.7237
 2229SOL    HW2 7083   3.626   3.816   1.734 -2.5982 -0.6910 -1.0723
 2230SOL     OW 7084   0.703   2.704   6.055 -0.1253  0.1567 -0.1677
 2230SOL    HW1 7085   0.741   2.762   6.121 -1.6639  0.3823  0.5610
 2230SOL    HW2 7086   0.626   2.666   6.098 -1.1836  0.3341 -1.8282
 2231SOL     OW 7087   1.771   1.908   5.020 -0.3827  0.0807 -0.5015
 2231SOL    HW1 7088   1.784   1.834   5.079 -0.3961  0.2726 -0.2528
 2231SOL    HW2 7089   1.676   1.912   5.007 -0.5894  1.2061  1.0170
 2232SOL     OW 7090   6.153   2.455   1.630  0.1766 -0.0118  0.2880
 2232SOL    HW1 7091   6.239   2.493   1.650 -0.0326  1.2063 -0.9585
 2232SOL    HW2 7092   6.090   2.522   1.658 -0.2394  0.2270 -1.1256
 2233SOL     OW 7093   0.740   1.338   3.759  0.1239 -0.0569  0.2120
 2233SOL    HW1 7094   0.646   1.357   3.748  0.0435 -0.4155  0.2894
 2233SOL    HW2 7095   0.780   1.374   3.680 -0.4229 -2.3098 -1.1951
 2234SOL     OW 7096   4.734   2.154   0.107 -0.7527  0.2547  0.2874
 2234SOL    HW1 7097   4.741   2.190   0.196 -0.6981  0.1632  0.3200
 2234SOL    HW2 7098   4.825   2.141   0.079 -0.7670  0.4176  0.1635
 2235SOL     OW 7099   2.050   3.399   6.768 -0.0991 -0.7515  0.1226
 2235SOL    HW1 7100   2.067   3.380   6.860 -1.9825 -1.8420  0.2923
 2235SOL    HW2 7101   1.955   3.411   6.762  0.1732  1.1725 -1.3773
 2236SOL     OW 7102   0.670   1.436   1.871 -0.2871 -0.1362 -0.0410
 2236SOL    HW1 7103   0.632   1.504   1.815  0.1147  0.3282  0.2405
 2236SOL    HW2 7104   0.650   1.464   1.960 -0.8812 -0.8503  0.0546
 2237SOL     OW 7105   1.696   6.896   5.042 -0.6751 -0.1041 -0.1637
 2237SOL    HW1 7106   1.715   6.822   5.100  0.2124  0.8075  0.7759
 2237SOL    HW2 7107   1.782   6.932   5.021 -1.1134  1.0431 -0.0661
 2238SOL     OW 7108   2.587   6.608   2.385  0.2724  0.2104 -0.5603
 2238SOL    HW1 7109   2.496   6.630   2.364  0.7605  2.1102 -0.8514
 2238SOL    HW2 7110   2.581   6.544   2.456 -1.2827  0.5234 -0.3854
 2239SOL     OW 7111   0.722   6.841   0.816  0.7687 -0.4502 -0.1501
 2239SOL    HW1 7112   0.701   6.812   0.905  1.4983  1.0416  0.5304
 2239SOL    HW2 7113   0.706   6.935   0.817  0.7863 -0.4080 -1.6193
 2240SOL     OW 7114   3.137   1.694   2.683 -0.3609 -0.2150 -0.1294
 2240SOL    HW1 7115   3.047   1.691   2.650 -0.5946 -0.6439  0.5224
 2240SOL    HW2 7116   3.182   1.625   2.635 -0.3652  0.0156 -0.4744
 2241SOL     OW 7117   0.297   0.091   3.788  0.0080 -0.2894  0.6560
 2241SOL    HW1 7118   0.280   0.022   3.852  0.7757  0.2147  1.4248
 2241SOL    HW2 7119   0.222   0.088   3.729 -0.4411 -1.1368  1.2473
 2242SOL     OW 7120   2.951   5.264   4.419 -0.0936 -0.0633 -0.4095
 2242SOL    HW1 7121   2.946   5.220   4.504 -0.9077 -0.5797 -0.7183
 2242SOL    HW2 7122   2.895   5.341   4.428  1.5876  1.1480  0.2391
 2243SOL     OW 7123   0.431   1.783   6.925  0.2112  0.2918 -0.0934
 2243SOL    HW1 7124   0.520   1.800   6.957 -0.2253  0.0015  1.3625
 2243SOL    HW2 7125   0.378   1.776   7.005 -0.9428 -0.5229 -0.8974
 2244SOL     OW 7126   6.737   5.643   2.086 -0.6706 -0.5868  0.1818
 2244SOL    HW1 7127   6.671   5.574   2.088 -1.0017 -0.2580  0.7585
 2244SOL    HW2 7128   6.783   5.629   2.003 -1.1401 -1.1158  0.0004
 2245SOL     OW 7129   3.696   5.164   4.531  0.1130  0.3573 -0.1713
 2245SOL    HW1 7130   3.775   5.125   4.493 -0.0674  0.3036 -0.4960
 2245SOL    HW2 7131   3.697   5.255   4.501 -0.0109  0.3238 -0.2803
 2246SOL     OW 7132   0.885   4.065   6.592 -0.3236  0.1804  0.3340
 2246SOL    HW1 7133   0.800   4.097   6.622  0.1761 -1.1567  3.5183
 2246SOL    HW2 7134   0.949   4.121   6.636  0.5206  0.6740 -1.4136
 2247SOL     OW 7135   3.869   6.659   4.348  0.0047  0.2589 -0.3845
 2247SOL    HW1 7136   3.782   6.643   4.310  0.4826 -1.6496 -0.7497
 2247SOL    HW2 7137   3.907   6.727   4.291 -1.4276  1.5732  0.1368
 2248SOL     OW 7138   6.779   5.940   3.008  0.1139 -0.2046  0.1399
 2248SOL    HW1 7139   6.702   5.960   3.061  0.4287  0.8065  0.2380
 2248SOL    HW2 7140   6.780   6.009   2.941  2.3141  1.3558  1.6446
 2249SOL     OW 7141   3.247   6.028   4.433 -0.9774 -0.1735 -0.3220
 2249SOL    HW1 7142   3.197   6.096   4.387 -0.0595  1.1277  0.5228
 2249SOL    HW2 7143   3.338   6.056   4.425 -0.6750 -0.7344  0.9355
 2250SOL     OW 7144   4.328   6.741   0.474 -0.1606 -0.0834 -0.1997
 2250SOL    HW1 7145   4.377   6.814   0.435 -0.8457 -0.5683 -2.1011
 2250SOL    HW2 7146   4.394   6.676   0.494  0.1328 -0.3801 -1.9338
 2251SOL     OW 7147   1.626   1.687   1.344  0.4057  0.0762  0.3391
 2251SOL    HW1 7148   1.538   1.708   1.374  0.1906  1.6194 -1.1895
 2251SOL    HW2 7149   1.677   1.673   1.424  0.2611  5.3377  1.6865
 2252SOL     OW 7150   0.692   0.696   2.044  0.3651 -0.6939  0.4301
 2252SOL    HW1 7151   0.651   0.677   1.960  2.2330  1.0695 -0.9590
 2252SOL    HW2 7152   0.784   0.677   2.032  1.4424  3.3420  0.6243
 2253SOL     OW 7153   0.013   3.315   2.139 -0.0671 -0.8383  0.4065
 2253SOL    HW1 7154   0.020   3.394   2.192  3.7439  0.7403 -2.0760
 2253SOL    HW2 7155   0.054   3.247   2.193  0.6106 -0.0694  0.8914
 2254SOL     OW 7156   5.755   0.943   2.796 -0.4556 -0.1135 -0.4823
 2254SOL    HW1 7157   5.706   0.900   2.726 -0.6229  1.8937 -1.6832
 2254SOL    HW2 7158   5.704   1.023   2.815  1.5228  1.2687 -0.7104
 2255SOL     OW 7159   2.608   0.595   4.169  0.1411 -0.6090  0.4640
 2255SOL    HW1 7160   2.600   0.512   4.121  2.0138  0.5902 -2.1826
 2255SOL    HW2 7161   2.691   0.632   4.140 -0.9159  2.5224  0.9948
 2256SOL     OW 7162   4.591   6.254   0.283 -0.3175  0.0969 -0.2454
 2256SOL    HW1 7163   4.550   6.286   0.203 -0.8346  0.6318  0.2187
 2256SOL    HW2 7164   4.537   6.289   0.353  0.6014  0.3347  0.3715
 2257SOL     OW 7165   4.811   6.144   0.946  0.1885 -0.1321 -0.3148
 2257SOL    HW1 7166   4.820   6.121   1.039  1.0120 -0.6220 -0.5067
 2257SOL    HW2 7167   4.796   6.060   0.902 -2.8272  0.3243 -0.3622
 2258SOL     OW 7168   2.394   1.359   6.624 -0.2347 -0.4449 -0.3759
 2258SOL    HW1 7169   2.474   1.393   6.583 -0.7815 -0.7613 -1.7764
 2258SOL    HW2 7170   2.325   1.382   6.562 -0.8482 -2.6203 -0.5543
 2259SOL     OW 7171   4.894   6.208   6.102 -0.2119  0.0634 -0.7138
 2259SOL    HW1 7172   4.951   6.131   6.101  1.0721  0.9419  0.3258
 2259SOL    HW2 7173   4.806   6.174   6.092  0.0764 -1.8082  2.0998
 2260SOL     OW 7174   3.412   1.740   4.568  0.4442  0.3055 -0.7103
 2260SOL    HW1 7175   3.473   1.677   4.528 -0.7060 -1.1524 -0.2427
 2260SOL    HW2 7176   3.326   1.715   4.534 -0.3272  0.1474  1.2647
 2261SOL     OW 7177   3.589   4.539   4.652 -0.0517 -0.1519  0.1010
 2261SOL    HW1 7178   3.636   4.619   4.629  0.8976 -0.6072  0.3998
 2261SOL    HW2 7179   3.576   4.494   4.568 -1.2791  0.6565 -0.1701
 2262SOL     OW 7180   2.102   5.235   3.222  0.6285 -0.1002  0.2535
 2262SOL    HW1 7181   2.118   5.248   3.315  0.2604 -1.2158  0.4894
 2262SOL    HW2 7182   2.163   5.165   3.197  0.7503  0.2188 -0.3443
 2263SOL     OW 7183   6.734   5.966   6.425  0.2231 -0.3606 -0.4851
 2263SOL    HW1 7184   6.681   6.043   6.405  0.2899 -0.2848 -0.3741
 2263SOL    HW2 7185   6.802   5.999   6.484  0.3884 -0.4592 -0.6199
 2264SOL     OW 7186   6.226   0.312   6.335 -0.1013 -0.6334  1.0308
 2264SOL    HW1 7187   6.310   0.304   6.291  0.9930 -0.5968  3.0486
 2264SOL    HW2 7188   6.198   0.222   6.352 -1.1892 -0.7096 -0.8226
 2265SOL     OW 7189   4.701   6.402   5.597 -0.3765 -0.0329  0.3945
 2265SOL    HW1 7190   4.704   6.434   5.507 -0.0123 -0.1015  0.3813
 2265SOL    HW2 7191   4.707   6.481   5.651 -1.9807  0.1468  0.3747
 2266SOL     OW 7192   5.197   2.078   0.974  0.2182  0.1284 -0.3964
 2266SOL    HW1 7193   5.117   2.131   0.975 -0.4550 -0.7864  1.7245
 2266SOL    HW2 7194   5.230   2.083   1.064  0.9679 -1.7963 -0.5087
 2267SOL     OW 7195   2.153   6.014   2.692  0.1431  0.3579  0.5413
 2267SOL    HW1 7196   2.078   6.041   2.638 -0.6307  0.1315  1.4772
 2267SOL    HW2 7197   2.226   6.011   2.630 -0.2181  2.3142 -0.0826
 2268SOL     OW 7198   2.921   4.419   1.880  0.1025  0.8253 -0.1008
 2268SOL    HW1 7199   2.974   4.497   1.896 -0.1437  0.8909  0.4254
 2268SOL    HW2 7200   2.984   4.347   1.878  0.5103  1.1726 -1.9737
 2269SOL     OW 7201   3.444   4.198   1.867 -0.1220  0.2479 -0.0602
 2269SOL    HW1 7202   3.533   4.221   1.841  0.2866 -1.3605 -0.1724
 2269SOL    HW2 7203   3.450   4.184   1.961 -0.8778  2.7542  0.4407
 2270SOL     OW 7204   5.406   2.485   5.962  0.0668 -0.6753  0.6695
 2270SOL    HW1 7205   5.462   2.555   5.995 -0.2436 -0.6711  1.1838
 2270SOL    HW2 7206   5.467   2.415   5.940  0.1357 -1.4675  3.1679
 2271SOL     OW 7207   6.430   1.634   6.620 -0.3200 -0.3975  0.4578
 2271SOL    HW1 7208   6.483   1.592   6.552 -0.9203  0.2336 -0.4275
 2271SOL    HW2 7209   6.356   1.574   6.633 -1.6893  0.7301 -1.4941
 2272SOL     OW 7210   3.696   4.473   5.228 -0.1715 -0.4577 -0.2069
 2272SOL    HW1 7211   3.716   4.390   5.184  2.8044  0.6940 -1.2884
 2272SOL    HW2 7212   3.671   4.533   5.158  0.0166  0.1665  0.2524
 2273SOL     OW 7213   5.579   0.033   2.819  0.1929  0.0720 -0.2274
 2273SOL    HW1 7214   5.518  -0.041   2.811  1.7049 -1.5039  1.5266
 2273SOL    HW2 7215   5.559   0.071   2.905  0.4876  0.6952 -0.4293
 2274SOL     OW 7216   0.512   1.739   0.530 -0.3432 -0.0151  0.1281
 2274SOL    HW1 7217   0.436   1.684   0.510 -0.1830  0.1804 -1.0798
 2274SOL    HW2 7218   0.584   1.676   0.540 -0.2662 -0.0713 -0.7243
 2275SOL     OW 7219   2.387   2.952   5.579 -0.6108 -0.3367 -0.4205
 2275SOL    HW1 7220   2.345   3.022   5.629  0.7200  0.0354  0.2157
 2275SOL    HW2 7221   2.417   2.995   5.499 -0.0149 -0.2191 -0.1410
 2276SOL     OW 7222   1.587   4.790   2.142 -0.2207  0.3677 -0.6920
 2276SOL    HW1 7223   1.567   4.796   2.235  0.5915  0.4385 -0.5226
 2276SOL    HW2 7224   1.551   4.871   2.105 -1.5069 -0.1493 -0.6291
 2277SOL     OW 7225   3.294   6.037   0.386  0.0545  0.5209 -0.0148
 2277SOL    HW1 7226   3.223   6.099   0.405 -0.0691  0.1070  0.9721
 2277SOL    HW2 7227   3.252   5.965   0.340 -0.1975  0.2304  0.6568
 2278SOL     OW 7228   0.226   6.199   3.691 -0.1318 -0.0966  0.1448
 2278SOL    HW1 7229   0.156   6.209   3.627 -0.2433 -1.1723  0.0840
 2278SOL    HW2 7230   0.221   6.107   3.718 -0.1527  0.3486  1.7683
 2279SOL     OW 7231   4.330   0.234   0.261  0.0288 -0.0182  0.1544
 2279SOL    HW1 7232   4.250   0.191   0.231 -1.7288  1.9073  1.7295
 2279SOL    HW2 7233   4.330   0.318   0.215  0.1940  0.7020  1.4364
 2280SOL     OW 7234   5.788   0.971   3.670 -0.2050 -0.1753  0.4373
 2280SOL    HW1 7235   5.761   1.062   3.682 -1.5211 -0.7294  2.1423
 2280SOL    HW2 7236   5.829   0.947   3.753  2.5715 -0.4265 -0.9020
 2281SOL     OW 7237   5.927   1.119   1.078  0.2014  0.3154 -0.1219
 2281SOL    HW1 7238   5.854   1.116   1.016 -0.2121  0.6123  0.3407
 2281SOL    HW2 7239   5.958   1.029   1.082  1.9541  0.6886 -2.7338
 2282SOL     OW 7240   3.965   5.366   2.040  0.0461  0.4973 -0.2924
 2282SOL    HW1 7241   3.961   5.317   2.123 -1.4925 -1.1181 -1.2544
 2282SOL    HW2 7242   3.992   5.301   1.976  1.3705  1.7722 -1.0828
 2283SOL     OW 7243   5.416   2.284   6.911  0.1337 -0.2131  1.0596
 2283SOL    HW1 7244   5.407   2.319   6.823 -1.3494 -0.3942  1.1215
 2283SOL    HW2 7245   5.353   2.333   6.963  0.3225 -0.7646  1.8320
 2284SOL     OW 7246   3.772   0.010   2.292  0.4086 -0.6865 -0.8302
 2284SOL    HW1 7247   3.758  -0.004   2.386  1.7392 -2.0696 -0.7948
 2284SOL    HW2 7248   3.687   0.040   2.259  0.6226  2.7085  1.2522
 2285SOL     OW 7249   3.505   0.663   3.641 -0.2910 -0.3106 -0.4544
 2285SOL    HW1 7250   3.467   0.578   3.663  0.7689 -1.1995 -1.8733
 2285SOL    HW2 7251   3.593   0.661   3.680 -0.0904 -0.0470 -0.8874
 2286SOL     OW 7252   6.678   4.781   6.571 -0.0420  0.5014  0.0884
 2286SOL    HW1 7253   6.762   4.768   6.527  0.0736 -0.5867  0.6087
 2286SOL    HW2 7254   6.700   4.819   6.656  0.0817 -1.2362  0.8748
 2287SOL     OW 7255   0.301   4.606   3.504  0.5711 -0.0720  0.1393
 2287SOL    HW1 7256   0.316   4.661   3.581 -1.5381 -0.2604  0.7255
 2287SOL    HW2 7257   0.301   4.668   3.430 -1.1146  0.6671  0.7211
 2288SOL     OW 7258   4.519   5.059   3.169  0.1295 -0.3025 -0.0594
 2288SOL    HW1 7259   4.524   4.964   3.157 -0.8413 -0.5267  1.0770
 2288SOL    HW2 7260   4.502   5.093   3.081 -2.3516 -1.4494 -0.1261
 2289SOL     OW 7261   1.340   4.971   1.478 -0.0371  0.1012  0.0190
 2289SOL    HW1 7262   1.385   4.981   1.394 -0.1055  2.1666  0.1711
 2289SOL    HW2 7263   1.256   5.015   1.467  0.3354  1.2645  1.4139
 2290SOL     OW 7264   1.167   1.304   1.160 -0.0090 -0.5479  0.1813
 2290SOL    HW1 7265   1.077   1.335   1.146  0.5368  0.9516 -0.2553
 2290SOL    HW2 7266   1.202   1.362   1.227  0.4644 -1.4892  0.7641
 2291SOL     OW 7267   1.129   0.756   3.060 -0.1843 -0.2819 -0.0436
 2291SOL    HW1 7268   1.057   0.747   3.122  1.3162 -1.4969  1.6200
 2291SOL    HW2 7269   1.115   0.842   3.020 -1.8272  0.0666  1.1440
 2292SOL     OW 7270   6.504   2.094   4.241 -0.1660  0.0301  0.4508
 2292SOL    HW1 7271   6.530   2.013   4.198 -1.3496  0.3487 -0.9646
 2292SOL    HW2 7272   6.482   2.069   4.330  1.3833 -0.8365  0.6284
 2293SOL     OW 7273   1.435   1.209   2.688 -0.3497  0.2456  0.0354
 2293SOL    HW1 7274   1.393   1.201   2.774 -0.4040  0.4327  0.0252
 2293SOL    HW2 7275   1.487   1.128   2.680  0.4984  0.7075  0.6975
 2294SOL     OW 7276   4.647   4.622   1.730  0.3381  0.3423 -0.6302
 2294SOL    HW1 7277   4.637   4.558   1.801  3.0030  0.1274 -0.3642
 2294SOL    HW2 7278   4.703   4.579   1.666 -1.1255  0.9581 -2.4216
 2295SOL     OW 7279   2.813   1.874   0.974  0.3345 -0.0140  0.3724
 2295SOL    HW1 7280   2.815   1.911   0.886 -0.0349 -0.9154 -0.0266
 2295SOL    HW2 7281   2.862   1.937   1.028 -1.1324  1.5637 -0.0578
 2296SOL     OW 7282   5.944   1.162   4.006  0.5161  0.6676  0.4139
 2296SOL    HW1 7283   5.935   1.195   4.095 -0.3438 -0.2241  0.6791
 2296SOL    HW2 7284   5.921   1.237   3.950 -0.0229  0.9193  0.9651
 2297SOL     OW 7285   4.868   5.619   1.167 -0.1941 -0.7054  0.1271
 2297SOL    HW1 7286   4.838   5.709   1.154 -2.1077 -1.2658  0.3844
 2297SOL    HW2 7287   4.939   5.627   1.230  1.8164  0.9164 -2.1441
 2298SOL     OW 7288   1.694   3.577   3.532  0.6577  0.4952  0.2250
 2298SOL    HW1 7289   1.759   3.508   3.538  0.8033  0.6565  0.5261
 2298SOL    HW2 7290   1.707   3.616   3.446 -1.0812 -1.4880 -1.0035
 2299SOL     OW 7291   5.901   3.665   5.509 -0.2596  0.0994 -0.3251
 2299SOL    HW1 7292   5.883   3.573   5.528 -0.7135  0.0492 -0.9468
 2299SOL    HW2 7293   5.992   3.667   5.479  0.4592  0.1772  1.7185
 2300SOL     OW 7294   2.616   1.534   0.747 -0.2191 -1.0932  0.0745
 2300SOL    HW1 7295   2.553   1.606   0.751  0.8159 -0.2097  0.7568
 2300SOL    HW2 7296   2.700   1.573   0.772  0.6942 -2.1705 -1.1910
 2301SOL     OW 7297   0.616   5.025   2.296 -1.2154 -0.3701  0.2213
 2301SOL    HW1 7298   0.585   5.113   2.275  3.4098  2.0909  2.0654
 2301SOL    HW2 7299   0.570   5.002   2.377 -1.3931  1.1670  0.5984
 2302SOL     OW 7300   5.692   0.177   1.066 -0.2678  0.4390 -0.5680
 2302SOL    HW1 7301   5.604   0.215   1.062  0.7229  2.9442 -0.1502
 2302SOL    HW2 7302   5.733   0.202   0.983 -0.1011 -1.2343 -1.0250
 2303SOL     OW 7303   2.762   2.366   5.268 -0.4730  0.1097  0.1725
 2303SOL    HW1 7304   2.771   2.384   5.175  2.5461  3.3508  0.8899
 2303SOL    HW2 7305   2.850   2.340   5.296 -1.4132 -1.3032  2.0991
 2304SOL     OW 7306   5.727   1.990   5.029  0.2624  0.0516 -0.0193
 2304SOL    HW1 7307   5.704   1.996   4.936  0.7234 -0.4628 -0.1761
 2304SOL    HW2 7308   5.808   2.040   5.037 -0.4599  1.1810  0.3695
 2305SOL     OW 7309   0.145   1.479   5.775 -0.0228 -0.1815 -0.1280
 2305SOL    HW1 7310   0.096   1.552   5.736 -0.7400  0.9675  2.7083
 2305SOL    HW2 7311   0.143   1.496   5.869  3.1258 -1.8448  0.3632
 2306SOL     OW 7312   6.218   1.844   1.978 -0.2200 -0.7105  0.3697
 2306SOL    HW1 7313   6.134   1.804   2.000 -1.6219  1.0998 -1.3106
 2306SOL    HW2 7314   6.226   1.918   2.037 -0.7541  0.2199 -0.6898
 2307SOL     OW 7315   3.686   4.243   2.632 -0.1578 -0.2791  0.2732
 2307SOL    HW1 7316   3.623   4.176   2.660 -0.9138  0.2317 -0.1895
 2307SOL    HW2 7317   3.648   4.281   2.554 -0.5013  1.7404  1.3575
 2308SOL     OW 7318   0.486   2.537   5.007 -0.0433  0.1374  0.2402
 2308SOL    HW1 7319   0.516   2.570   5.091  2.5290  0.4713 -0.7123
 2308SOL    HW2 7320   0.520   2.447   5.003 -2.1083 -0.7204  0.4460
 2309SOL     OW 7321   5.416   6.658   4.159  0.1641 -0.0771  0.1735
 2309SOL    HW1 7322   5.456   6.668   4.072  1.8612  1.6647  1.1089
 2309SOL    HW2 7323   5.460   6.723   4.214 -3.1154  1.1429  1.6017
 2310SOL     OW 7324   0.276   4.412   5.230  0.0250  0.1641  0.0058
 2310SOL    HW1 7325   0.258   4.477   5.162  1.5421  1.0867  0.4293
 2310SOL    HW2 7326   0.223   4.439   5.305 -1.4214 -0.6848 -0.6705
 2311SOL     OW 7327   3.771   6.169   2.079 -0.2765 -0.5652 -0.2476
 2311SOL    HW1 7328   3.794   6.080   2.052 -0.4515  0.0713 -2.8532
 2311SOL    HW2 7329   3.844   6.222   2.046 -1.1502  0.4542 -0.5799
 2312SOL     OW 7330   1.928   6.298   4.281  0.4145  0.4219 -0.3266
 2312SOL    HW1 7331   1.960   6.303   4.191  0.0977 -1.8082 -0.6209
 2312SOL    HW2 7332   1.943   6.385   4.316  1.1101  1.1837 -2.3457
 2313SOL     OW 7333   1.537   4.961   1.690  0.5374  0.0443  0.0153
 2313SOL    HW1 7334   1.608   5.012   1.650  0.0160  0.7793  0.0039
 2313SOL    HW2 7335   1.478   4.941   1.617 -0.8547  2.1113  0.4919
 2314SOL     OW 7336   2.166   2.512   0.631  0.3195  0.1271  0.1475
 2314SOL    HW1 7337   2.171   2.567   0.552 -0.1259  2.0045  1.3414
 2314SOL    HW2 7338   2.257   2.490   0.650  0.5148  0.4386 -0.3846
 2315SOL     OW 7339   3.493   6.476   0.289 -0.8210  0.0269 -0.0108
 2315SOL    HW1 7340   3.556   6.529   0.337 -0.5496 -0.7774  0.5456
 2315SOL    HW2 7341   3.484   6.397   0.341 -0.8722 -0.6714 -1.0475
 2316SOL     OW 7342   2.807   1.854   4.109 -0.4609 -0.7484  0.3756
 2316SOL    HW1 7343   2.773   1.890   4.027 -1.7654 -0.7875  0.8938
 2316SOL    HW2 7344   2.790   1.921   4.175 -0.3668 -1.1497  0.8130
 2317SOL     OW 7345   6.557   3.512   3.144  0.3165  0.3477 -0.6655
 2317SOL    HW1 7346   6.649   3.502   3.120  0.7233  0.0014  0.9382
 2317SOL    HW2 7347   6.549   3.468   3.228 -1.0323  1.5244 -0.1393
 2318SOL     OW 7348   1.245   4.339   6.498  0.0939 -0.1375  0.2930
 2318SOL    HW1 7349   1.273   4.403   6.432  0.6054  0.2984  0.9129
 2318SOL    HW2 7350   1.150   4.343   6.496  0.1187  0.7064  0.3761
 2319SOL     OW 7351   5.571   5.191   6.062 -0.4755  0.0184 -0.2463
 2319SOL    HW1 7352   5.553   5.208   5.970 -0.0743 -1.0862 -0.5430
 2319SOL    HW2 7353   5.641   5.252   6.084  0.4899 -0.7458 -1.1039
 2320SOL     OW 7354   5.312   0.008   5.832  0.4765 -0.0765 -0.0707
 2320SOL    HW1 7355   5.391   0.046   5.871 -0.2196  0.6925  0.6364
 2320SOL    HW2 7356   5.256  -0.012   5.907 -0.5208  0.6055 -0.6117
 2321SOL     OW 7357   1.418   5.180   4.872 -0.2321  0.2249  0.4210
 2321SOL    HW1 7358   1.395   5.270   4.896 -0.6938  0.6427 -1.4163
 2321SOL    HW2 7359   1.334   5.136   4.859 -0.0054 -0.2580  0.5500
 2322SOL     OW 7360   1.788   0.022   2.889 -0.2186 -0.0775 -0.0504
 2322SOL    HW1 7361   1.733  -0.053   2.914  0.1463 -0.6337 -0.8444
 2322SOL    HW2 7362   1.726   0.094   2.876 -0.8444 -0.8117 -1.3754
 2323SOL     OW 7363   3.032   1.045   3.333  0.3224 -0.1657 -0.1633
 2323SOL    HW1 7364   3.054   1.008   3.247 -0.3966 -1.4451  0.1862
 2323SOL    HW2 7365   3.102   1.109   3.349 -0.3299  1.2120 -2.3419
 2324SOL     OW 7366   0.474   6.720   1.521 -0.2332  0.2463  0.3242
 2324SOL    HW1 7367   0.419   6.738   1.597  0.1406 -1.3001  1.0002
 2324SOL    HW2 7368   0.443   6.781   1.454 -2.2126  0.0006  0.9513
 2325SOL     OW 7369   1.260   2.192   2.178  0.0194  0.2013  0.1703
 2325SOL    HW1 7370   1.262   2.285   2.155 -1.0304  0.1527 -0.1685
 2325SOL    HW2 7371   1.228   2.148   2.100  0.2075 -0.4196  0.4304
 2326SOL     OW 7372   3.344   3.858   4.017 -0.5491  0.5806  0.3899
 2326SOL    HW1 7373   3.421   3.905   4.051 -0.9105  0.0627  2.0251
 2326SOL    HW2 7374   3.380   3.800   3.950  0.5143  0.3504  1.1173
 2327SOL     OW 7375   0.289   6.204   6.060 -0.0073  0.0062 -0.0559
 2327SOL    HW1 7376   0.276   6.286   6.108  1.9610 -0.7545  1.9685
 2327SOL    HW2 7377   0.382   6.184   6.073  0.0013 -1.6015 -2.1163
 2328SOL     OW 7378   6.617   0.282   1.896 -0.0782 -0.2598  0.4787
 2328SOL    HW1 7379   6.636   0.321   1.810  2.5498  3.2662  2.3854
 2328SOL    HW2 7380   6.522   0.291   1.906 -0.1532  1.3942 -1.1760
 2329SOL     OW 7381   6.340   2.176   5.985 -0.1168 -0.3829 -0.3759
 2329SOL    HW1 7382   6.293   2.174   6.068  2.9067 -0.3458  1.5069
 2329SOL    HW2 7383   6.315   2.260   5.945 -2.1001 -0.6777  0.1472
 2330SOL     OW 7384   4.262   1.150   0.892 -0.3775 -0.4275  0.1515
 2330SOL    HW1 7385   4.253   1.207   0.968  0.2550  0.7046 -0.5923
 2330SOL    HW2 7386   4.255   1.208   0.816 -0.5506 -1.4617 -0.6590
 2331SOL     OW 7387   6.449   4.598   1.301  0.4590  0.3383 -0.3732
 2331SOL    HW1 7388   6.462   4.682   1.256  0.6854  1.2638  1.3592
 2331SOL    HW2 7389   6.418   4.539   1.232 -1.9637  2.4201 -1.2505
 2332SOL     OW 7390   6.707   4.484   3.564  0.0376 -0.4230  0.1012
 2332SOL    HW1 7391   6.715   4.552   3.498 -1.1708  0.0086  0.3630
 2332SOL    HW2 7392   6.780   4.499   3.624  1.1384 -0.8208 -1.1199
 2333SOL     OW 7393   0.035   2.940   3.395 -0.6495  0.1764  0.1533
 2333SOL    HW1 7394   0.118   2.984   3.377 -0.3742 -0.6449 -0.6878
 2333SOL    HW2 7395   0.030   2.871   3.330 -1.8063 -0.0563  0.4613
 2334SOL     OW 7396   6.142   2.104   6.461 -0.2970  0.0783 -0.1765
 2334SOL    HW1 7397   6.160   2.031   6.519 -1.2327 -1.2536 -1.4976
 2334SOL    HW2 7398   6.123   2.178   6.520 -2.5921 -1.5413  1.2649
 2335SOL     OW 7399   5.677   0.354   2.312  0.1967  0.5845  0.4058
 2335SOL    HW1 7400   5.655   0.377   2.222 -0.1286  1.9146  0.8012
 2335SOL    HW2 7401   5.629   0.416   2.365  2.6920  1.8175  1.3998
 2336SOL     OW 7402   1.309   5.500   0.561  0.0713  0.2314 -0.3448
 2336SOL    HW1 7403   1.351   5.417   0.536  1.3926  0.7022  0.1940
 2336SOL    HW2 7404   1.362   5.531   0.634 -0.7084  1.3176 -0.2356
 2337SOL     OW 7405   6.582   1.763   3.795  0.0351 -0.3425 -0.4700
 2337SOL    HW1 7406   6.633   1.735   3.718  2.0176  2.3309 -0.2618
 2337SOL    HW2 7407   6.537   1.842   3.766 -0.4217 -0.1543  0.7104
 2338SOL     OW 7408   5.019   3.116   4.301  0.0030  0.6998  0.3141
 2338SOL    HW1 7409   5.000   3.208   4.283  0.2359  0.9242  1.1797
 2338SOL    HW2 7410   5.042   3.114   4.394  0.1897 -0.2035  0.2550
 2339SOL     OW 7411   6.726   6.597   4.907  0.1158  0.3147  0.1536
 2339SOL    HW1 7412   6.804   6.646   4.883 -0.4368  0.6788 -0.9625
 2339SOL    HW2 7413   6.735   6.513   4.863 -0.2002  0.4190 -0.1122
 2340SOL     OW 7414   6.171   5.388   5.498 -0.1161 -0.1924  0.2369
 2340SOL    HW1 7415   6.202   5.316   5.442 -0.0780  0.8224 -1.1073
 2340SOL    HW2 7416   6.094   5.421   5.453 -0.9455 -0.2448  1.5663
 2341SOL     OW 7417   1.206   6.937   4.378 -0.0090 -0.1018 -0.0566
 2341SOL    HW1 7418   1.130   6.894   4.338  0.2495 -0.8379  0.2322
 2341SOL    HW2 7419   1.168   7.013   4.424 -0.8299 -1.3889  1.5073
 2342SOL     OW 7420   1.639   2.729   3.728 -0.8206 -0.1071  0.0007
 2342SOL    HW1 7421   1.716   2.702   3.779 -1.1046  0.7258  0.8969
 2342SOL    HW2 7422   1.572   2.747   3.793 -1.9366 -1.2163 -0.7906
 2343SOL     OW 7423   3.923   5.381   1.721 -0.3312  0.1201  0.0567
 2343SOL    HW1 7424   3.871   5.412   1.795  0.3999  0.7162  0.3447
 2343SOL    HW2 7425   3.870   5.401   1.644 -0.0734  1.7790  0.2588
 2344SOL     OW 7426   6.254   1.216   6.529 -0.4179 -0.2404 -0.0808
 2344SOL    HW1 7427   6.169   1.254   6.506 -0.1355 -0.9281 -2.5558
 2344SOL    HW2 7428   6.318   1.281   6.499 -0.0251 -0.2239  0.7614
 2345SOL     OW 7429   3.839   1.334   5.280  0.0202 -0.2317 -0.5199
 2345SOL    HW1 7430   3.907   1.313   5.343 -1.2494 -1.8535  0.3747
 2345SOL    HW2 7431   3.836   1.259   5.221 -0.9087 -0.1360 -0.6102
 2346SOL     OW 7432   5.885   1.412   1.278 -0.1757 -0.0402 -0.5973
 2346SOL    HW1 7433   5.801   1.377   1.249 -0.2349  0.5996 -1.2049
 2346SOL    HW2 7434   5.935   1.335   1.303 -0.6229 -0.4937 -1.0780
 2347SOL     OW 7435   1.284   5.497   4.069  0.5792  0.1240 -0.2369
 2347SOL    HW1 7436   1.289   5.491   3.974 -1.5659  0.0503 -0.3775
 2347SOL    HW2 7437   1.284   5.591   4.087  0.4293  0.1433 -0.3414
 2348SOL     OW 7438   1.046   5.311   0.905 -0.0100  1.0032  0.0508
 2348SOL    HW1 7439   0.992   5.378   0.945 -0.7538  0.2932  0.2614
 2348SOL    HW2 7440   1.077   5.258   0.978  1.0655  1.4488 -0.0540
 2349SOL     OW 7441   1.278   6.070   3.120  0.5532  0.6599 -0.4054
 2349SOL    HW1 7442   1.263   6.164   3.132 -0.1019  0.6035 -0.7608
 2349SOL    HW2 7443   1.260   6.032   3.207 -1.1595  0.6299 -0.7329
 2350SOL     OW 7444   0.561   1.491   2.926 -0.1357 -0.2598  0.4920
 2350SOL    HW1 7445   0.466   1.480   2.915 -0.3303  1.8400 -0.5328
 2350SOL    HW2 7446   0.570   1.538   3.009  0.0873 -1.1438  0.9786
 2351SOL     OW 7447   0.974   6.691   4.603  0.0195  0.6510  0.4453
 2351SOL    HW1 7448   1.023   6.723   4.678  0.7519  0.4707  0.0534
 2351SOL    HW2 7449   0.909   6.759   4.585 -0.1395  0.7062  1.2172
 2352SOL     OW 7450   5.616   0.310   4.509  0.4948  0.1154  0.2762
 2352SOL    HW1 7451   5.620   0.279   4.418  1.3695 -2.1136  1.0301
 2352SOL    HW2 7452   5.589   0.402   4.501  0.5360 -0.0208 -2.2258
 2353SOL     OW 7453   3.725   3.969   2.359 -0.1049  0.1970  0.0006
 2353SOL    HW1 7454   3.730   3.985   2.264 -0.4391 -0.2359 -0.0944
 2353SOL    HW2 7455   3.791   4.027   2.396 -1.1000  1.6093 -0.3318
 2354SOL     OW 7456   5.219   2.787   4.600 -0.0854 -0.3613 -0.0909
 2354SOL    HW1 7457   5.128   2.809   4.619  0.4961 -0.0171  2.7978
 2354SOL    HW2 7458   5.245   2.848   4.532 -1.8626 -0.1485 -0.6321
 2355SOL     OW 7459   5.081   6.415   4.920  0.3956 -0.1488  0.0515
 2355SOL    HW1 7460   5.076   6.448   5.009 -2.4754  0.9090 -0.3781
 2355SOL    HW2 7461   5.036   6.331   4.923  1.1766 -0.5826 -0.2263
 2356SOL     OW 7462   1.226   1.702   2.788  0.0875 -0.1476  0.2249
 2356SOL    HW1 7463   1.229   1.779   2.845  1.5122 -0.0633  0.0626
 2356SOL    HW2 7464   1.288   1.721   2.718 -1.4717 -0.3420 -1.2903
 2357SOL     OW 7465   2.520   1.504   2.798  0.1316  0.6171  0.9825
 2357SOL    HW1 7466   2.602   1.480   2.841 -0.5789 -1.9094  1.1294
 2357SOL    HW2 7467   2.546   1.554   2.720  1.6838  1.2235  1.8566
 2358SOL     OW 7468   5.646   0.484   0.113 -0.0526 -0.0606  0.1883
 2358SOL    HW1 7469   5.709   0.549   0.083 -0.3296 -0.4461 -1.3091
 2358SOL    HW2 7470   5.625   0.511   0.202  1.4882  0.6200  0.3800
 2359SOL     OW 7471   6.393   1.037   5.043 -0.0311 -0.0080 -0.6316
 2359SOL    HW1 7472   6.333   1.084   5.101  0.3386 -0.6236  0.2830
 2359SOL    HW2 7473   6.346   0.958   5.019  0.3777 -0.4633  0.0388
 2360SOL     OW 7474   6.612   2.865   1.950  0.8753  0.2302 -0.0572
 2360SOL    HW1 7475   6.704   2.873   1.973  0.9935  0.7831 -0.7021
 2360SOL    HW2 7476   6.579   2.955   1.950  0.5590  0.1200 -0.7459
 2361SOL     OW 7477   5.820   3.549   6.054  0.4177  0.0803 -0.2095
 2361SOL    HW1 7478   5.797   3.605   5.980  0.9719 -0.6753 -0.9782
 2361SOL    HW2 7479   5.808   3.460   6.021  1.7601 -0.2895  0.2335
 2362SOL     OW 7480   3.733   5.360   4.159 -0.1135 -0.1967 -0.3679
 2362SOL    HW1 7481   3.680   5.282   4.142 -2.7340  1.4579 -0.4259
 2362SOL    HW2 7482   3.821   5.336   4.133 -0.7631 -3.2157 -0.0936
 2363SOL     OW 7483   5.805   2.632   2.126 -0.6829 -0.3235  0.0895
 2363SOL    HW1 7484   5.750   2.678   2.189 -1.3409 -0.9532 -0.0096
 2363SOL    HW2 7485   5.789   2.539   2.143 -0.3182 -0.5098 -0.5320
 2364SOL     OW 7486   4.415   0.184   1.277 -0.0044  0.1528  0.6228
 2364SOL    HW1 7487   4.487   0.226   1.323 -0.8610  2.7858 -0.2668
 2364SOL    HW2 7488   4.456   0.134   1.206  1.0154  0.0948  1.2470
 2365SOL     OW 7489   2.885   1.101   4.193  0.1607 -0.1991  0.2288
 2365SOL    HW1 7490   2.954   1.158   4.228 -0.4319  0.6936 -0.0050
 2365SOL    HW2 7491   2.825   1.162   4.149 -0.9161 -0.9279  0.6621
 2366SOL     OW 7492   2.133   4.239   3.007  0.2629 -0.3345 -0.2302
 2366SOL    HW1 7493   2.072   4.188   3.060 -1.3954  0.7182 -1.0333
 2366SOL    HW2 7494   2.080   4.311   2.972  1.6560 -0.1185 -2.0536
 2367SOL     OW 7495   6.747   1.769   3.592 -0.0311  0.1032  0.1952
 2367SOL    HW1 7496   6.777   1.702   3.530 -1.2658 -0.5683  0.2824
 2367SOL    HW2 7497   6.736   1.847   3.538  0.6528  0.0241 -0.0699
 2368SOL     OW 7498   2.290   5.391   5.325  0.0910 -0.0510  0.0622
 2368SOL    HW1 7499   2.308   5.432   5.239 -0.1721 -0.5139 -0.2142
 2368SOL    HW2 7500   2.266   5.301   5.304 -1.5093  0.2498  0.5003
 2369SOL     OW 7501   0.879   0.244   2.027  0.3532 -0.0671  0.3528
 2369SOL    HW1 7502   0.886   0.285   2.114  1.7386 -1.4938  0.9728
 2369SOL    HW2 7503   0.795   0.274   1.993 -0.5238  0.0442  2.4565
 2370SOL     OW 7504   4.604   3.841   3.105  0.5903  0.2359  0.0751
 2370SOL    HW1 7505   4.594   3.822   3.198  1.1544 -0.1402  0.0641
 2370SOL    HW2 7506   4.627   3.757   3.066 -1.9960 -0.1696 -0.7921
 2371SOL     OW 7507   5.827   3.654   6.305  0.1000 -0.2615  0.0926
 2371SOL    HW1 7508   5.813   3.608   6.222  0.0813 -0.9147  0.4474
 2371SOL    HW2 7509   5.913   3.695   6.296  0.6013 -1.2716  0.1700
 2372SOL     OW 7510   5.984   3.737   1.813 -0.3553 -0.3478 -0.0119
 2372SOL    HW1 7511   5.892   3.755   1.795 -0.1962  1.1256  0.5071
 2372SOL    HW2 7512   6.015   3.691   1.736 -1.2357  0.2167 -0.7238
 2373SOL     OW 7513   3.320   6.089   2.411  0.4843  0.2871  0.8118
 2373SOL    HW1 7514   3.260   6.083   2.336  2.0016 -0.9544 -0.3683
 2373SOL    HW2 7515   3.358   6.177   2.405 -0.5918  0.7912  1.1127
 2374SOL     OW 7516   0.957   4.711   1.574  0.3137 -0.1867 -0.3511
 2374SOL    HW1 7517   0.954   4.626   1.617 -1.6642 -0.1236 -0.2965
 2374SOL    HW2 7518   0.932   4.694   1.483  0.2551  0.2915 -0.4294
 2375SOL     OW 7519   4.181   3.516   3.592 -0.0005 -0.7666 -0.6225
 2375SOL    HW1 7520   4.146   3.589   3.540 -1.1630  0.6390  1.9398
 2375SOL    HW2 7521   4.111   3.495   3.653  2.1645 -0.5058  2.1528
 2376SOL     OW 7522   6.003   5.941   5.783  0.2831  0.2086 -0.6664
 2376SOL    HW1 7523   5.921   5.991   5.783 -0.4598 -0.8566  1.5635
 2376SOL    HW2 7524   5.975   5.850   5.780  1.4944 -0.1524 -1.7797
 2377SOL     OW 7525   6.025   6.292   6.273 -0.4595 -0.8864  0.0749
 2377SOL    HW1 7526   5.974   6.372   6.278 -2.9203 -2.3385 -0.2681
 2377SOL    HW2 7527   6.053   6.275   6.363 -1.1501 -0.3977  0.3820
 2378SOL     OW 7528   1.271   2.463   2.103  0.1859 -0.3046  0.1386
 2378SOL    HW1 7529   1.267   2.466   2.008 -1.3665  2.9538  0.2050
 2378SOL    HW2 7530   1.348   2.516   2.126  0.1595 -0.5046  0.7271
 2379SOL     OW 7531   1.900   5.828   3.958 -0.0625 -0.0761  0.4677
 2379SOL    HW1 7532   1.918   5.884   4.034 -1.3883  1.5212 -0.3143
 2379SOL    HW2 7533   1.877   5.743   3.995  3.8368 -0.8076  1.6520
 2380SOL     OW 7534   5.571   1.363   0.641 -0.0770 -0.0986  0.0802
 2380SOL    HW1 7535   5.575   1.386   0.548 -4.0494 -1.4931 -0.6227
 2380SOL    HW2 7536   5.566   1.447   0.687  2.2726  0.6179 -0.8273
 2381SOL     OW 7537   6.687   2.428   6.847 -0.5470 -0.5631 -0.2675
 2381SOL    HW1 7538   6.672   2.521   6.869 -0.3443 -0.1023 -1.9741
 2381SOL    HW2 7539   6.758   2.401   6.906 -0.0660  0.5978 -0.2810
 2382SOL     OW 7540   3.218   5.308   3.666 -0.1990  0.1092  0.2008
 2382SOL    HW1 7541   3.153   5.272   3.606 -0.6806  0.6369  0.3909
 2382SOL    HW2 7542   3.201   5.264   3.749 -0.0552 -0.0388  0.1518
 2383SOL     OW 7543   1.460   5.409   1.043  0.1517 -0.7237 -0.7480
 2383SOL    HW1 7544   1.389   5.351   1.015 -0.4425 -0.4580  0.1698
 2383SOL    HW2 7545   1.492   5.370   1.125  1.4985 -1.1866 -1.4660
 2384SOL     OW 7546   0.348   6.281   6.593 -0.5476  0.1666 -0.3205
 2384SOL    HW1 7547   0.412   6.345   6.564 -0.1643 -0.0754 -0.0069
 2384SOL    HW2 7548   0.377   6.199   6.554 -2.7979  0.6626 -3.4945
 2385SOL     OW 7549   4.599   3.358   2.416  0.4790 -0.2790 -0.0241
 2385SOL    HW1 7550   4.674   3.301   2.436 -0.3050 -1.1185  0.5851
 2385SOL    HW2 7551   4.569   3.327   2.330  0.8058  0.0310 -0.2501
 2386SOL     OW 7552   5.728   4.316   1.155  0.4954  0.4955 -0.3567
 2386SOL    HW1 7553   5.662   4.385   1.148  0.3152  0.2737 -0.9251
 2386SOL    HW2 7554   5.811   4.362   1.167  0.0890  0.7643  1.8589
 2387SOL     OW 7555   3.881   4.223   0.225  0.2335  0.5949 -0.1291
 2387SOL    HW1 7556   3.849   4.205   0.137 -2.2647  1.3539  0.5516
 2387SOL    HW2 7557   3.940   4.297   0.214 -2.0520  2.4066 -0.9221
 2388SOL     OW 7558   6.880   6.507   3.211  0.1292  0.0796  0.1995
 2388SOL    HW1 7559   6.925   6.552   3.283 -1.3210 -0.4405  1.4927
 2388SOL    HW2 7560   6.788   6.506   3.237 -0.1559 -1.9367 -0.6807
 2389SOL     OW 7561   2.639   0.661   0.076  0.1375  0.3710 -0.1095
 2389SOL    HW1 7562   2.583   0.672   0.153  0.1444  0.0824 -0.0632
 2389SOL    HW2 7563   2.723   0.631   0.111  0.0873  0.0731 -0.2462
 2390SOL     OW 7564   4.132   1.698   0.790  0.4250 -0.7846 -0.0345
 2390SOL    HW1 7565   4.111   1.778   0.742  0.1433 -0.8803 -0.0739
 2390SOL    HW2 7566   4.144   1.632   0.722 -0.3693 -1.0111  0.0397
 2391SOL     OW 7567   0.092   4.058   6.233 -0.0548  0.2941  0.0385
 2391SOL    HW1 7568   0.038   4.134   6.253 -0.4490 -0.0567  0.3454
 2391SOL    HW2 7569   0.181   4.091   6.230  0.0683  0.3994  2.4912
 2392SOL     OW 7570   1.305   2.536   3.104  0.4111  0.3611 -0.7643
 2392SOL    HW1 7571   1.328   2.444   3.091 -1.0507 -0.2830  0.8255
 2392SOL    HW2 7572   1.304   2.548   3.199  1.3090  2.2524 -0.9326
 2393SOL     OW 7573   1.349   3.775   3.097 -0.2287  0.3813 -0.3808
 2393SOL    HW1 7574   1.256   3.760   3.111 -0.2103  0.8797  0.2750
 2393SOL    HW2 7575   1.354   3.809   3.007 -0.8878  2.2265  0.2438
 2394SOL     OW 7576   6.088   2.142   5.459 -0.0224  0.0540 -0.8461
 2394SOL    HW1 7577   6.104   2.136   5.553  1.3984 -0.3570 -1.0913
 2394SOL    HW2 7578   6.002   2.104   5.446  0.2615 -0.9599  0.1510
 2395SOL     OW 7579   1.352   4.041   4.557  0.1489  0.8357  0.7939
 2395SOL    HW1 7580   1.272   4.016   4.604  0.4310 -0.2031  0.7437
 2395SOL    HW2 7581   1.421   4.033   4.622  0.3550  0.7251  0.5611
 2396SOL     OW 7582   3.489   1.897   3.380  0.1785  0.0090  0.2569
 2396SOL    HW1 7583   3.546   1.920   3.307 -0.9182  0.2880 -0.5374
 2396SOL    HW2 7584   3.548   1.861   3.446  1.3779  1.0932 -0.1917
 2397SOL     OW 7585   6.695   6.321   3.454  0.1138 -0.2991 -0.6440
 2397SOL    HW1 7586   6.715   6.267   3.378 -1.6331 -2.1562  0.1214
 2397SOL    HW2 7587   6.660   6.402   3.417  4.1976  1.1371 -1.8539
 2398SOL     OW 7588   1.827   1.520   5.322 -0.1733 -0.0408 -0.2754
 2398SOL    HW1 7589   1.757   1.576   5.355  0.8062  1.0149  0.0672
 2398SOL    HW2 7590   1.900   1.533   5.383  0.6589 -0.3473 -1.1697
 2399SOL     OW 7591   4.591   2.213   3.242  0.3149  0.3998  0.3609
 2399SOL    HW1 7592   4.537   2.281   3.203  0.0616 -0.1840 -0.3410
 2399SOL    HW2 7593   4.667   2.260   3.277  0.4535  0.9854 -0.6642
 2400SOL     OW 7594   1.185   4.479   0.540 -0.2881  0.3564 -0.3478
 2400SOL    HW1 7595   1.250   4.500   0.607 -0.9179 -1.3065  0.8482
 2400SOL    HW2 7596   1.214   4.528   0.463  0.2846  2.6162  1.1743
 2401SOL     OW 7597   3.165   6.306   4.609 -0.2258  0.2123 -0.7096
 2401SOL    HW1 7598   3.128   6.333   4.693 -0.6155  0.3972 -0.9356
 2401SOL    HW2 7599   3.139   6.376   4.548  1.4998  0.9680 -0.6461
 2402SOL     OW 7600   2.477   0.872   1.692 -0.6120 -0.0630 -0.1745
 2402SOL    HW1 7601   2.473   0.924   1.612  0.2939  0.6919  0.2574
 2402SOL    HW2 7602   2.498   0.935   1.761  0.2829 -0.9617  0.3980
 2403SOL     OW 7603   3.501   6.904   4.055  0.3229  0.1514  0.2406
 2403SOL    HW1 7604   3.541   6.866   4.133  1.5502  0.8624 -0.0083
 2403SOL    HW2 7605   3.467   6.829   4.006  1.7588 -0.5478  0.2641
 2404SOL     OW 7606   4.469   3.592   5.574  0.1193  0.0023 -0.4765
 2404SOL    HW1 7607   4.453   3.592   5.479 -1.5099 -2.7574 -0.2926
 2404SOL    HW2 7608   4.554   3.550   5.584  0.7497  1.1645 -0.7021
 2405SOL     OW 7609   4.374   5.543   0.293 -0.4747  0.1624  0.0987
 2405SOL    HW1 7610   4.286   5.573   0.316 -0.6267 -0.7875  0.8164
 2405SOL    HW2 7611   4.376   5.451   0.321  0.2962 -0.2221 -1.1358
 2406SOL     OW 7612   0.265   6.000   3.434 -0.0984 -0.7248 -0.4478
 2406SOL    HW1 7613   0.310   6.079   3.405 -0.5810 -0.7129 -1.2042
 2406SOL    HW2 7614   0.323   5.928   3.409  0.3087 -0.6233  0.1790
 2407SOL     OW 7615   2.060   2.796   0.489  0.1112  0.4206  0.2873
 2407SOL    HW1 7616   2.000   2.823   0.558 -0.8584  1.3360 -0.8881
 2407SOL    HW2 7617   2.147   2.810   0.526 -0.3060 -1.5947  2.2870
 2408SOL     OW 7618   3.783   0.239   2.128 -0.6118 -0.3181  0.5007
 2408SOL    HW1 7619   3.787   0.186   2.208  0.6676 -1.7989 -0.4612
 2408SOL    HW2 7620   3.820   0.182   2.060  0.6363  1.7483 -0.6665
 2409SOL     OW 7621   4.808   3.230   4.760 -0.2886 -0.0786  0.0136
 2409SOL    HW1 7622   4.903   3.227   4.765 -0.2987  0.6065  1.0030
 2409SOL    HW2 7623   4.782   3.145   4.724  0.7613  0.2552 -1.6223
 2410SOL     OW 7624   0.797   1.405   4.935  0.3710 -0.1394 -0.4049
 2410SOL    HW1 7625   0.737   1.356   4.879 -0.2100  0.3868 -0.2544
 2410SOL    HW2 7626   0.765   1.495   4.931 -0.8454 -0.3594  2.2002
 2411SOL     OW 7627   2.620   3.835   3.413  0.2305  0.6896  0.0187
 2411SOL    HW1 7628   2.641   3.780   3.337  0.9944 -0.0727  0.7677
 2411SOL    HW2 7629   2.587   3.774   3.479  1.6982  1.0092  1.0908
 2412SOL     OW 7630   5.336   4.148   0.939 -0.0175  0.7550 -0.1538
 2412SOL    HW1 7631   5.409   4.162   1.000 -0.5199 -1.3176  1.0234
 2412SOL    HW2 7632   5.368   4.082   0.879 -0.1431  1.5519 -1.1242
 2413SOL     OW 7633   6.876   5.706   3.534 -0.1228 -0.4483 -0.2511
 2413SOL    HW1 7634   6.921   5.670   3.611  1.7035  1.9523 -0.0659
 2413SOL    HW2 7635   6.907   5.652   3.461  1.1005 -0.4074  0.2178
 2414SOL     OW 7636   5.638   6.077   0.638  0.0565  0.3318  0.3706
 2414SOL    HW1 7637   5.554   6.110   0.671 -1.0727  0.2640 -2.2228
 2414SOL    HW2 7638   5.687   6.155   0.612  0.4976  0.3209  1.1281
 2415SOL     OW 7639   1.736   2.291   3.306  0.7361  0.3104 -0.4937
 2415SOL    HW1 7640   1.658   2.247   3.273  0.2330  1.2818 -0.6656
 2415SOL    HW2 7641   1.791   2.221   3.341 -0.9988 -0.2685  1.2694
 2416SOL     OW 7642   2.160   0.760   0.274  0.0146  0.0840  0.2361
 2416SOL    HW1 7643   2.138   0.736   0.184  0.1484 -1.2189  0.5260
 2416SOL    HW2 7644   2.215   0.838   0.265  1.3505 -0.9375 -0.9265
 2417SOL     OW 7645   5.541   2.127   6.542  0.0610 -0.3090  0.4388
 2417SOL    HW1 7646   5.465   2.173   6.579 -1.3685 -3.1531  1.3735
 2417SOL    HW2 7647   5.506   2.079   6.467  1.4065 -0.1161 -0.3340
 2418SOL     OW 7648   0.013   3.695   5.230  0.2309  0.5152  0.0108
 2418SOL    HW1 7649   0.037   3.603   5.215  0.7632  0.7124 -0.3684
 2418SOL    HW2 7650   0.094   3.743   5.215 -0.0397  1.0480  0.2421
 2419SOL     OW 7651   1.129   6.632   6.227 -0.2841  0.3393 -0.2024
 2419SOL    HW1 7652   1.035   6.631   6.246 -0.3849 -0.9361 -0.6363
 2419SOL    HW2 7653   1.166   6.693   6.290 -1.5139  1.5216 -0.5873
 2420SOL     OW 7654   3.311   6.685   3.177 -0.2518  0.1889  0.2265
 2420SOL    HW1 7655   3.325   6.749   3.247 -1.1720 -0.0944  0.6836
 2420SOL    HW2 7656   3.343   6.728   3.098  0.5891  0.6020  0.7772
 2421SOL     OW 7657   4.149   3.798   2.809 -0.3142  0.3015  0.2718
 2421SOL    HW1 7658   4.123   3.867   2.870 -0.3334 -1.3372  2.2178
 2421SOL    HW2 7659   4.244   3.809   2.800 -0.0012 -0.5509  2.1268
 2422SOL     OW 7660   4.306   3.412   4.856 -0.1754 -0.1469  0.3804
 2422SOL    HW1 7661   4.360   3.432   4.779 -0.1057 -1.7166 -0.0065
 2422SOL    HW2 7662   4.236   3.476   4.853  0.9654  1.1521  0.1922
 2423SOL     OW 7663   3.572   2.230   0.417  0.0106 -0.1084 -0.3545
 2423SOL    HW1 7664   3.527   2.158   0.373  0.4754 -1.2372  0.9444
 2423SOL    HW2 7665   3.639   2.187   0.471  0.8408  1.3543 -0.1657
 2424SOL     OW 7666   4.986   5.662   1.463 -0.3329  0.2668 -0.2730
 2424SOL    HW1 7667   4.908   5.707   1.497  0.7480  1.3363  0.8807
 2424SOL    HW2 7668   4.959   5.571   1.456 -2.5122  0.9696 -2.4074
 2425SOL     OW 7669   3.981   1.512   4.927  0.3107 -0.0880  0.1360
 2425SOL    HW1 7670   3.896   1.550   4.950 -0.3617 -1.7103  0.4618
 2425SOL    HW2 7671   4.034   1.523   5.006  0.8811  2.1059 -0.4921
 2426SOL     OW 7672   3.854   6.084   3.757  0.3044  0.4806  0.2560
 2426SOL    HW1 7673   3.921   6.104   3.823  0.7827 -1.9054  0.5920
 2426SOL    HW2 7674   3.801   6.016   3.798  0.0883 -0.4540 -1.5158
 2427SOL     OW 7675   4.311   4.739   4.371 -0.5815  0.1981  0.3245
 2427SOL    HW1 7676   4.299   4.645   4.382 -0.3958  0.3817  2.6550
 2427SOL    HW2 7677   4.401   4.749   4.340 -0.1062 -0.3547  1.4787
 2428SOL     OW 7678   6.914   4.628   3.725 -0.2361 -0.0358  0.5845
 2428SOL    HW1 7679   6.985   4.688   3.701  1.2336 -1.5633  0.9654
 2428SOL    HW2 7680   6.850   4.684   3.769  0.1556  1.5941 -0.8057
 2429SOL     OW 7681   1.538   6.175   0.172  0.6170 -0.4467  0.6798
 2429SOL    HW1 7682   1.573   6.201   0.087  0.7195 -2.5809  0.0112
 2429SOL    HW2 7683   1.610   6.130   0.215  0.2131 -0.4133  1.4119
 2430SOL     OW 7684   3.093   3.082   0.868 -0.5864 -0.6889 -0.0362
 2430SOL    HW1 7685   3.069   3.056   0.957 -2.5921 -0.2313 -0.3768
 2430SOL    HW2 7686   3.010   3.079   0.820  0.2098  0.3797 -1.5533
 2431SOL     OW 7687   5.685   2.743   1.326 -0.3474  0.6929  0.2579
 2431SOL    HW1 7688   5.608   2.761   1.272 -0.1855  1.5843  0.3184
 2431SOL    HW2 7689   5.746   2.699   1.267 -0.8880 -0.0041  0.2053
 2432SOL     OW 7690   5.768   4.385   5.931  0.2724 -0.3948  0.0402
 2432SOL    HW1 7691   5.857   4.410   5.906  0.5608 -1.3544  0.0624
 2432SOL    HW2 7692   5.773   4.369   6.025 -0.0686  0.1153  0.1495
 2433SOL     OW 7693   6.574   3.906   1.844 -0.0440  0.0356  0.1039
 2433SOL    HW1 7694   6.600   3.969   1.777 -0.0037  2.0303  1.8925
 2433SOL    HW2 7695   6.654   3.856   1.861 -0.2352 -0.9789 -1.7662
 2434SOL     OW 7696   1.761   5.579   5.220 -0.5497  0.2682  0.3638
 2434SOL    HW1 7697   1.832   5.518   5.200 -0.6385  0.0909  0.5885
 2434SOL    HW2 7698   1.762   5.641   5.147 -0.7809 -0.2914 -0.1249
 2435SOL     OW 7699   4.181   5.131   1.587 -0.4903  0.1920 -0.2422
 2435SOL    HW1 7700   4.178   5.047   1.633  2.3887  0.7129  1.0998
 2435SOL    HW2 7701   4.214   5.109   1.499  0.6772 -0.0572  0.2475
 2436SOL     OW 7702   5.258   0.804   5.983 -0.5011 -0.7485  0.0189
 2436SOL    HW1 7703   5.199   0.859   5.931 -1.7370 -1.4385  0.6595
 2436SOL    HW2 7704   5.314   0.867   6.028 -0.6435 -0.0810 -0.7012
 2437SOL     OW 7705   4.368   0.303   6.866  0.1511 -0.5158  0.3779
 2437SOL    HW1 7706   4.463   0.303   6.854  0.1661 -0.4918  0.4928
 2437SOL    HW2 7707   4.341   0.392   6.844  0.1510 -0.5340  0.3067
 2438SOL     OW 7708   6.446   0.153   4.373 -0.1196 -0.2379 -0.3773
 2438SOL    HW1 7709   6.447   0.201   4.291 -1.8329 -2.2237 -1.6749
 2438SOL    HW2 7710   6.508   0.081   4.360 -0.2219 -0.4281  0.1321
 2439SOL     OW 7711   1.467   3.644   0.078 -0.4628 -0.4875 -0.3525
 2439SOL    HW1 7712   1.453   3.739   0.086 -3.2310 -0.9285  0.9807
 2439SOL    HW2 7713   1.522   3.622   0.153 -0.2654 -0.0213 -0.3576
 2440SOL     OW 7714   6.779   3.832   5.781  0.0142 -0.3421  0.0948
 2440SOL    HW1 7715   6.858   3.790   5.815 -0.5281 -0.6271  1.0653
 2440SOL    HW2 7716   6.747   3.884   5.855 -1.5970 -1.5318  0.2968
 2441SOL     OW 7717   5.121   2.118   2.361 -0.0251  0.0702 -0.0108
 2441SOL    HW1 7718   5.070   2.194   2.334  1.3135  0.6850 -0.9690
 2441SOL    HW2 7719   5.058   2.060   2.404 -1.3816  1.0409 -0.6129
 2442SOL     OW 7720   3.166   0.410   6.317 -0.3851 -0.2283 -0.7162
 2442SOL    HW1 7721   3.187   0.494   6.357  1.7440 -0.0952 -1.9825
 2442SOL    HW2 7722   3.165   0.348   6.391 -0.7361  0.6686  0.0556
 2443SOL     OW 7723   0.506   0.168   4.842 -0.0688 -0.3327  0.4076
 2443SOL    HW1 7724   0.483   0.219   4.919 -1.6638 -2.3836  1.3759
 2443SOL    HW2 7725   0.438   0.101   4.836 -1.5602  1.2072 -4.2778
 2444SOL     OW 7726   3.859   1.012   5.404  0.1166 -0.0957 -0.2863
 2444SOL    HW1 7727   3.878   0.929   5.360  1.2422 -0.6929  1.2172
 2444SOL    HW2 7728   3.938   1.064   5.391 -0.6943  0.8731 -1.4548
 2445SOL     OW 7729   2.400   4.302   2.936 -0.4255 -0.1092 -0.0631
 2445SOL    HW1 7730   2.317   4.277   2.975 -1.0942  0.5197 -1.0403
 2445SOL    HW2 7731   2.388   4.393   2.911  1.3486  0.7249  1.8139
 2446SOL     OW 7732   6.359   4.964   4.342  0.4176 -0.2446 -0.2289
 2446SOL    HW1 7733   6.302   5.041   4.341  0.8787  0.1098 -1.6672
 2446SOL    HW2 7734   6.300   4.891   4.358 -0.5785  0.0662 -2.1231
 2447SOL     OW 7735   3.231   5.117   5.430 -0.2846  0.4898  0.4965
 2447SOL    HW1 7736   3.273   5.138   5.513  0.1179  1.1460  0.1320
 2447SOL    HW2 7737   3.140   5.144   5.442 -0.2878  0.3344  0.8178
 2448SOL     OW 7738   0.197   1.602   1.795  0.0052 -0.2480  0.4945
 2448SOL    HW1 7739   0.226   1.693   1.788 -1.4684  0.1863 -0.7235
 2448SOL    HW2 7740   0.246   1.556   1.727  0.0135 -0.1497  0.4339
 2449SOL     OW 7741   2.718   5.707   6.676  0.1773  0.3561 -0.2791
 2449SOL    HW1 7742   2.740   5.624   6.719  1.2602  0.7118 -0.1379
 2449SOL    HW2 7743   2.719   5.686   6.582  0.1532  0.1385 -0.2309
 2450SOL     OW 7744   3.497   5.094   0.586 -0.1078 -0.6584  0.2165
 2450SOL    HW1 7745   3.563   5.083   0.656  0.4058 -0.3347 -0.2090
 2450SOL    HW2 7746   3.443   5.016   0.592  0.1117 -0.7717  0.7953
 2451SOL     OW 7747   3.748   5.243   3.873 -0.4064 -0.6269 -0.5987
 2451SOL    HW1 7748   3.745   5.206   3.961  0.1110  0.4639 -0.0956
 2451SOL    HW2 7749   3.785   5.173   3.818  0.4064 -0.9156  0.2891
 2452SOL     OW 7750   4.169   1.514   6.477 -0.0245 -0.0559 -0.9712
 2452SOL    HW1 7751   4.104   1.447   6.498 -0.1222  0.5775  0.9404
 2452SOL    HW2 7752   4.253   1.468   6.483 -0.1907 -0.7502 -2.9469
 2453SOL     OW 7753   4.715   5.183   0.362 -0.8295  0.4997 -0.0283
 2453SOL    HW1 7754   4.775   5.123   0.407  2.4194  1.2982 -2.7953
 2453SOL    HW2 7755   4.648   5.126   0.324 -1.2667 -0.6029  2.2403
 2454SOL     OW 7756   2.552   3.939   3.761 -0.5573 -0.1843  0.3091
 2454SOL    HW1 7757   2.633   3.888   3.770 -1.8919 -2.4716  0.0480
 2454SOL    HW2 7758   2.528   3.960   3.851  0.4677  0.8033  0.3752
 2455SOL     OW 7759   0.859   3.191   3.035 -0.6406 -0.0497 -0.2758
 2455SOL    HW1 7760   0.948   3.225   3.032 -0.2521 -0.8557  1.0924
 2455SOL    HW2 7761   0.843   3.156   2.948  0.0852  0.7972 -0.7668
 2456SOL     OW 7762   6.294   3.149   5.996  0.5839  0.0490  0.0278
 2456SOL    HW1 7763   6.212   3.132   5.949  0.5719  1.0454 -0.3386
 2456SOL    HW2 7764   6.350   3.075   5.975  0.5577  0.4517 -1.5330
 2457SOL     OW 7765   0.616   4.984   0.290  0.5908 -0.1942  0.5052
 2457SOL    HW1 7766   0.566   5.002   0.370 -0.8976  1.4725 -0.7037
 2457SOL    HW2 7767   0.706   4.971   0.319  0.3494  1.7279  2.3472
 2458SOL     OW 7768   5.885   0.826   1.094  0.0752  0.0183 -0.0989
 2458SOL    HW1 7769   5.889   0.848   1.001 -0.9860 -1.5402 -0.5434
 2458SOL    HW2 7770   5.812   0.764   1.102  0.3023 -0.0869  1.7354
 2459SOL     OW 7771   5.147   1.141   2.222  0.6793 -0.1861  0.0962
 2459SOL    HW1 7772   5.071   1.105   2.176  0.4982  0.5547 -0.1902
 2459SOL    HW2 7773   5.110   1.182   2.300  0.9577 -1.1929  0.7759
 2460SOL     OW 7774   5.693   0.752   2.989  0.1326  0.0037 -0.4396
 2460SOL    HW1 7775   5.641   0.795   3.056  0.0910 -0.9797  0.1732
 2460SOL    HW2 7776   5.687   0.810   2.913 -1.3195  0.2170 -0.1780
 2461SOL     OW 7777   0.785   0.204   0.513  0.1252  0.3248  0.1790
 2461SOL    HW1 7778   0.844   0.132   0.536  0.1923  0.2742 -0.1428
 2461SOL    HW2 7779   0.840   0.268   0.470 -0.3923 -0.7039 -2.1825
 2462SOL     OW 7780   4.283   4.657   3.322 -0.2089  0.3183 -0.4176
 2462SOL    HW1 7781   4.363   4.670   3.371 -1.2394  0.0842  1.4265
 2462SOL    HW2 7782   4.300   4.580   3.267  0.5188 -0.2961  0.6483
 2463SOL     OW 7783   3.980   2.255   2.971 -0.0153 -0.1678  0.1948
 2463SOL    HW1 7784   3.899   2.294   3.002 -0.7601 -1.3641 -0.1594
 2463SOL    HW2 7785   4.024   2.325   2.923 -1.5231  0.1419 -0.8180
 2464SOL     OW 7786   0.367   3.262   3.715  0.3098  0.2906 -0.2070
 2464SOL    HW1 7787   0.346   3.339   3.768  0.8372  0.8794 -0.8479
 2464SOL    HW2 7788   0.287   3.210   3.716 -0.2955  1.1987 -0.3709
 2465SOL     OW 7789   6.600   1.147   4.730 -0.0060 -0.4720  0.2312
 2465SOL    HW1 7790   6.631   1.189   4.650  1.9071 -1.8700  0.1953
 2465SOL    HW2 7791   6.642   1.196   4.801 -1.4263  0.5410  0.4367
 2466SOL     OW 7792   1.392   0.876   2.114 -0.1378 -0.3048  0.3902
 2466SOL    HW1 7793   1.415   0.937   2.185  0.4881 -0.2024  0.1039
 2466SOL    HW2 7794   1.435   0.794   2.138  0.2191 -0.2209  0.0417
 2467SOL     OW 7795   3.740   1.654   5.002  0.5062 -0.1917 -0.4724
 2467SOL    HW1 7796   3.717   1.713   4.930 -0.7361 -0.3317 -0.2103
 2467SOL    HW2 7797   3.772   1.712   5.071  0.1409  0.0941 -0.5410
 2468SOL     OW 7798   2.003   0.689   6.474  0.0972  0.1854 -0.4498
 2468SOL    HW1 7799   2.087   0.686   6.429  0.5493  0.5478  0.3687
 2468SOL    HW2 7800   1.944   0.641   6.416  0.7699  0.2685 -1.2202
 2469SOL     OW 7801   2.775   0.772   1.178 -0.0635  0.5467  0.6612
 2469SOL    HW1 7802   2.802   0.683   1.152  1.4612  0.8406  1.1268
 2469SOL    HW2 7803   2.699   0.791   1.123  0.8525 -0.2540 -0.9494
 2470SOL     OW 7804   1.721   6.679   4.364  0.2990  0.0881 -0.1790
 2470SOL    HW1 7805   1.648   6.665   4.425  1.6147  1.5968  1.8721
 2470SOL    HW2 7806   1.682   6.722   4.288 -0.8307  1.8228  1.3132
 2471SOL     OW 7807   5.866   4.319   5.536  0.3523 -0.2318 -0.1819
 2471SOL    HW1 7808   5.946   4.366   5.560 -0.2316 -0.0047  1.4674
 2471SOL    HW2 7809   5.861   4.248   5.600 -0.1033 -1.0156 -1.0795
 2472SOL     OW 7810   5.752   3.898   2.314 -0.7576  0.4737  0.3662
 2472SOL    HW1 7811   5.759   3.993   2.304 -1.4378  0.4811 -0.0766
 2472SOL    HW2 7812   5.752   3.864   2.225 -1.7301  0.1570  0.4711
 2473SOL     OW 7813   2.738   0.165   1.098  0.0335 -0.5316 -0.0482
 2473SOL    HW1 7814   2.801   0.138   1.031 -0.2956 -0.9550 -0.1837
 2473SOL    HW2 7815   2.792   0.179   1.177  0.5798  0.9932 -0.6491
 2474SOL     OW 7816   0.552   2.654   1.291  0.0448  0.7410 -0.1438
 2474SOL    HW1 7817   0.488   2.587   1.266  1.0519 -0.6413  0.8937
 2474SOL    HW2 7818   0.598   2.674   1.209  0.6669 -0.8631 -0.2116
 2475SOL     OW 7819   2.791   1.634   5.960 -0.2108  0.1727 -0.3555
 2475SOL    HW1 7820   2.722   1.604   5.901  0.8965 -0.6703 -1.2558
 2475SOL    HW2 7821   2.866   1.651   5.903  0.9298 -0.7781  0.7968
 2476SOL     OW 7822   6.861   5.496   3.912 -0.4015  0.1691 -0.2899
 2476SOL    HW1 7823   6.801   5.422   3.899 -0.8431  0.4919 -0.1260
 2476SOL    HW2 7824   6.809   5.560   3.962  0.1999  0.2977  0.1848
 2477SOL     OW 7825   2.871   1.981   6.364  0.4713 -0.1818  0.1782
 2477SOL    HW1 7826   2.913   2.039   6.426  0.6223 -0.9045  0.7679
 2477SOL    HW2 7827   2.802   1.937   6.414  0.0412 -0.1606 -0.3765
 2478SOL     OW 7828   0.345   5.706   6.400 -0.6437 -0.1412 -0.1982
 2478SOL    HW1 7829   0.254   5.725   6.424 -0.6248 -0.4393  0.1288
 2478SOL    HW2 7830   0.340   5.622   6.354 -0.3696 -0.9262  1.1464
 2479SOL     OW 7831   5.152   0.320   3.748 -0.6870  0.0227 -0.8378
 2479SOL    HW1 7832   5.185   0.348   3.834  0.8219 -0.2820 -1.2900
 2479SOL    HW2 7833   5.145   0.225   3.755 -0.9733  0.0390 -0.9118
 2480SOL     OW 7834   1.773   4.650   0.972  0.2577  0.3457  0.1234
 2480SOL    HW1 7835   1.830   4.726   0.987 -0.0895  0.4302  1.1090
 2480SOL    HW2 7836   1.740   4.628   1.059 -1.3146  0.3803 -0.4418
 2481SOL     OW 7837   1.813   6.543   2.212 -0.2424  0.3301  0.6726
 2481SOL    HW1 7838   1.882   6.486   2.178  1.1124  0.1650  3.4871
 2481SOL    HW2 7839   1.762   6.487   2.270 -1.7007  0.9203  0.0198
 2482SOL     OW 7840   6.466   2.970   5.379 -0.1634 -0.0303 -0.4199
 2482SOL    HW1 7841   6.411   2.909   5.428  0.7340 -0.3109  0.2679
 2482SOL    HW2 7842   6.483   2.925   5.296 -0.8178 -0.0128 -0.5691
 2483SOL     OW 7843   5.274   1.528   1.239  0.2266  0.7193  0.2384
 2483SOL    HW1 7844   5.185   1.505   1.214  0.1791 -0.2432  1.1986
 2483SOL    HW2 7845   5.330   1.479   1.179  0.1163  1.3146 -0.3572
 2484SOL     OW 7846   0.223   3.276   4.051 -0.1767  0.1501 -0.2256
 2484SOL    HW1 7847   0.156   3.313   4.110  0.1930  0.5090 -0.0221
 2484SOL    HW2 7848   0.216   3.328   3.971  1.7748  2.1766  0.8009
 2485SOL     OW 7849   6.266   2.276   4.205 -0.6104  0.3467  0.8136
 2485SOL    HW1 7850   6.203   2.251   4.138 -1.6736  2.0453  1.1416
 2485SOL    HW2 7851   6.322   2.198   4.215  0.2574  0.3476 -2.7292
 2486SOL     OW 7852   1.671   5.555   2.044 -0.2417  0.2170  0.2497
 2486SOL    HW1 7853   1.714   5.527   2.125  2.4311  0.9924 -0.7834
 2486SOL    HW2 7854   1.675   5.650   2.046  1.5144  0.2393 -1.5349
 2487SOL     OW 7855   4.303   4.912   4.599 -0.2169  0.3457 -0.0572
 2487SOL    HW1 7856   4.301   4.859   4.679 -2.4474 -0.0295 -0.2968
 2487SOL    HW2 7857   4.303   4.849   4.528  0.0071  0.6830 -0.3603
 2488SOL     OW 7858   3.588   2.016   6.186 -0.1004 -0.4642 -0.1275
 2488SOL    HW1 7859   3.672   2.029   6.141 -0.0675 -0.7263 -0.1421
 2488SOL    HW2 7860   3.612   2.005   6.278 -0.2895  1.8388  0.2553
 2489SOL     OW 7861   6.558   5.681   0.859  0.3948 -0.7815 -0.2792
 2489SOL    HW1 7862   6.559   5.646   0.770 -2.6570  0.6705 -1.0159
 2489SOL    HW2 7863   6.592   5.770   0.851 -2.1045  0.2150 -0.5319
 2490SOL     OW 7864   6.878   4.782   0.548 -0.2141  0.2280  0.3537
 2490SOL    HW1 7865   6.846   4.788   0.458  1.5810 -0.8002 -0.4097
 2490SOL    HW2 7866   6.818   4.720   0.591  0.2768 -1.1407 -0.8431
 2491SOL     OW 7867   1.537   3.419   3.186  0.3454 -0.2911  0.3315
 2491SOL    HW1 7868   1.604   3.484   3.206 -0.5224  1.1236 -1.0617
 2491SOL    HW2 7869   1.539   3.358   3.260  0.4743  1.9062  2.2316
 2492SOL     OW 7870   2.551   5.014   0.387 -0.0075 -0.3935  0.3650
 2492SOL    HW1 7871   2.532   5.024   0.293 -0.3735 -0.5050  0.4267
 2492SOL    HW2 7872   2.626   4.955   0.390 -0.1725 -0.6167  0.1521
 2493SOL     OW 7873   5.421   2.330   2.224  0.1723  0.5810  0.8777
 2493SOL    HW1 7874   5.364   2.270   2.272  0.9353 -1.3647 -0.5096
 2493SOL    HW2 7875   5.510   2.301   2.245  0.6518  2.3242  1.4592
 2494SOL     OW 7876   3.022   4.702   0.716  0.4586 -0.0428  0.5545
 2494SOL    HW1 7877   2.935   4.694   0.756  0.9080 -2.2971  1.2260
 2494SOL    HW2 7878   3.081   4.718   0.790  0.4720  4.1464 -0.0929
 2495SOL     OW 7879   6.427   0.794   0.688 -0.5870  0.4049  0.1793
 2495SOL    HW1 7880   6.461   0.811   0.776  0.0897  0.1247 -0.0236
 2495SOL    HW2 7881   6.455   0.705   0.668 -0.8621  0.4139 -0.2711
 2496SOL     OW 7882   5.752   1.648   1.205  0.6079 -0.6210 -0.2850
 2496SOL    HW1 7883   5.792   1.564   1.228 -0.3813 -0.6477  1.5197
 2496SOL    HW2 7884   5.680   1.626   1.147  0.4894 -1.0124  0.0058
 2497SOL     OW 7885   5.527   0.967   5.625  0.1335 -0.5383  0.0486
 2497SOL    HW1 7886   5.471   0.898   5.661  2.5533 -2.5305  0.2774
 2497SOL    HW2 7887   5.595   0.979   5.692 -0.2853  2.2394  0.0631
 2498SOL     OW 7888   6.034   0.562   1.106  0.3298  0.3728 -0.7880
 2498SOL    HW1 7889   5.976   0.637   1.116 -2.0628 -1.1158 -2.5927
 2498SOL    HW2 7890   5.989   0.490   1.149  2.3136 -0.2353  0.4152
 2499SOL     OW 7891   4.350   5.113   4.399 -0.0614  0.1819  0.6292
 2499SOL    HW1 7892   4.275   5.170   4.386  0.5724  0.7515 -0.7034
 2499SOL    HW2 7893   4.329   5.063   4.478 -0.3364  2.7829  2.3431
 2500SOL     OW 7894   0.769   6.723   2.995 -0.2929  0.0032 -0.5938
 2500SOL    HW1 7895   0.849   6.752   2.953  0.0610  2.0180  1.2891
 2500SOL    HW2 7896   0.708   6.796   2.985 -1.1298 -0.5979 -0.0461
 2501SOL     OW 7897   4.085   5.945   3.311 -0.6057  0.4058  0.1074
 2501SOL    HW1 7898   4.007   5.946   3.367 -0.6737  2.3550  0.0591
 2501SOL    HW2 7899   4.072   6.019   3.252 -0.1356 -1.0883 -1.9717
 2502SOL     OW 7900   5.082   4.445   1.162  0.6351  0.0911 -0.2566
 2502SOL    HW1 7901   5.031   4.399   1.095  0.8242  0.5574 -0.7226
 2502SOL    HW2 7902   5.138   4.377   1.199 -1.6267 -0.9222  1.6260
 2503SOL     OW 7903   2.118   3.938   1.511  0.0845  0.5127 -0.4935
 2503SOL    HW1 7904   2.036   3.924   1.559 -0.0146 -0.3668 -0.8879
 2503SOL    HW2 7905   2.154   4.018   1.547  0.5467 -0.6535  1.8437
 2504SOL     OW 7906   5.142   3.899   4.067 -0.4432 -0.7006  0.0400
 2504SOL    HW1 7907   5.047   3.891   4.077 -0.5124  0.7461  0.7810
 2504SOL    HW2 7908   5.174   3.919   4.155  0.2683  1.0781 -0.5664
 2505SOL     OW 7909   3.559   0.159   5.134 -0.2485 -0.2080 -0.2320
 2505SOL    HW1 7910   3.528   0.181   5.046  0.4492  1.9958  0.0220
 2505SOL    HW2 7911   3.647   0.196   5.139  0.0352 -0.9878  1.1433
 2506SOL     OW 7912   1.138   0.790   3.899  0.0696 -0.3773  0.5462
 2506SOL    HW1 7913   1.181   0.840   3.830 -2.4662  0.2764 -0.6563
 2506SOL    HW2 7914   1.065   0.746   3.856 -2.0480  0.6016  2.8796
 2507SOL     OW 7915   4.019   0.419   4.928 -0.0384  0.3905 -0.4085
 2507SOL    HW1 7916   4.028   0.514   4.921  1.9160  0.2615 -0.3718
 2507SOL    HW2 7917   3.934   0.406   4.970 -0.7974  2.0695 -1.3021
 2508SOL     OW 7918   6.195   4.387   0.924 -1.1030 -0.2073  1.2317
 2508SOL    HW1 7919   6.228   4.446   0.855  0.2498 -0.4832  1.6015
 2508SOL    HW2 7920   6.157   4.313   0.876 -0.5065 -0.2250  0.7687
 2509SOL     OW 7921   3.599   2.015   5.048 -0.5204 -0.0471 -0.0630
 2509SOL    HW1 7922   3.536   2.047   5.113 -0.5898 -1.0078  0.3651
 2509SOL    HW2 7923   3.549   1.958   4.991 -0.1290 -0.4761  0.0142
 2510SOL     OW 7924   4.884   5.028   2.234  0.0944 -0.1168  0.5510
 2510SOL    HW1 7925   4.832   5.034   2.314  0.1040  1.7109  0.4537
 2510SOL    HW2 7926   4.841   5.087   2.173  0.8607 -0.4755 -0.3607
 2511SOL     OW 7927   4.368   1.047   2.433  0.3628 -0.6475  0.2371
 2511SOL    HW1 7928   4.460   1.047   2.406 -0.2455 -2.2591 -2.1056
 2511SOL    HW2 7929   4.329   1.121   2.385  0.2431 -0.5203  0.5278
 2512SOL     OW 7930   1.814   1.462   4.927  0.4401  0.0031 -0.2026
 2512SOL    HW1 7931   1.885   1.398   4.919 -0.0173 -0.4315 -0.9068
 2512SOL    HW2 7932   1.737   1.418   4.890 -0.3923  0.1755  1.2621
 2513SOL     OW 7933   1.854   3.732   5.071  0.3416  0.0388  0.7272
 2513SOL    HW1 7934   1.871   3.826   5.063  0.3766  0.1148  1.5974
 2513SOL    HW2 7935   1.940   3.693   5.086  0.3441 -0.1537  0.2339
 2514SOL     OW 7936   4.902   1.576   2.761  0.0737 -0.4429 -0.0973
 2514SOL    HW1 7937   4.948   1.619   2.689 -0.8442 -1.0951 -1.1097
 2514SOL    HW2 7938   4.931   1.623   2.839  1.4453 -0.0025 -0.8272
 2515SOL     OW 7939   1.475   3.933   6.698  0.5218 -0.2790 -0.6489
 2515SOL    HW1 7940   1.420   3.891   6.631  0.3171 -1.1401  0.0420
 2515SOL    HW2 7941   1.456   4.026   6.689 -1.6429 -0.6059  0.0720
 2516SOL     OW 7942   4.095   4.639   5.020  0.3432 -0.0786  0.1355
 2516SOL    HW1 7943   4.015   4.639   5.074  0.0754 -0.0210 -0.2572
 2516SOL    HW2 7944   4.108   4.548   4.996  0.2459 -0.0521 -0.0188
 2517SOL     OW 7945   6.771   3.529   4.333  0.2260  0.2000  0.4512
 2517SOL    HW1 7946   6.710   3.563   4.268 -0.0178  0.5886  0.8764
 2517SOL    HW2 7947   6.786   3.603   4.392 -1.1448 -0.7357  2.0143
 2518SOL     OW 7948   1.127   1.421   2.738  0.9098  0.0943 -0.3466
 2518SOL    HW1 7949   1.041   1.453   2.711  0.6912 -0.8036 -0.7474
 2518SOL    HW2 7950   1.163   1.492   2.791  0.3823  0.9328 -1.0796
 2519SOL     OW 7951   3.721   2.871   5.102  0.0742 -0.3562  0.2581
 2519SOL    HW1 7952   3.670   2.791   5.120 -0.4938 -0.1636 -0.4557
 2519SOL    HW2 7953   3.695   2.896   5.014  0.8362  0.1908  0.1839
 2520SOL     OW 7954   5.425   4.717   2.235  0.2051 -0.0487 -0.5898
 2520SOL    HW1 7955   5.398   4.808   2.230 -1.2783 -0.4273 -0.2171
 2520SOL    HW2 7956   5.517   4.719   2.259  0.4307  1.3527 -1.5058
 2521SOL     OW 7957   0.632   3.408   6.075 -0.4321 -0.5524  0.1545
 2521SOL    HW1 7958   0.668   3.325   6.044 -0.0345 -1.0504  1.8676
 2521SOL    HW2 7959   0.539   3.403   6.054 -0.1613 -0.7862 -1.0734
 2522SOL     OW 7960   0.210   0.516   1.073 -0.0532 -0.2740  0.0435
 2522SOL    HW1 7961   0.176   0.570   1.002  0.5939 -0.5106 -0.4631
 2522SOL    HW2 7962   0.294   0.556   1.095 -0.1065 -0.3885  0.4690
 2523SOL     OW 7963   3.126   4.123   2.054  0.1973  0.2851  0.4261
 2523SOL    HW1 7964   3.182   4.186   2.008  0.7831  1.0921  2.1140
 2523SOL    HW2 7965   3.177   4.042   2.057 -0.0435  0.0879 -0.7149
 2524SOL     OW 7966   0.406   4.032   4.793 -0.5912 -0.8590  0.1705
 2524SOL    HW1 7967   0.465   3.971   4.749 -0.1303 -2.0551  2.3194
 2524SOL    HW2 7968   0.320   4.014   4.756 -0.2261 -1.8193 -0.2242
 2525SOL     OW 7969   0.612   3.748   2.223 -0.7326 -0.1897  0.0041
 2525SOL    HW1 7970   0.627   3.654   2.211  1.1933  0.0673  0.0915
 2525SOL    HW2 7971   0.523   3.754   2.257 -2.2035 -1.7368 -3.1049
 2526SOL     OW 7972   5.131   0.403   0.767  0.1268  0.6974 -0.2077
 2526SOL    HW1 7973   5.093   0.456   0.697 -0.1509 -0.4716 -0.9647
 2526SOL    HW2 7974   5.082   0.321   0.766  0.5294  0.4122  0.9551
 2527SOL     OW 7975   6.429   3.162   2.559  0.3980 -0.0272 -0.6322
 2527SOL    HW1 7976   6.375   3.162   2.638  1.4038  1.0282  0.0780
 2527SOL    HW2 7977   6.367   3.147   2.488 -0.8681  1.2499  0.1545
 2528SOL     OW 7978   2.969   0.498   5.262 -0.0360 -0.0638 -1.1253
 2528SOL    HW1 7979   2.950   0.434   5.332 -2.4174  0.9259 -0.7595
 2528SOL    HW2 7980   3.004   0.574   5.308 -1.3323  0.4796 -0.9914
 2529SOL     OW 7981   2.938   4.441   4.172 -0.3824  0.4085 -0.4004
 2529SOL    HW1 7982   2.942   4.377   4.101  0.4974 -3.3854  2.7336
 2529SOL    HW2 7983   2.864   4.497   4.149 -3.4794 -3.7764 -1.9807
 2530SOL     OW 7984   5.137   2.118   3.050  0.2396 -0.5589  0.0018
 2530SOL    HW1 7985   5.177   2.091   3.133 -0.0402 -0.3257  0.2155
 2530SOL    HW2 7986   5.052   2.153   3.075  0.7278  0.8515 -0.2140
 2531SOL     OW 7987   2.274   3.568   1.235 -0.4824  0.1664  0.4012
 2531SOL    HW1 7988   2.180   3.555   1.226 -0.6456 -0.4926  2.4538
 2531SOL    HW2 7989   2.309   3.479   1.244  0.1910  0.4479  0.6176
 2532SOL     OW 7990   3.371   0.563   6.813  0.3703  0.5973 -0.0084
 2532SOL    HW1 7991   3.355   0.617   6.891 -0.0238  0.1369  0.2372
 2532SOL    HW2 7992   3.288   0.566   6.765 -0.3748 -1.4193  1.0290
 2533SOL     OW 7993   1.472   5.177   3.818  0.2671  0.3692 -0.6714
 2533SOL    HW1 7994   1.392   5.189   3.765 -0.8634  2.2074  1.2834
 2533SOL    HW2 7995   1.512   5.264   3.820 -1.0470  1.0861  3.3291
 2534SOL     OW 7996   4.247   2.280   3.504  0.8951 -0.1738 -0.4322
 2534SOL    HW1 7997   4.176   2.215   3.511  0.3918  0.3042 -0.9665
 2534SOL    HW2 7998   4.319   2.242   3.554 -0.4940  0.3926  2.2264
 2535SOL     OW 7999   6.567   0.828   0.924  0.0674 -0.3434  0.3127
 2535SOL    HW1 8000   6.557   0.846   1.017  2.4056 -0.0181  0.5600
 2535SOL    HW2 8001   6.654   0.861   0.902 -0.5473 -0.0993 -2.0833
 2536SOL     OW 8002   1.581   5.505   2.318  0.5643 -0.1928 -0.3302
 2536SOL    HW1 8003   1.533   5.578   2.356  2.7652  1.6495 -0.8813
 2536SOL    HW2 8004   1.525   5.428   2.333 -0.3617  1.0307  3.1861
 2537SOL     OW 8005   5.701   2.352   0.155 -0.2434 -0.4629  0.4320
 2537SOL    HW1 8006   5.775   2.293   0.140 -0.9690 -0.7628 -2.5360
 2537SOL    HW2 8007   5.733   2.412   0.222  2.6644 -0.6968 -0.5755
 2538SOL     OW 8008   0.264   3.213   2.352  0.3693 -0.1036  0.5748
 2538SOL    HW1 8009   0.180   3.252   2.376 -0.0053 -0.7647  0.3603
 2538SOL    HW2 8010   0.318   3.287   2.324 -0.1638  0.3181  0.6545
 2539SOL     OW 8011   6.658   5.151   2.631 -0.1688  0.0001 -0.4927
 2539SOL    HW1 8012   6.717   5.190   2.695  0.1036  1.0687 -1.3613
 2539SOL    HW2 8013   6.574   5.144   2.677  0.4492 -0.9060  0.5356
 2540SOL     OW 8014   4.288   0.891   5.270  0.2998  0.2272 -0.1028
 2540SOL    HW1 8015   4.318   0.811   5.313 -3.1823 -1.4252 -0.4024
 2540SOL    HW2 8016   4.330   0.962   5.319  1.2017 -1.7087  2.1229
 2541SOL     OW 8017   5.563   3.172   2.474  0.1600  0.7067  0.3722
 2541SOL    HW1 8018   5.494   3.171   2.540 -0.7412 -0.5605 -0.5350
 2541SOL    HW2 8019   5.561   3.261   2.439 -0.2045  1.0180  1.1716
 2542SOL     OW 8020   6.407   3.249   3.020 -0.0489 -0.2162  0.3795
 2542SOL    HW1 8021   6.467   3.324   3.030  0.9859 -0.6879 -1.6003
 2542SOL    HW2 8022   6.322   3.283   3.047 -0.3374  2.8287 -3.3520
 2543SOL     OW 8023   6.389   5.662   6.865 -0.2483  0.1049 -0.3707
 2543SOL    HW1 8024   6.397   5.635   6.774  0.0985  0.3472 -0.4149
 2543SOL    HW2 8025   6.339   5.592   6.907  1.4156 -1.1032 -0.2903
 2544SOL     OW 8026   4.220   1.256   1.563  0.1249 -0.1610 -0.0070
 2544SOL    HW1 8027   4.165   1.300   1.627  0.8596 -0.7032  1.0142
 2544SOL    HW2 8028   4.226   1.166   1.593  0.0687 -0.5529 -1.1183
 2545SOL     OW 8029   1.563   3.183   0.345 -0.5124  0.1205  0.0294
 2545SOL    HW1 8030   1.528   3.098   0.372 -3.0979  1.1051  0.0988
 2545SOL    HW2 8031   1.558   3.182   0.249 -0.2862  0.0896  0.0180
 2546SOL     OW 8032   1.758   4.413   4.230  0.0055  0.1447 -0.2737
 2546SOL    HW1 8033   1.844   4.454   4.217  0.8181 -1.4825 -0.3143
 2546SOL    HW2 8034   1.733   4.382   4.143 -0.2695 -0.0790 -0.1142
 2547SOL     OW 8035   5.860   3.414   0.406  0.3543  0.1849 -0.7819
 2547SOL    HW1 8036   5.868   3.348   0.338  0.6214 -1.7066  1.0044
 2547SOL    HW2 8037   5.783   3.389   0.456  1.6002 -0.0106  1.1552
 2548SOL     OW 8038   0.823   3.921   5.582  0.1307 -0.1037  0.0635
 2548SOL    HW1 8039   0.864   4.005   5.564 -0.8763  0.6014  0.9336
 2548SOL    HW2 8040   0.729   3.937   5.571  0.0023 -1.5146 -1.2527
 2549SOL     OW 8041   4.249   6.899   4.937 -0.0476  0.6050 -0.2100
 2549SOL    HW1 8042   4.299   6.853   5.005  0.2298 -0.6699 -1.2499
 2549SOL    HW2 8043   4.165   6.919   4.979 -0.7036 -2.0316 -0.0938
 2550SOL     OW 8044   1.478   5.918   2.988 -0.4067 -0.3112 -0.1363
 2550SOL    HW1 8045   1.393   5.947   3.020  0.4667  1.7253  0.4347
 2550SOL    HW2 8046   1.486   5.959   2.902  0.1965 -0.1181  0.0117
 2551SOL     OW 8047   0.843   3.206   2.509 -0.1388 -0.3204  0.5933
 2551SOL    HW1 8048   0.794   3.259   2.446 -0.6513 -0.1019  1.1644
 2551SOL    HW2 8049   0.923   3.182   2.463 -0.0809  0.6216  0.1818
 2552SOL     OW 8050   4.029   5.341   2.700  0.2327  0.7138  0.1741
 2552SOL    HW1 8051   3.949   5.309   2.742  1.1205  0.5552  1.8455
 2552SOL    HW2 8052   4.038   5.431   2.733 -0.1006  1.3288 -1.3126
 2553SOL     OW 8053   3.252   2.249   6.113  0.2239  0.1588  0.0390
 2553SOL    HW1 8054   3.245   2.156   6.133  0.1456  0.0849 -0.3218
 2553SOL    HW2 8055   3.318   2.282   6.174  1.2066 -0.4027 -0.6963
 2554SOL     OW 8056   3.064   3.912   0.770  0.3846 -0.3363 -0.6224
 2554SOL    HW1 8057   3.022   3.826   0.764  0.5946 -0.5068  0.1680
 2554SOL    HW2 8058   3.151   3.893   0.805 -0.7912  0.4771  3.2081
 2555SOL     OW 8059   4.739   5.162   2.031 -0.2525  0.2283 -0.4286
 2555SOL    HW1 8060   4.674   5.122   1.972 -0.7841  0.9329 -0.3433
 2555SOL    HW2 8061   4.801   5.204   1.972  0.2939 -0.6829 -0.5178
 2556SOL     OW 8062   1.467   3.419   0.467  0.2706  0.1476 -0.0789
 2556SOL    HW1 8063   1.489   3.338   0.420  0.2380 -0.6714  1.2680
 2556SOL    HW2 8064   1.386   3.449   0.425 -0.8191 -1.6032  0.6443
 2557SOL     OW 8065   5.473   4.217   0.617 -0.3722 -0.0114 -0.3436
 2557SOL    HW1 8066   5.409   4.287   0.621 -0.3155  0.1010 -1.1531
 2557SOL    HW2 8067   5.516   4.218   0.702  0.5768  1.8472 -0.7855
 2558SOL     OW 8068   5.444   1.426   0.067 -0.0684 -0.0272 -0.0762
 2558SOL    HW1 8069   5.497   1.387   0.136 -0.0520  1.3322  0.7249
 2558SOL    HW2 8070   5.461   1.373  -0.010  1.6271 -0.2639  0.4251
 2559SOL     OW 8071   2.538   1.598   5.642 -0.0261 -0.1225  0.4253
 2559SOL    HW1 8072   2.483   1.653   5.585  0.7746  2.2798  1.8097
 2559SOL    HW2 8073   2.627   1.625   5.622  0.3410 -0.3196  1.7065
 2560SOL     OW 8074   5.493   1.414   1.393  0.6204 -0.0095 -0.0576
 2560SOL    HW1 8075   5.532   1.357   1.327 -1.6155 -1.8796  0.1062
 2560SOL    HW2 8076   5.466   1.492   1.344  0.2430 -0.7699 -1.0960
 2561SOL     OW 8077   5.741   4.778   5.601 -0.3111 -0.0408 -0.2573
 2561SOL    HW1 8078   5.682   4.849   5.624  0.2129  0.0831  0.7446
 2561SOL    HW2 8079   5.693   4.727   5.536 -2.0761 -0.6870  1.4601
 2562SOL     OW 8080   2.305   1.729   6.860  0.0880  0.0483  0.3003
 2562SOL    HW1 8081   2.387   1.754   6.816  0.5081 -1.5028  0.1505
 2562SOL    HW2 8082   2.236   1.755   6.798  0.6390 -1.4418 -0.9940
 2563SOL     OW 8083   5.144   4.922   6.544 -0.2693  0.0624  0.3314
 2563SOL    HW1 8084   5.190   4.995   6.585  1.8129 -1.3327  0.6165
 2563SOL    HW2 8085   5.078   4.896   6.608 -0.1814  0.8667  0.7672
 2564SOL     OW 8086   5.164   5.625   6.431 -0.2193  0.0496 -0.5222
 2564SOL    HW1 8087   5.217   5.556   6.470 -0.8886 -0.5886 -0.7086
 2564SOL    HW2 8088   5.142   5.593   6.343 -1.4739 -0.0277 -0.2033
 2565SOL     OW 8089   5.258   4.578   6.550  0.1354 -0.3139 -0.0374
 2565SOL    HW1 8090   5.261   4.583   6.455 -1.5892  0.6122 -0.0686
 2565SOL    HW2 8091   5.230   4.665   6.578 -2.0190 -1.3300  1.1515
 2566SOL     OW 8092   1.304   0.901   6.251  0.2781 -0.0425 -0.4629
 2566SOL    HW1 8093   1.380   0.872   6.200  2.8077  1.3457  2.1570
 2566SOL    HW2 8094   1.303   0.842   6.326  0.1905  1.3161  0.6350
 2567SOL     OW 8095   3.440   0.658   0.985 -0.1384 -0.5942  0.8721
 2567SOL    HW1 8096   3.397   0.731   1.029  0.5878 -1.1544  2.6010
 2567SOL    HW2 8097   3.384   0.583   1.005 -0.6977 -0.5978 -0.6117
 2568SOL     OW 8098   4.203   2.726   2.766  0.0019  0.3285  0.4066
 2568SOL    HW1 8099   4.183   2.646   2.716  1.2548  1.0112 -1.2943
 2568SOL    HW2 8100   4.276   2.701   2.822 -0.4175 -0.0358  0.8030
 2569SOL     OW 8101   4.657   5.531   4.796 -0.7424  0.0582 -0.4771
 2569SOL    HW1 8102   4.584   5.593   4.787  0.0525  1.0366 -0.3619
 2569SOL    HW2 8103   4.641   5.487   4.880 -1.3128  0.1065 -0.5589
 2570SOL     OW 8104   2.161   4.058   5.391  0.3869  0.0242 -1.2755
 2570SOL    HW1 8105   2.079   4.066   5.439  1.1400 -2.7063  0.7085
 2570SOL    HW2 8106   2.196   4.147   5.389 -1.1226  0.7332  0.6492
 2571SOL     OW 8107   0.998   2.080   2.636 -0.2373 -0.0909 -0.2291
 2571SOL    HW1 8108   1.002   2.132   2.555 -0.3242 -1.9535 -1.5022
 2571SOL    HW2 8109   1.087   2.048   2.649 -0.2116  0.2434  0.4463
 2572SOL     OW 8110   0.907   3.721   4.469  0.1474 -0.2495  0.0435
 2572SOL    HW1 8111   0.920   3.627   4.481 -0.5263 -0.5110 -1.1297
 2572SOL    HW2 8112   0.911   3.757   4.557 -1.3977 -1.6157  0.7206
 2573SOL     OW 8113   5.065   4.199   0.551 -0.1409 -0.2949  0.2973
 2573SOL    HW1 8114   5.090   4.130   0.490  1.5485 -0.8245  1.5054
 2573SOL    HW2 8115   5.081   4.280   0.504  1.5497 -0.6868  0.1431
 2574SOL     OW 8116   3.429   6.934   3.309  0.2102 -0.2540  0.7311
 2574SOL    HW1 8117   3.431   7.013   3.256 -1.6416 -0.2893  0.5320
 2574SOL    HW2 8118   3.515   6.930   3.351  0.9026  0.9744 -0.5100
 2575SOL     OW 8119   4.810   4.269   0.398  0.4716 -0.8436  0.2098
 2575SOL    HW1 8120   4.757   4.241   0.324 -1.9394 -0.0553  1.5433
 2575SOL    HW2 8121   4.897   4.233   0.380 -0.1679 -1.1826 -2.6587
 2576SOL     OW 8122   5.976   5.788   1.794 -0.6060  0.1577 -0.0793
 2576SOL    HW1 8123   6.023   5.718   1.750 -0.6017  0.1730 -0.0998
 2576SOL    HW2 8124   6.041   5.827   1.852 -0.9174 -0.6118  0.8102
 2577SOL     OW 8125   1.208   6.425   1.416 -0.3145  0.1574  0.5370
 2577SOL    HW1 8126   1.265   6.384   1.481  2.5113 -1.1110 -2.4507
 2577SOL    HW2 8127   1.132   6.367   1.410  0.7122 -1.2525  0.7810
 2578SOL     OW 8128   0.481   3.720   1.355 -0.1465  0.1451  0.1454
 2578SOL    HW1 8129   0.560   3.766   1.385 -0.1683  0.3467 -0.1015
 2578SOL    HW2 8130   0.513   3.654   1.294 -0.0495 -0.6314  1.0142
 2579SOL     OW 8131   4.072   6.472   1.301  0.4626  0.0849  0.2841
 2579SOL    HW1 8132   4.110   6.546   1.347  0.7896  0.8984 -1.2134
 2579SOL    HW2 8133   4.069   6.500   1.209  0.1794 -1.5836 -0.2550
 2580SOL     OW 8134   5.464   4.251   1.466 -0.0947 -0.5063  0.0265
 2580SOL    HW1 8135   5.453   4.346   1.455 -1.1110 -0.4768  1.1350
 2580SOL    HW2 8136   5.443   4.235   1.557 -0.8549 -1.9392 -0.3800
 2581SOL     OW 8137   2.063   5.948   3.797  0.1430 -0.8639  0.0960
 2581SOL    HW1 8138   2.009   5.899   3.859  0.7559 -1.2440  0.3443
 2581SOL    HW2 8139   2.055   6.039   3.825  0.5546 -1.0546  0.8521
 2582SOL     OW 8140   5.948   5.701   5.511 -0.2561  0.5751  0.1801
 2582SOL    HW1 8141   5.930   5.678   5.602 -1.3046 -0.7553 -0.3204
 2582SOL    HW2 8142   5.911   5.628   5.461  1.5376  0.5766 -1.2442
 2583SOL     OW 8143   3.607   2.750   5.941  0.1807  0.1026 -0.4382
 2583SOL    HW1 8144   3.606   2.705   6.026 -0.6708 -0.4166 -0.7094
 2583SOL    HW2 8145   3.643   2.685   5.880  1.4651  0.7202 -0.3570
 2584SOL     OW 8146   1.232   6.357   3.809  0.2473  0.0245  0.1602
 2584SOL    HW1 8147   1.283   6.318   3.880 -0.5247  0.4403  0.9610
 2584SOL    HW2 8148   1.295   6.409   3.759  0.5102  1.1488  1.5820
 2585SOL     OW 8149   5.210   5.064   2.543  0.3475 -0.1516  0.1955
 2585SOL    HW1 8150   5.150   5.130   2.509  0.3694 -0.5570 -0.6508
 2585SOL    HW2 8151   5.164   4.981   2.531  0.9415 -0.4331 -0.1715
 2586SOL     OW 8152   4.108   3.606   3.264 -0.2168  0.1118 -0.5105
 2586SOL    HW1 8153   4.161   3.526   3.269  1.1786  0.8884 -1.8680
 2586SOL    HW2 8154   4.094   3.620   3.171 -0.9573  1.1344 -0.2620
 2587SOL     OW 8155   4.873   3.576   3.980  0.1558 -0.4332 -0.3777
 2587SOL    HW1 8156   4.841   3.665   3.998  0.5051  0.1454 -2.4004
 2587SOL    HW2 8157   4.826   3.549   3.901  1.5348 -1.2445 -0.9568
 2588SOL     OW 8158   2.506   0.298   0.311  0.1319  0.1648  0.3945
 2588SOL    HW1 8159   2.526   0.351   0.233 -1.0619 -0.2347 -0.2045
 2588SOL    HW2 8160   2.440   0.349   0.358  1.0145  0.5096  1.2845
 2589SOL     OW 8161   4.059   3.902   0.783 -0.8484  0.6649 -0.5313
 2589SOL    HW1 8162   4.091   3.924   0.696  1.3204 -1.0628 -0.2713
 2589SOL    HW2 8163   4.011   3.820   0.771 -0.1505  0.1725 -0.0710
 2590SOL     OW 8164   4.893   2.857   3.978  0.5840  0.0114  0.2140
 2590SOL    HW1 8165   4.859   2.768   3.982  0.2495 -0.0361 -2.0251
 2590SOL    HW2 8166   4.984   2.847   3.950  0.3404  0.3549 -0.7636
 2591SOL     OW 8167   0.767   3.040   6.652  0.6321  0.0924 -0.4803
 2591SOL    HW1 8168   0.806   3.020   6.737  1.5292  1.8955 -0.4008
 2591SOL    HW2 8169   0.690   3.092   6.672  0.7560  0.3893 -0.7510
 2592SOL     OW 8170   6.232   4.688   4.701  0.1352  0.4015  0.1523
 2592SOL    HW1 8171   6.265   4.767   4.743  0.0860 -1.0135  3.1521
 2592SOL    HW2 8172   6.143   4.710   4.675 -0.0850  1.2060  1.4820
 2593SOL     OW 8173   3.580   0.209   4.859  0.8181 -0.0145 -0.5349
 2593SOL    HW1 8174   3.643   0.138   4.845  2.2000  0.5530  2.1227
 2593SOL    HW2 8175   3.624   0.287   4.825  0.9119  0.1510 -0.0339
 2594SOL     OW 8176   6.206   3.258   1.471  0.0791  0.3058  0.0779
 2594SOL    HW1 8177   6.168   3.170   1.477 -0.1433  0.4192  0.3520
 2594SOL    HW2 8178   6.149   3.305   1.410  1.2112 -0.2573 -1.4959
 2595SOL     OW 8179   5.777   0.953   4.959  0.1570  0.3965  0.3062
 2595SOL    HW1 8180   5.767   0.987   5.048  1.0780  1.1286  0.1540
 2595SOL    HW2 8181   5.758   1.028   4.902  0.7197  0.2594 -0.0759
 2596SOL     OW 8182   0.565   4.405   1.882  0.8118 -0.4885 -0.1866
 2596SOL    HW1 8183   0.660   4.404   1.870  0.9358 -1.7209  0.7391
 2596SOL    HW2 8184   0.541   4.313   1.891 -0.2375 -0.1051  1.2483
 2597SOL     OW 8185   5.848   5.828   4.758 -0.5391  0.0471 -0.0047
 2597SOL    HW1 8186   5.867   5.907   4.808  0.8141 -0.4460  0.3091
 2597SOL    HW2 8187   5.753   5.829   4.746 -0.4931  2.0065 -0.5067
 2598SOL     OW 8188   2.798   2.728   3.897 -0.3641 -0.0796 -0.0285
 2598SOL    HW1 8189   2.822   2.761   3.811 -0.5022  0.6503  0.2074
 2598SOL    HW2 8190   2.724   2.781   3.924  0.7932  0.9378  1.3151
 2599SOL     OW 8191   4.753   3.478   5.543 -0.6177  0.1504  0.4055
 2599SOL    HW1 8192   4.760   3.513   5.454  0.9390 -0.4614  0.2608
 2599SOL    HW2 8193   4.822   3.522   5.592 -1.7909  0.8739  1.4822
 2600SOL     OW 8194   1.278   6.779   2.475  0.3693 -0.4292 -0.0380
 2600SOL    HW1 8195   1.185   6.776   2.496  0.5994 -2.8405  0.9960
 2600SOL    HW2 8196   1.284   6.838   2.399 -1.8653  0.3492  0.3154
 2601SOL     OW 8197   3.487   4.251   4.164 -0.5257 -0.8857  0.0093
 2601SOL    HW1 8198   3.553   4.313   4.132 -1.3988  0.7917  1.2660
 2601SOL    HW2 8199   3.414   4.306   4.192 -0.6063 -2.3018  2.9497
 2602SOL     OW 8200   1.175   2.058   1.948 -0.9337  0.0989  0.3554
 2602SOL    HW1 8201   1.102   2.104   1.908 -0.3419 -0.4842 -1.5244
 2602SOL    HW2 8202   1.149   1.966   1.947 -0.4443 -0.0417  0.2585
 2603SOL     OW 8203   3.544   2.855   2.181 -0.4761  0.0466  0.0234
 2603SOL    HW1 8204   3.552   2.896   2.267 -0.3816 -0.7518  0.4072
 2603SOL    HW2 8205   3.532   2.928   2.120 -1.9547  0.5361  0.8691
 2604SOL     OW 8206   3.563   1.760   6.819 -0.0757 -0.2788  0.1034
 2604SOL    HW1 8207   3.509   1.773   6.898 -0.0083  0.5128  0.0229
 2604SOL    HW2 8208   3.632   1.825   6.826 -0.9174  0.8122 -1.3555
 2605SOL     OW 8209   3.176   2.036   4.704 -0.8747  0.1186  0.0659
 2605SOL    HW1 8210   3.234   2.022   4.629  0.1453 -0.1339  0.8910
 2605SOL    HW2 8211   3.094   1.993   4.678  0.1138 -1.7930 -0.0904
 2606SOL     OW 8212   4.661   2.961   4.696  0.3759 -0.3817 -0.3226
 2606SOL    HW1 8213   4.647   2.954   4.790 -1.8870  1.3944 -0.4482
 2606SOL    HW2 8214   4.575   2.943   4.658  0.8980  0.4341 -1.9646
 2607SOL     OW 8215   5.783   5.836   4.370  0.5049 -0.4044 -0.2460
 2607SOL    HW1 8216   5.817   5.868   4.286  1.1948 -1.5637 -0.4362
 2607SOL    HW2 8217   5.693   5.809   4.350  0.4404 -0.0493 -0.4493
 2608SOL     OW 8218   6.538   1.550   1.080 -0.8198  0.2769  0.2109
 2608SOL    HW1 8219   6.563   1.614   1.147 -0.7246 -0.3904  0.8189
 2608SOL    HW2 8220   6.561   1.465   1.118  0.1423 -0.0611 -1.0494
 2609SOL     OW 8221   4.371   3.925   4.121  0.2149 -0.4966  0.0655
 2609SOL    HW1 8222   4.302   3.879   4.073  1.6808 -1.3437 -1.3203
 2609SOL    HW2 8223   4.408   3.987   4.058 -1.0219  1.9747  1.5954
 2610SOL     OW 8224   2.312   2.883   0.574  0.1791 -0.1863  0.3673
 2610SOL    HW1 8225   2.282   2.974   0.568  1.1276  0.0917 -0.4689
 2610SOL    HW2 8226   2.368   2.882   0.652 -0.8891 -0.3866  1.1499
 2611SOL     OW 8227   3.713   0.672   1.038  0.2605  0.0480 -0.1536
 2611SOL    HW1 8228   3.711   0.672   1.134 -1.1558  1.9099 -0.1254
 2611SOL    HW2 8229   3.623   0.651   1.012  0.0620  1.7122 -0.9859
 2612SOL     OW 8230   2.000   3.025   4.206  0.1109  0.6799  0.3474
 2612SOL    HW1 8231   2.073   3.051   4.262 -0.1715  2.0610  0.1153
 2612SOL    HW2 8232   2.039   2.965   4.142  1.2098  1.9068 -0.1886
 2613SOL     OW 8233   4.159   6.436   6.320 -0.6532 -0.0305  0.0542
 2613SOL    HW1 8234   4.122   6.471   6.239  0.7424  0.7248 -0.2918
 2613SOL    HW2 8235   4.090   6.446   6.385 -0.7643  2.1685 -0.3385
 2614SOL     OW 8236   3.754   6.126   2.758  0.2516 -0.2033 -0.3619
 2614SOL    HW1 8237   3.764   6.204   2.704 -0.9471  0.6265  0.5675
 2614SOL    HW2 8238   3.710   6.063   2.701 -2.4460  1.1885  0.0087
 2615SOL     OW 8239   0.730   0.652   0.179  0.6749  0.5930 -0.0090
 2615SOL    HW1 8240   0.684   0.648   0.263 -0.7785 -1.9783 -0.8104
 2615SOL    HW2 8241   0.795   0.583   0.185  1.2617  1.0839 -0.6426
 2616SOL     OW 8242   3.049   6.458   3.843 -0.4127  0.5391 -0.3497
 2616SOL    HW1 8243   3.016   6.528   3.788 -2.2597 -0.0506 -0.0547
 2616SOL    HW2 8244   3.016   6.378   3.803  0.6588 -0.0987 -0.0039
 2617SOL     OW 8245   4.567   1.711   2.246  0.1318  0.0526 -0.0883
 2617SOL    HW1 8246   4.630   1.669   2.187  0.9992  2.1801 -0.7715
 2617SOL    HW2 8247   4.615   1.722   2.328 -0.8407 -2.2474  0.8779
 2618SOL     OW 8248   5.587   3.152   3.462 -0.5864 -0.1904  0.9447
 2618SOL    HW1 8249   5.672   3.143   3.504 -0.9795 -2.4297  1.3655
 2618SOL    HW2 8250   5.603   3.209   3.387  1.0097  0.3830  1.6809
 2619SOL     OW 8251   3.726   4.037   0.661 -0.6947  0.0147 -0.1293
 2619SOL    HW1 8252   3.671   4.053   0.738  0.5334 -0.6685  0.9168
 2619SOL    HW2 8253   3.692   3.956   0.623 -0.7421 -0.1080  0.1805
 2620SOL     OW 8254   1.725   5.553   6.381 -0.0373  0.1478 -0.1572
 2620SOL    HW1 8255   1.636   5.583   6.398  0.2280  0.3445  0.9356
 2620SOL    HW2 8256   1.714   5.473   6.329 -0.8341  0.4212 -0.4167
 2621SOL     OW 8257   4.904   6.266   1.489 -0.6162  0.2990  0.2004
 2621SOL    HW1 8258   4.950   6.348   1.505  1.0004 -0.7646  1.3689
 2621SOL    HW2 8259   4.812   6.286   1.508 -0.1368  1.6249  1.2939
 2622SOL     OW 8260   2.792   3.089   2.856  0.0285  0.4023 -0.2594
 2622SOL    HW1 8261   2.730   3.109   2.786 -0.5671 -2.1917 -0.5744
 2622SOL    HW2 8262   2.878   3.094   2.814 -0.0464  2.2421 -0.2671
 2623SOL     OW 8263   2.296   5.559   2.954  0.5705 -0.4976  0.4787
 2623SOL    HW1 8264   2.283   5.465   2.966  1.0876 -0.9909 -2.1746
 2623SOL    HW2 8265   2.277   5.574   2.861  1.5493  1.8427  0.5933
 2624SOL     OW 8266   2.707   1.795   1.912  0.3197 -0.2865  0.7348
 2624SOL    HW1 8267   2.702   1.709   1.869 -0.6724  0.6404 -1.1118
 2624SOL    HW2 8268   2.732   1.855   1.842 -0.0091  1.1001  1.7724
 2625SOL     OW 8269   6.104   2.726   6.755 -0.1923 -0.5231  0.4387
 2625SOL    HW1 8270   6.014   2.753   6.776  0.1487  2.7785 -1.6151
 2625SOL    HW2 8271   6.097   2.684   6.669  0.3116  1.1412 -0.4651
 2626SOL     OW 8272   5.319   0.763   3.577  0.4269 -0.0070 -0.0423
 2626SOL    HW1 8273   5.282   0.824   3.641  0.9292 -0.3266  0.5505
 2626SOL    HW2 8274   5.410   0.751   3.604  0.1248 -1.6668  0.3357
 2627SOL     OW 8275   5.512   6.349   2.671 -0.0986  0.2792 -0.1604
 2627SOL    HW1 8276   5.547   6.266   2.637 -1.0176 -0.5252  0.7675
 2627SOL    HW2 8277   5.474   6.325   2.756  0.4551  1.8563  0.5480
 2628SOL     OW 8278   0.042   2.457   2.345  0.8108 -0.4641 -0.2356
 2628SOL    HW1 8279  -0.029   2.506   2.302  0.7887  0.1685  0.4937
 2628SOL    HW2 8280   0.008   2.440   2.433  1.1936 -0.9899 -0.1899
 2629SOL     OW 8281   1.769   0.423   2.216 -0.1007  0.0922  0.2403
 2629SOL    HW1 8282   1.855   0.460   2.236  0.4308  0.4292 -2.2922
 2629SOL    HW2 8283   1.747   0.459   2.130 -2.0308 -1.2923  0.0819
 2630SOL     OW 8284   3.943   4.216   3.863 -0.4014  0.0554 -0.2616
 2630SOL    HW1 8285   3.885   4.164   3.808 -0.7257 -0.0181  0.1376
 2630SOL    HW2 8286   3.949   4.166   3.945 -0.0775  0.2499 -0.1668
 2631SOL     OW 8287   1.667   2.921   3.530 -0.0175 -0.5769 -0.1140
 2631SOL    HW1 8288   1.640   2.846   3.584 -1.2166  0.1697  0.3603
 2631SOL    HW2 8289   1.755   2.943   3.562 -0.2168 -0.9125  0.6948
 2632SOL     OW 8290   6.842   0.531   0.088 -0.3431 -0.2059 -0.2380
 2632SOL    HW1 8291   6.937   0.524   0.094 -0.2991  1.2656  2.0084
 2632SOL    HW2 8292   6.827   0.593   0.017  0.3479 -0.6121 -0.7481
 2633SOL     OW 8293   5.698   6.821   0.037 -0.2013  0.0816  0.2209
 2633SOL    HW1 8294   5.749   6.892   0.076 -0.4106 -0.0848  0.8021
 2633SOL    HW2 8295   5.614   6.860   0.015  0.2523  0.4203 -0.9713
 2634SOL     OW 8296   5.934   0.259   0.914 -0.0646  0.2612  0.7170
 2634SOL    HW1 8297   5.987   0.216   0.847 -0.6282 -2.1073  1.6740
 2634SOL    HW2 8298   5.880   0.322   0.865 -1.2757 -2.1700 -1.3085
 2635SOL     OW 8299   1.968   2.403   5.188 -0.0463 -0.4656  0.1322
 2635SOL    HW1 8300   1.898   2.388   5.251 -1.7195  0.0837 -1.4877
 2635SOL    HW2 8301   1.948   2.345   5.115  0.0212  1.1176 -1.2186
 2636SOL     OW 8302   3.035   4.813   3.560  0.0341  0.4625 -0.6065
 2636SOL    HW1 8303   3.084   4.822   3.642 -0.0687  0.2033 -0.5138
 2636SOL    HW2 8304   3.072   4.880   3.502  0.6578  0.1304 -0.6130
 2637SOL     OW 8305   6.689   0.485   4.340  0.0739 -0.0822 -0.1408
 2637SOL    HW1 8306   6.698   0.564   4.393  1.0024  0.4920 -1.1216
 2637SOL    HW2 8307   6.704   0.413   4.401 -0.3399  0.5098  0.6723
 2638SOL     OW 8308   2.367   2.652   0.343 -0.0331 -0.2963 -0.4360
 2638SOL    HW1 8309   2.384   2.558   0.334  1.9180 -0.1121  0.8480
 2638SOL    HW2 8310   2.279   2.664   0.306 -0.6233 -2.7399  0.0042
 2639SOL     OW 8311   1.137   0.084   5.680 -0.1973 -0.3161 -0.2019
 2639SOL    HW1 8312   1.048   0.067   5.714  0.1635  1.1804  1.6976
 2639SOL    HW2 8313   1.124   0.154   5.616 -0.5286 -0.9678 -0.8553
 2640SOL     OW 8314   3.386   2.424   1.688 -1.0449 -0.3341 -0.0795
 2640SOL    HW1 8315   3.446   2.418   1.762  1.0939  0.2246 -1.6701
 2640SOL    HW2 8316   3.299   2.411   1.727 -0.0224 -0.1805  2.4727
 2641SOL     OW 8317   4.228   2.359   5.260  0.6074  0.2017 -0.3428
 2641SOL    HW1 8318   4.165   2.411   5.310  1.2999  0.3269  0.4418
 2641SOL    HW2 8319   4.261   2.419   5.193 -0.7894 -0.1547 -1.3813
 2642SOL     OW 8320   4.705   1.168   4.728 -0.5081  0.2406 -0.1253
 2642SOL    HW1 8321   4.623   1.156   4.679 -0.8444  0.3811  0.3907
 2642SOL    HW2 8322   4.677   1.182   4.818  0.0961  0.1743  0.0782
 2643SOL     OW 8323   2.328   5.743   0.606 -0.3376 -0.1016  0.0096
 2643SOL    HW1 8324   2.239   5.768   0.581 -1.3490 -2.4166  0.9542
 2643SOL    HW2 8325   2.347   5.666   0.552  1.1607  0.4192 -0.2425
 2644SOL     OW 8326   1.256   3.199   5.017  0.3114 -0.0699  0.1741
 2644SOL    HW1 8327   1.208   3.145   4.954  0.3843  0.8426 -0.6816
 2644SOL    HW2 8328   1.286   3.275   4.966 -1.7287  1.9714  1.7973
 2645SOL     OW 8329   3.124   2.272   0.143  0.3713  0.0946  0.6168
 2645SOL    HW1 8330   3.178   2.341   0.180  0.1511 -0.4187  1.9817
 2645SOL    HW2 8331   3.039   2.313   0.128  0.3229  0.2082  1.1606
 2646SOL     OW 8332   0.687   4.292   4.851 -0.2701 -0.0864  0.0716
 2646SOL    HW1 8333   0.682   4.261   4.942  0.0633  0.2669  0.2107
 2646SOL    HW2 8334   0.653   4.219   4.800 -1.5644  0.1399  0.5580
 2647SOL     OW 8335   4.903   3.229   3.556 -0.3615 -0.3946 -0.0340
 2647SOL    HW1 8336   4.917   3.141   3.589 -1.8513 -1.1023 -1.1481
 2647SOL    HW2 8337   4.880   3.280   3.633 -3.0365 -1.8424  0.2600
 2648SOL     OW 8338   4.815   4.588   6.127  0.3813  0.5067  0.8828
 2648SOL    HW1 8339   4.890   4.570   6.184  0.8984 -0.2485 -0.0012
 2648SOL    HW2 8340   4.820   4.520   6.059 -1.0232  0.5343  0.7231
 2649SOL     OW 8341   1.037   0.847   4.180 -0.1189  0.0276  0.1685
 2649SOL    HW1 8342   0.998   0.791   4.246 -1.4970 -0.8414 -1.3165
 2649SOL    HW2 8343   1.059   0.788   4.108  0.5701  1.0542 -0.4903
 2650SOL     OW 8344   3.028   3.108   2.148  0.1189  0.3106  0.2045
 2650SOL    HW1 8345   3.029   3.117   2.243 -4.5163 -1.8243  0.7254
 2650SOL    HW2 8346   3.049   3.016   2.132 -1.0798  0.1548 -0.5961
 2651SOL     OW 8347   1.198   1.844   4.107 -0.2203  0.3791 -0.5608
 2651SOL    HW1 8348   1.256   1.768   4.102  0.1532  0.3373  2.3841
 2651SOL    HW2 8349   1.113   1.811   4.077 -0.2605 -1.5102  1.3980
 2652SOL     OW 8350   0.926   2.695   1.608 -0.1278  0.0144  0.4032
 2652SOL    HW1 8351   0.831   2.699   1.606 -0.0967  1.6624  1.0552
 2652SOL    HW2 8352   0.955   2.777   1.568  0.9780  0.3988  1.9104
 2653SOL     OW 8353   1.656   0.695   2.446 -0.3299 -0.0216 -0.2564
 2653SOL    HW1 8354   1.667   0.695   2.351 -1.2060 -0.4759 -0.3753
 2653SOL    HW2 8355   1.700   0.616   2.475  1.5991  1.0885 -0.0435
 2654SOL     OW 8356   2.461   1.554   4.849 -0.7643  0.2048  0.3313
 2654SOL    HW1 8357   2.424   1.595   4.926  0.9455  0.4166  1.1010
 2654SOL    HW2 8358   2.502   1.626   4.801 -0.3333 -0.1618  0.1360
 2655SOL     OW 8359   1.656   1.738   0.375  0.2885 -0.1446  0.6743
 2655SOL    HW1 8360   1.709   1.685   0.315  0.2021  0.5069 -0.0022
 2655SOL    HW2 8361   1.566   1.727   0.342  0.4480  1.6853 -0.4985
 2656SOL     OW 8362   4.334   0.313   0.968 -0.9993  0.7352 -0.2142
 2656SOL    HW1 8363   4.296   0.296   1.054 -0.0522  0.4314  0.1484
 2656SOL    HW2 8364   4.284   0.256   0.909 -0.6913 -0.1466  0.3529
 2657SOL     OW 8365   0.343   6.483   2.126  0.4773  0.1817  0.2765
 2657SOL    HW1 8366   0.362   6.460   2.217  0.0687 -0.2185  0.2610
 2657SOL    HW2 8367   0.276   6.551   2.132  1.5056  1.2180  0.3140
 2658SOL     OW 8368   1.614   0.451   1.964 -0.0241  0.3601 -0.3279
 2658SOL    HW1 8369   1.611   0.362   1.931  3.7741  0.1170 -0.4557
 2658SOL    HW2 8370   1.606   0.506   1.886  1.6123 -0.0344 -0.8102
 2659SOL     OW 8371   4.844   6.910   0.378  0.6803  0.3082 -0.1210
 2659SOL    HW1 8372   4.918   6.961   0.344  1.1423 -0.7548 -0.7533
 2659SOL    HW2 8373   4.800   6.969   0.439  1.3148  1.3927 -0.6887
 2660SOL     OW 8374   1.868   2.961   2.366  0.2372 -0.2893 -0.1614
 2660SOL    HW1 8375   1.897   3.019   2.296 -0.3704  1.2284  0.7834
 2660SOL    HW2 8376   1.896   2.874   2.339 -0.8392  0.0863 -2.7518
 2661SOL     OW 8377   0.501   6.492   6.485 -0.1015  0.3325  0.1430
 2661SOL    HW1 8378   0.508   6.482   6.390  1.3723 -1.0492  0.3504
 2661SOL    HW2 8379   0.550   6.572   6.504  1.3080 -0.4383 -0.1048
 2662SOL     OW 8380   1.885   3.960   4.528  0.0790  0.1897 -0.3070
 2662SOL    HW1 8381   1.804   3.909   4.533 -1.6595  2.8177  0.5740
 2662SOL    HW2 8382   1.888   4.008   4.611  1.9528  1.0353 -0.8111
 2663SOL     OW 8383   4.263   4.347   5.620  0.2067  0.3664  0.1517
 2663SOL    HW1 8384   4.185   4.370   5.671  1.6018  0.9986  2.1427
 2663SOL    HW2 8385   4.272   4.419   5.557 -1.8342 -0.6823 -1.4744
 2664SOL     OW 8386   1.068   1.345   3.373  0.5360  0.2344  0.2025
 2664SOL    HW1 8387   1.155   1.331   3.411  0.0880  1.0733  1.6182
 2664SOL    HW2 8388   1.084   1.386   3.288  1.5508 -0.8345 -0.1450
 2665SOL     OW 8389   5.019   6.617   6.103  0.2336 -0.2834 -0.2917
 2665SOL    HW1 8390   5.021   6.611   6.008 -1.2658 -1.6468 -0.2792
 2665SOL    HW2 8391   5.012   6.711   6.121  0.6738 -0.0005 -1.5069
 2666SOL     OW 8392   2.856   3.511   6.274  0.2748 -0.3107  0.1683
 2666SOL    HW1 8393   2.817   3.429   6.244  0.1793  0.3033 -1.4674
 2666SOL    HW2 8394   2.823   3.522   6.364 -0.8868 -1.3199 -0.1110
 2667SOL     OW 8395   1.712   1.743   2.522  0.1461  0.1395  0.0805
 2667SOL    HW1 8396   1.686   1.677   2.459 -0.0674 -0.0501  0.3645
 2667SOL    HW2 8397   1.799   1.716   2.550  0.6108  0.7035 -0.7736
 2668SOL     OW 8398   3.739   3.605   6.827  0.2806 -0.1165  0.1323
 2668SOL    HW1 8399   3.778   3.668   6.889 -0.5521 -0.0810  0.6293
 2668SOL    HW2 8400   3.667   3.653   6.787 -0.2407 -0.6883  0.3733
 2669SOL     OW 8401   0.342   5.911   1.062  0.5659 -0.5309  0.4564
 2669SOL    HW1 8402   0.407   5.925   0.994 -1.7524  0.5629 -1.7191
 2669SOL    HW2 8403   0.329   5.816   1.064 -1.8946 -0.4969 -3.4622
 2670SOL     OW 8404   5.382   3.690   3.170  0.6586 -0.1275 -0.0085
 2670SOL    HW1 8405   5.386   3.603   3.209 -2.0650 -0.5621 -0.5075
 2670SOL    HW2 8406   5.419   3.680   3.083  1.1121 -0.6029  0.2368
 2671SOL     OW 8407   0.216   1.206   2.210  0.2097  0.3964 -0.1912
 2671SOL    HW1 8408   0.206   1.275   2.276  0.6507  0.7748 -0.5133
 2671SOL    HW2 8409   0.298   1.227   2.165 -0.4347  0.5667 -1.3377
 2672SOL     OW 8410   6.247   1.731   5.053 -0.1581  0.3671  0.7109
 2672SOL    HW1 8411   6.255   1.647   5.007 -0.1769  0.5475  0.3789
 2672SOL    HW2 8412   6.259   1.708   5.146  0.8613  0.1384  0.5420
 2673SOL     OW 8413   5.224   3.288   3.510 -0.0867  0.1771 -0.3185
 2673SOL    HW1 8414   5.161   3.329   3.569 -1.9893 -0.9922 -1.4255
 2673SOL    HW2 8415   5.245   3.204   3.552 -0.6615 -0.2160 -0.8126
 2674SOL     OW 8416   2.261   2.225   6.078 -0.5852 -0.1197  0.1114
 2674SOL    HW1 8417   2.262   2.134   6.048 -0.9965 -0.0165 -0.2357
 2674SOL    HW2 8418   2.173   2.256   6.055  0.4085  1.1942 -2.2824
 2675SOL     OW 8419   3.104   1.337   0.789 -0.0485  0.7618 -0.0361
 2675SOL    HW1 8420   3.033   1.349   0.852  1.3439 -0.4406  1.8658
 2675SOL    HW2 8421   3.182   1.369   0.835  0.8509  0.9339 -1.6196
 2676SOL     OW 8422   0.672   3.202   6.940 -0.1997  0.1084 -0.0643
 2676SOL    HW1 8423   0.723   3.121   6.938  1.1690  0.9513 -0.7634
 2676SOL    HW2 8424   0.694   3.246   6.858 -1.9391  0.6010 -0.3030
 2677SOL     OW 8425   3.494   6.876   2.462 -0.0904 -0.5537 -0.3105
 2677SOL    HW1 8426   3.470   6.902   2.373  1.2074  0.5369 -0.3773
 2677SOL    HW2 8427   3.414   6.887   2.513 -0.3711  0.6099 -0.9739
 2678SOL     OW 8428   2.146   6.878   5.936 -0.3572  0.4984  0.6220
 2678SOL    HW1 8429   2.083   6.906   6.003  0.2900  0.3552  1.3042
 2678SOL    HW2 8430   2.204   6.954   5.925  0.1001  0.1981  0.9089
 2679SOL     OW 8431   1.559   5.706   0.444  0.0203  0.0739 -0.1515
 2679SOL    HW1 8432   1.499   5.632   0.445 -1.2976  0.8668 -3.8952
 2679SOL    HW2 8433   1.512   5.776   0.490  0.3858 -0.7321  1.5196
 2680SOL     OW 8434   5.017   0.188   4.839 -0.3602  0.3583  0.3117
 2680SOL    HW1 8435   4.954   0.196   4.911 -1.1591 -1.2283 -0.1585
 2680SOL    HW2 8436   5.071   0.113   4.864  0.3464  0.7440 -0.0401
 2681SOL     OW 8437   1.381   4.643   4.048  0.6559 -0.3437  0.1273
 2681SOL    HW1 8438   1.457   4.698   4.069 -0.8775  0.9421  2.9541
 2681SOL    HW2 8439   1.380   4.577   4.117 -0.6079 -0.5364 -0.0531
 2682SOL     OW 8440   6.196   4.971   6.061  0.0289  0.0473 -0.9520
 2682SOL    HW1 8441   6.187   4.901   5.996  1.8595 -0.3104 -0.8755
 2682SOL    HW2 8442   6.260   4.937   6.123 -0.6760  0.9431  0.2937
 2683SOL     OW 8443   6.508   2.217   6.909 -0.4225 -0.1582  0.1457
 2683SOL    HW1 8444   6.492   2.134   6.865  0.5607 -0.2951  0.0267
 2683SOL    HW2 8445   6.564   2.266   6.848 -0.3030  0.2551  0.5824
 2684SOL     OW 8446   0.061   0.738   6.623  0.6038 -0.3606  0.3655
 2684SOL    HW1 8447   0.106   0.748   6.707  2.7924  1.8339 -0.9400
 2684SOL    HW2 8448   0.125   0.697   6.565  0.0505  0.4684 -0.8932
 2685SOL     OW 8449   2.326   5.693   6.500 -0.0417  0.0752  0.1068
 2685SOL    HW1 8450   2.398   5.667   6.558 -0.1037 -0.0862  0.1107
 2685SOL    HW2 8451   2.364   5.689   6.412  0.4250  1.5166  0.2076
 2686SOL     OW 8452   2.370   3.851   3.161  0.3622  0.1667  0.1666
 2686SOL    HW1 8453   2.311   3.851   3.086  1.2438 -1.5440 -0.5864
 2686SOL    HW2 8454   2.353   3.768   3.206 -0.1889  1.1770  1.9392
 2687SOL     OW 8455   0.135   2.103   0.589  0.3052  0.5212  0.2967
 2687SOL    HW1 8456   0.109   2.195   0.590  1.1667  0.8213 -1.4971
 2687SOL    HW2 8457   0.138   2.078   0.682 -1.3554  1.8561  0.7676
 2688SOL     OW 8458   2.656   1.222   5.804  0.5044  0.1121 -0.3368
 2688SOL    HW1 8459   2.688   1.137   5.834 -0.7585 -0.5938 -0.9032
 2688SOL    HW2 8460   2.655   1.276   5.883  3.5412  0.3848 -0.3744
 2689SOL     OW 8461   2.876   2.920   2.442 -0.1466  0.1946 -0.5936
 2689SOL    HW1 8462   2.784   2.894   2.446 -0.6264  1.9140  0.6042
 2689SOL    HW2 8463   2.920   2.860   2.502 -1.0217  1.1941  1.1356
 2690SOL     OW 8464   5.578   6.764   2.588  0.1820  0.3607  0.3360
 2690SOL    HW1 8465   5.641   6.837   2.591  0.1576  0.3777  0.4350
 2690SOL    HW2 8466   5.499   6.802   2.549  1.4158 -0.5347 -3.4607
 2691SOL     OW 8467   4.646   6.384   2.814  0.1041  0.5125  0.5858
 2691SOL    HW1 8468   4.573   6.422   2.864 -0.3777  0.4667 -0.0713
 2691SOL    HW2 8469   4.610   6.305   2.774  0.9704 -0.4060  1.5538
 2692SOL     OW 8470   1.780   4.625   4.555  0.7575 -0.2174  0.5824
 2692SOL    HW1 8471   1.869   4.602   4.530 -0.3424 -2.4170 -1.8188
 2692SOL    HW2 8472   1.731   4.627   4.473 -1.4472  0.7259  1.8281
 2693SOL     OW 8473   2.749   3.475   1.313 -0.2147  0.0098 -0.4498
 2693SOL    HW1 8474   2.710   3.393   1.282 -0.5298 -0.1266  0.2837
 2693SOL    HW2 8475   2.716   3.485   1.403  1.6406 -0.2456  0.3035
 2694SOL     OW 8476   6.534   4.711   0.575 -0.5153 -0.0502  0.3818
 2694SOL    HW1 8477   6.480   4.769   0.629  0.6198 -0.6042  2.1857
 2694SOL    HW2 8478   6.605   4.684   0.633  0.2644 -1.3893 -1.1429
 2695SOL     OW 8479   4.340   5.322   1.690  0.2876  0.4534 -0.0953
 2695SOL    HW1 8480   4.392   5.350   1.615 -0.8016  0.0871 -1.0107
 2695SOL    HW2 8481   4.288   5.249   1.657  1.0654 -0.8775  1.4975
 2696SOL     OW 8482   2.021   5.580   5.469 -0.2089 -0.3193 -0.2683
 2696SOL    HW1 8483   1.990   5.545   5.385  0.0595  1.1617 -1.0342
 2696SOL    HW2 8484   2.082   5.649   5.444 -0.5525  0.5329  1.1525
 2697SOL     OW 8485   2.552   6.935   0.923  0.1097  0.0289 -0.5409
 2697SOL    HW1 8486   2.592   6.995   0.985 -2.9378 -0.3485  2.0379
 2697SOL    HW2 8487   2.462   6.966   0.914 -0.0914 -1.0810 -3.3751
 2698SOL     OW 8488   4.242   5.492   0.605 -0.1140  0.0578 -0.0156
 2698SOL    HW1 8489   4.216   5.561   0.666  0.5020  1.0852 -0.8822
 2698SOL    HW2 8490   4.163   5.439   0.593 -1.3275  1.9645 -1.0972
 2699SOL     OW 8491   6.640   2.291   4.441  0.2584 -0.1934 -0.2767
 2699SOL    HW1 8492   6.718   2.336   4.406  1.0621 -0.8067  0.6676
 2699SOL    HW2 8493   6.624   2.220   4.378  0.8545 -0.4393 -0.1693
 2700SOL     OW 8494   1.451   2.593   2.579  0.3432 -0.4551  0.3339
 2700SOL    HW1 8495   1.397   2.665   2.612  0.7908 -0.3542  0.8461
 2700SOL    HW2 8496   1.503   2.565   2.654  0.7901 -0.7492 -0.0808
 2701SOL     OW 8497   2.948   6.065   3.112  0.0188  0.0387  0.3557
 2701SOL    HW1 8498   3.030   6.110   3.130 -0.0725 -0.6093  2.7230
 2701SOL    HW2 8499   2.967   5.972   3.126 -0.8828 -0.2282 -0.0694
 2702SOL     OW 8500   3.765   3.180   2.229  0.1988  0.3006  0.0514
 2702SOL    HW1 8501   3.672   3.157   2.233  0.6218 -1.5648 -0.1691
 2702SOL    HW2 8502   3.806   3.105   2.186  1.7139  1.4208 -0.5223
 2703SOL     OW 8503   4.133   5.587   5.851 -0.2297  0.0742 -0.3068
 2703SOL    HW1 8504   4.061   5.647   5.870 -0.8898 -1.0757  1.0043
 2703SOL    HW2 8505   4.103   5.534   5.778 -0.7563 -0.4194  0.2532
 2704SOL     OW 8506   2.895   2.094   6.857  0.2203  0.2247  0.1008
 2704SOL    HW1 8507   2.950   2.142   6.918  0.9835 -0.0684 -0.3427
 2704SOL    HW2 8508   2.818   2.150   6.844  0.2366  0.4680  1.0070
 2705SOL     OW 8509   0.522   2.697   0.726  0.4292  0.0802 -0.8571
 2705SOL    HW1 8510   0.470   2.695   0.646 -1.3052  0.1988  0.1954
 2705SOL    HW2 8511   0.599   2.750   0.705 -0.3120  0.6356 -2.2462
 2706SOL     OW 8512   3.001   3.476   2.319 -0.1087  0.1378 -0.1030
 2706SOL    HW1 8513   2.964   3.564   2.322  1.3163  0.7350  1.3063
 2706SOL    HW2 8514   3.081   3.485   2.267 -0.5708 -0.6071 -0.9826
 2707SOL     OW 8515   6.039   1.221   3.131  0.1507  0.5036  0.8912
 2707SOL    HW1 8516   6.063   1.312   3.149  3.2353 -0.2591  1.1405
 2707SOL    HW2 8517   6.123   1.175   3.125 -1.2700 -2.1061 -0.4929
 2708SOL     OW 8518   6.796   6.759   6.541  0.1510  0.0716 -0.1629
 2708SOL    HW1 8519   6.724   6.755   6.479 -0.8244  3.1189  0.6089
 2708SOL    HW2 8520   6.839   6.843   6.523  1.0907  0.1076  1.9226
 2709SOL     OW 8521   0.457   4.354   1.327 -0.1542 -0.1500  0.4554
 2709SOL    HW1 8522   0.386   4.417   1.319 -0.2803 -0.4983 -2.7210
 2709SOL    HW2 8523   0.456   4.306   1.244  2.4601 -1.6143  1.1390
 2710SOL     OW 8524   5.215   4.787   3.381  0.1840  0.0882  0.5943
 2710SOL    HW1 8525   5.271   4.721   3.341  0.5096  0.4968  0.3673
 2710SOL    HW2 8526   5.154   4.812   3.312 -0.0720 -0.1261  0.7434
 2711SOL     OW 8527   5.613   2.930   3.151 -0.1621  0.1769  0.4604
 2711SOL    HW1 8528   5.571   3.016   3.164 -0.2845  0.2930 -0.6110
 2711SOL    HW2 8529   5.562   2.889   3.081  0.5907 -0.3097  0.1918
 2712SOL     OW 8530   3.225   5.455   1.831  0.0072  0.2732  0.1172
 2712SOL    HW1 8531   3.206   5.362   1.822 -0.7680  0.4206  0.1564
 2712SOL    HW2 8532   3.144   5.492   1.867  0.0540  1.0645 -0.5549
 2713SOL     OW 8533   3.257   2.445   1.374  0.1576 -0.4023  0.4437
 2713SOL    HW1 8534   3.306   2.433   1.456  0.2177  0.3879  0.5273
 2713SOL    HW2 8535   3.324   2.471   1.310  0.1178 -1.0531  0.1220
 2714SOL     OW 8536   2.520   4.134   5.350 -0.1471 -0.1225  0.0181
 2714SOL    HW1 8537   2.439   4.171   5.385  1.7563  1.1136  3.7045
 2714SOL    HW2 8538   2.560   4.205   5.300  0.1461  0.3926  0.9689
 2715SOL     OW 8539   0.629   4.896   3.854 -0.2396 -0.1486 -0.3114
 2715SOL    HW1 8540   0.618   4.897   3.949 -1.2281  0.9379 -0.4084
 2715SOL    HW2 8541   0.619   4.988   3.828 -0.6704 -0.5164 -1.5266
 2716SOL     OW 8542   6.271   4.150   5.645 -0.1933 -0.1724  0.8276
 2716SOL    HW1 8543   6.248   4.236   5.680  1.2094  0.1025  1.0967
 2716SOL    HW2 8544   6.191   4.121   5.601 -0.7966  1.1145  1.0197
 2717SOL     OW 8545   4.506   0.085   1.037 -0.1424 -0.0501  0.3385
 2717SOL    HW1 8546   4.471   0.122   0.956  0.6963  0.0077 -0.0052
 2717SOL    HW2 8547   4.600   0.080   1.023 -0.2600 -3.2625 -0.0532
 2718SOL     OW 8548   0.115   3.509   0.772 -0.6088  0.2007 -0.4546
 2718SOL    HW1 8549   0.150   3.585   0.819 -2.2140 -0.5817  2.2408
 2718SOL    HW2 8550   0.173   3.499   0.697  1.3955  2.3477  0.6554
 2719SOL     OW 8551   0.645   2.591   3.027 -0.0842 -0.1602 -0.2734
 2719SOL    HW1 8552   0.635   2.497   3.042 -0.9504 -0.0718 -0.2317
 2719SOL    HW2 8553   0.557   2.627   3.041  0.7335  1.0433  2.4104
 2720SOL     OW 8554   4.921   6.290   2.870  0.2028 -0.2036 -0.6994
 2720SOL    HW1 8555   4.956   6.271   2.957  3.5781 -0.3069 -1.8896
 2720SOL    HW2 8556   4.836   6.329   2.885  0.2731 -1.0741  2.5762
 2721SOL     OW 8557   4.876   0.773   2.982 -0.0318 -0.1316 -0.2160
 2721SOL    HW1 8558   4.820   0.742   3.053  1.5861 -1.6985  0.4599
 2721SOL    HW2 8559   4.815   0.798   2.912 -1.5859 -0.7756  0.8563
 2722SOL     OW 8560   0.935   5.786   3.442 -0.1060  0.0471  0.1140
 2722SOL    HW1 8561   0.847   5.811   3.471  0.2573  1.3511  0.1627
 2722SOL    HW2 8562   0.955   5.706   3.490 -1.5200 -0.6297 -0.3779
 2723SOL     OW 8563   4.515   3.927   1.112 -0.3324  0.2555 -0.6182
 2723SOL    HW1 8564   4.479   3.980   1.041 -1.0803 -1.1579 -1.3437
 2723SOL    HW2 8565   4.589   3.881   1.072 -0.6157 -0.3752 -0.4335
 2724SOL     OW 8566   6.629   1.412   3.557 -0.1955  0.8524 -0.0781
 2724SOL    HW1 8567   6.554   1.470   3.545 -0.5353  1.4337  3.5495
 2724SOL    HW2 8568   6.594   1.324   3.543 -0.5324  1.2675 -2.1661
 2725SOL     OW 8569   5.801   3.349   6.945 -0.4626 -0.2409  0.3829
 2725SOL    HW1 8570   5.850   3.419   6.902 -1.9267  0.9546  0.5705
 2725SOL    HW2 8571   5.839   3.269   6.910  0.0976  0.6580 -1.2100
 2726SOL     OW 8572   5.603   5.820   5.622 -0.9414  0.4025  0.2785
 2726SOL    HW1 8573   5.658   5.873   5.680 -0.6104 -0.3545  0.6652
 2726SOL    HW2 8574   5.550   5.884   5.575  1.0010  1.2588 -0.8893
 2727SOL     OW 8575   0.691   3.178   5.655  0.1573  0.5288 -0.5585
 2727SOL    HW1 8576   0.619   3.213   5.707  1.2126  1.7380  0.1364
 2727SOL    HW2 8577   0.723   3.253   5.605  1.3096  0.1423 -0.4110
 2728SOL     OW 8578   6.317   5.187   2.276 -0.6277  0.1373 -0.0913
 2728SOL    HW1 8579   6.410   5.203   2.289 -1.1049  3.1367  0.1854
 2728SOL    HW2 8580   6.280   5.186   2.365 -1.0549  0.4096 -0.2611
 2729SOL     OW 8581   5.519   1.662   5.277  0.1818 -0.3841  0.2653
 2729SOL    HW1 8582   5.436   1.647   5.231  0.0063  0.9003  0.1111
 2729SOL    HW2 8583   5.508   1.617   5.361 -0.5535 -0.5183  0.1080
 2730SOL     OW 8584   6.892   1.492   2.199  0.0258 -0.2297 -0.0073
 2730SOL    HW1 8585   6.897   1.430   2.272  0.4398  0.9756  1.0070
 2730SOL    HW2 8586   6.833   1.561   2.230  0.5235  0.5017 -0.6586
 2731SOL     OW 8587   6.599   0.584   1.373  0.2620  0.6753  0.0323
 2731SOL    HW1 8588   6.507   0.607   1.380  0.2677  0.4130  1.1514
 2731SOL    HW2 8589   6.640   0.660   1.331 -0.5282  0.5958 -0.9116
 2732SOL     OW 8590   4.385   3.225   3.141  0.5956 -0.0684  0.5072
 2732SOL    HW1 8591   4.370   3.319   3.157  2.0240 -0.1350  2.6191
 2732SOL    HW2 8592   4.320   3.181   3.195 -0.7662 -0.3348 -1.2933
 2733SOL     OW 8593   1.913   6.414   4.896  0.0041  0.2184  0.4216
 2733SOL    HW1 8594   1.996   6.386   4.857  0.8276  2.3569  0.5144
 2733SOL    HW2 8595   1.860   6.441   4.821  0.2880  1.0605  0.5160
 2734SOL     OW 8596   0.478   1.020   5.423  1.0106 -0.0897 -0.1707
 2734SOL    HW1 8597   0.417   1.064   5.482  0.8088  0.2227 -0.6101
 2734SOL    HW2 8598   0.528   1.091   5.383 -1.5503  0.1099 -3.4254
 2735SOL     OW 8599   1.178   5.977   0.019  0.4110 -0.1856 -0.3388
 2735SOL    HW1 8600   1.098   5.963  -0.032 -0.1708 -1.8925  0.9291
 2735SOL    HW2 8601   1.235   6.027  -0.039 -0.9379 -0.3852 -1.9171
 2736SOL     OW 8602   2.228   5.349   0.960  0.2068 -0.2958  0.1654
 2736SOL    HW1 8603   2.221   5.301   1.043  1.3303 -1.8249 -0.5644
 2736SOL    HW2 8604   2.322   5.369   0.953 -0.2289  2.2121  0.4959
 2737SOL     OW 8605   4.667   5.230   4.492 -0.3538 -0.0356  0.2903
 2737SOL    HW1 8606   4.592   5.287   4.510 -2.1757 -1.5696 -1.9520
 2737SOL    HW2 8607   4.650   5.152   4.544 -0.4883 -0.5026 -0.4459
 2738SOL     OW 8608   6.615   2.648   0.771  0.1589 -0.0533 -0.1858
 2738SOL    HW1 8609   6.585   2.661   0.681 -0.9163  1.2157  0.3223
 2738SOL    HW2 8610   6.608   2.735   0.811  3.5052  0.1088  0.3090
 2739SOL     OW 8611   5.513   0.149   6.327  0.0857 -0.0846 -0.1228
 2739SOL    HW1 8612   5.466   0.179   6.249  1.9558 -0.7051 -1.5810
 2739SOL    HW2 8613   5.605   0.149   6.300  0.7668 -0.5735  2.0278
 2740SOL     OW 8614   5.507   3.352   0.766  0.6866  0.5412  0.5785
 2740SOL    HW1 8615   5.596   3.386   0.755  0.9211  0.0225  0.8346
 2740SOL    HW2 8616   5.456   3.427   0.794  1.1531  0.7291  0.9397
 2741SOL     OW 8617   6.705   0.019   5.495  0.0757  0.1455 -0.0948
 2741SOL    HW1 8618   6.657   0.076   5.555 -2.8681 -0.9138 -1.2201
 2741SOL    HW2 8619   6.752   0.079   5.437 -0.5698  1.3279  0.5576
 2742SOL     OW 8620   5.432   2.105   4.134  0.1664 -0.4999 -0.6290
 2742SOL    HW1 8621   5.348   2.096   4.178  0.5607 -1.7334 -0.0985
 2742SOL    HW2 8622   5.469   2.017   4.133  1.6991  0.1060 -0.3582
 2743SOL     OW 8623   6.076   0.535   6.398  0.3089  0.7043 -0.3091
 2743SOL    HW1 8624   6.138   0.592   6.443 -0.2086  0.3049  0.9461
 2743SOL    HW2 8625   6.122   0.452   6.388 -0.5686 -0.1653  2.2180
 2744SOL     OW 8626   1.031   4.676   6.909 -0.3604  0.1522 -0.2142
 2744SOL    HW1 8627   1.050   4.700   6.818 -0.9071  0.7556 -0.1771
 2744SOL    HW2 8628   0.942   4.709   6.925 -0.2650  0.0691  0.5408
 2745SOL     OW 8629   5.006   3.750   4.709  0.0168 -0.0119 -0.1802
 2745SOL    HW1 8630   4.922   3.787   4.738  0.6847  1.1271  0.3720
 2745SOL    HW2 8631   5.014   3.777   4.617 -0.2562 -0.2027 -0.2618
 2746SOL     OW 8632   5.791   2.055   0.372 -0.1766  0.2439 -0.2017
 2746SOL    HW1 8633   5.797   2.086   0.462 -1.4064 -0.5306  0.1735
 2746SOL    HW2 8634   5.711   2.094   0.337 -0.4178 -0.5062 -0.5220
 2747SOL     OW 8635   0.430   1.694   3.776 -0.1367  0.1360  0.4187
 2747SOL    HW1 8636   0.476   1.639   3.713  0.6828 -0.5118  1.5501
 2747SOL    HW2 8637   0.337   1.679   3.757  0.0810 -1.1020  0.2326
 2748SOL     OW 8638   4.756   1.572   1.715 -0.7562  0.4744 -0.6928
 2748SOL    HW1 8639   4.838   1.597   1.671 -0.6923 -0.8549 -1.3743
 2748SOL    HW2 8640   4.725   1.495   1.667 -0.6137 -1.1542  1.6617
 2749SOL     OW 8641   3.090   5.257   0.944 -0.0102  0.0856 -0.2560
 2749SOL    HW1 8642   3.014   5.229   0.996 -0.3593  0.0141 -0.7942
 2749SOL    HW2 8643   3.124   5.332   0.991 -0.3644  0.0653  0.0429
 2750SOL     OW 8644   1.017   3.077   1.507 -0.0522 -0.7119 -0.5685
 2750SOL    HW1 8645   0.983   3.160   1.474  0.1509 -0.9899 -1.4989
 2750SOL    HW2 8646   1.018   3.019   1.431  0.6912 -1.2926 -0.1340
 2751SOL     OW 8647   3.441   6.303   4.729  0.1461 -0.5801 -0.0394
 2751SOL    HW1 8648   3.356   6.263   4.713 -0.8180  0.5380  1.9144
 2751SOL    HW2 8649   3.477   6.319   4.641 -2.0542 -0.2538 -0.9499
 2752SOL     OW 8650   4.495   4.180   0.976 -0.2990  0.3887  0.9434
 2752SOL    HW1 8651   4.533   4.230   1.048  0.0823  2.2913 -0.4908
 2752SOL    HW2 8652   4.567   4.171   0.913 -0.7468 -0.8434  0.5672
 2753SOL     OW 8653   5.719   1.894   2.091  0.8622 -0.1116  0.4077
 2753SOL    HW1 8654   5.641   1.847   2.123  0.6327  0.9737  1.5502
 2753SOL    HW2 8655   5.712   1.891   1.996 -0.1945 -0.6551  0.4871
 2754SOL     OW 8656   4.653   2.036   5.576 -0.4309  0.4001  0.1047
 2754SOL    HW1 8657   4.687   2.031   5.666 -1.6675  2.1934  0.7267
 2754SOL    HW2 8658   4.566   1.997   5.581 -1.8938  3.4160  0.5410
 2755SOL     OW 8659   0.338   1.538   4.054  0.7502  0.0666 -0.1428
 2755SOL    HW1 8660   0.408   1.603   4.044  0.3906  0.3985 -0.5347
 2755SOL    HW2 8661   0.258   1.589   4.061  0.5671 -0.3049  0.5796
 2756SOL     OW 8662   0.974   0.483   0.701  0.1383  0.5259  0.0457
 2756SOL    HW1 8663   1.018   0.398   0.699  2.0765  1.4399  1.0867
 2756SOL    HW2 8664   0.917   0.482   0.625  1.7287 -0.8977 -1.2142
 2757SOL     OW 8665   4.682   4.385   2.180 -0.4111  0.6499 -0.0662
 2757SOL    HW1 8666   4.643   4.428   2.104  0.9866  1.1308 -0.5562
 2757SOL    HW2 8667   4.758   4.439   2.201 -0.5438  0.2988  1.4448
 2758SOL     OW 8668   0.059   1.088   2.025 -0.0214  0.4385 -0.1484
 2758SOL    HW1 8669   0.094   1.141   2.097  0.5635  1.1808 -0.9522
 2758SOL    HW2 8670  -0.006   1.144   1.983 -1.3040 -0.4708  0.5638
 2759SOL     OW 8671   2.712   0.367   1.688  0.2219 -0.7531  0.0181
 2759SOL    HW1 8672   2.650   0.294   1.689 -0.6307 -0.1524  2.8231
 2759SOL    HW2 8673   2.656   0.444   1.700  1.2875  0.1632 -0.7553
 2760SOL     OW 8674   4.540   4.670   3.411 -0.3202  0.1783  0.1203
 2760SOL    HW1 8675   4.545   4.717   3.494  1.6969 -0.1898  0.2750
 2760SOL    HW2 8676   4.548   4.578   3.435  0.5249  0.0850 -0.4772
 2761SOL     OW 8677   0.973   4.651   3.162 -0.4814  0.7536 -0.2270
 2761SOL    HW1 8678   0.922   4.584   3.208 -1.6312  0.2813 -2.0737
 2761SOL    HW2 8679   1.011   4.704   3.232 -0.8944 -0.8156  1.2668
 2762SOL     OW 8680   4.644   4.032   3.738  0.4258  0.1458  0.8340
 2762SOL    HW1 8681   4.613   3.949   3.774  2.4229 -0.1329  2.0866
 2762SOL    HW2 8682   4.596   4.099   3.787  1.9017 -0.2630  3.0192
 2763SOL     OW 8683   2.058   1.447   6.707  0.3911  0.1978 -0.3580
 2763SOL    HW1 8684   2.098   1.361   6.723  0.8507  0.3738 -0.5184
 2763SOL    HW2 8685   2.119   1.490   6.647 -0.9792 -0.2180 -2.1063
 2764SOL     OW 8686   3.487   4.015   1.134 -0.2089 -0.4543 -0.0542
 2764SOL    HW1 8687   3.481   4.070   1.212  0.2324  0.2543 -0.5111
 2764SOL    HW2 8688   3.406   3.964   1.135 -0.9274  0.6352  0.0600
 2765SOL     OW 8689   3.407   0.042   0.911  0.7388  0.0880  0.3638
 2765SOL    HW1 8690   3.469   0.067   0.979  1.4072  0.8158 -0.4840
 2765SOL    HW2 8691   3.456  -0.015   0.853  0.2848 -0.2141  0.2661
 2766SOL     OW 8692   4.068   1.521   5.464  0.2260 -0.3117 -0.0141
 2766SOL    HW1 8693   4.015   1.587   5.507  2.9621  0.9417  1.6865
 2766SOL    HW2 8694   4.049   1.440   5.511  0.3506  0.2667  1.0594
 2767SOL     OW 8695   1.349   4.587   1.201  0.4586  0.0653 -0.1995
 2767SOL    HW1 8696   1.440   4.557   1.191  1.2845  2.0613  0.8251
 2767SOL    HW2 8697   1.340   4.605   1.294 -1.0779 -0.2382 -0.2642
 2768SOL     OW 8698   2.016   4.539   4.143 -0.3246 -0.1423  0.0128
 2768SOL    HW1 8699   2.053   4.582   4.065  0.3536  0.3137  0.5678
 2768SOL    HW2 8700   2.084   4.550   4.210 -0.2264 -1.8877  0.2417
 2769SOL     OW 8701   1.828   5.585   4.666  0.2692  0.2865 -0.1699
 2769SOL    HW1 8702   1.920   5.575   4.693 -0.0100  0.6417  0.9765
 2769SOL    HW2 8703   1.778   5.577   4.747 -0.7257  0.0924 -0.7834
 2770SOL     OW 8704   5.908   0.416   1.977  0.2430  0.3565  0.5037
 2770SOL    HW1 8705   5.876   0.459   2.057 -0.4869  0.9510 -0.0960
 2770SOL    HW2 8706   5.838   0.429   1.913  0.0419 -1.6306  0.2476
 2771SOL     OW 8707   4.260   2.742   6.230  0.0055  0.0639  0.1631
 2771SOL    HW1 8708   4.264   2.701   6.144  1.6571 -0.0221  0.2532
 2771SOL    HW2 8709   4.336   2.709   6.276 -0.3299  0.8532  1.3344
 2772SOL     OW 8710   0.210   1.264   5.326 -0.1781  0.4180  0.1905
 2772SOL    HW1 8711   0.209   1.203   5.400 -0.8811  0.3586  0.1399
 2772SOL    HW2 8712   0.297   1.253   5.288 -0.2854 -0.5612  0.1864
 2773SOL     OW 8713   6.406   6.380   2.348  0.4014  0.2323 -0.2735
 2773SOL    HW1 8714   6.346   6.452   2.331  0.0570 -0.3983 -1.8573
 2773SOL    HW2 8715   6.365   6.330   2.419  0.1711  1.0377  0.1689
 2774SOL     OW 8716   1.787   2.092   6.845 -0.0580  0.4912 -0.1561
 2774SOL    HW1 8717   1.794   2.034   6.921 -1.6232 -0.2971 -0.5833
 2774SOL    HW2 8718   1.878   2.115   6.824  0.5572 -1.2890  0.4025
 2775SOL     OW 8719   5.958   6.682   3.860 -0.0509 -0.3503 -0.4048
 2775SOL    HW1 8720   5.907   6.602   3.849 -1.1608  0.2886 -0.1711
 2775SOL    HW2 8721   6.022   6.662   3.928  0.2139 -1.2697 -0.9189
 2776SOL     OW 8722   4.887   4.562   2.167  0.2750  0.0373  0.1653
 2776SOL    HW1 8723   4.877   4.602   2.080  0.0174 -0.6746 -0.1372
 2776SOL    HW2 8724   4.873   4.635   2.228  0.1959  0.4913 -0.3840
 2777SOL     OW 8725   1.946   2.348   2.334  0.0364  0.4647  0.0369
 2777SOL    HW1 8726   1.983   2.394   2.259 -2.5952  2.9425  0.0707
 2777SOL    HW2 8727   1.853   2.338   2.313 -0.2437 -1.2976  1.8101
 2778SOL     OW 8728   4.930   0.878   6.739  0.1025  0.7004 -0.2267
 2778SOL    HW1 8729   4.942   0.790   6.703 -0.0274  0.9750 -0.9664
 2778SOL    HW2 8730   4.839   0.879   6.768  0.1366  0.5511 -0.1142
 2779SOL     OW 8731   2.719   1.509   1.288 -0.5218  0.5294  0.2039
 2779SOL    HW1 8732   2.699   1.582   1.229  2.2225  0.5160 -0.9017
 2779SOL    HW2 8733   2.813   1.516   1.304  0.0283 -3.0935 -0.4945
 2780SOL     OW 8734   4.057   3.471   4.356 -0.4236 -0.0123  0.6918
 2780SOL    HW1 8735   4.097   3.557   4.372 -2.1918  0.7115  1.5145
 2780SOL    HW2 8736   4.023   3.476   4.267  0.0049 -0.0954  0.5209
 2781SOL     OW 8737   1.226   5.384   5.778  0.5870 -0.2496  0.7990
 2781SOL    HW1 8738   1.149   5.431   5.743  0.6144  0.1114  1.2183
 2781SOL    HW2 8739   1.239   5.312   5.716 -1.0034 -1.2239  1.5299
 2782SOL     OW 8740   6.294   6.924   4.912 -0.4260  0.1435 -0.4040
 2782SOL    HW1 8741   6.241   6.890   4.984  1.6123  0.5123  1.3734
 2782SOL    HW2 8742   6.328   6.846   4.868 -1.0700 -0.0806 -0.5138
 2783SOL     OW 8743   4.666   0.777   4.452  0.7677  0.4573  0.0121
 2783SOL    HW1 8744   4.686   0.850   4.393 -2.2301  1.1314 -0.3212
 2783SOL    HW2 8745   4.637   0.819   4.533  1.2849 -0.4408  0.6874
 2784SOL     OW 8746   5.027   2.673   6.186  0.1280  0.3433 -0.1388
 2784SOL    HW1 8747   4.953   2.613   6.192  1.0323 -0.8154 -0.1953
 2784SOL    HW2 8748   5.101   2.623   6.221  0.9268  1.3976 -0.2801
 2785SOL     OW 8749   4.035   1.310   0.100  0.6651 -0.6205 -0.3924
 2785SOL    HW1 8750   3.964   1.263   0.144  0.5981 -0.6258 -0.5044
 2785SOL    HW2 8751   4.021   1.401   0.125  2.2874 -0.9210  1.9102
 2786SOL     OW 8752   0.404   0.284   1.239  0.1004 -0.7281 -0.1408
 2786SOL    HW1 8753   0.424   0.344   1.168 -2.9085 -0.5921 -0.9946
 2786SOL    HW2 8754   0.338   0.329   1.292  0.1109 -2.0301  1.0591
 2787SOL     OW 8755   4.874   4.244   6.007 -0.0077  0.2394 -0.2516
 2787SOL    HW1 8756   4.820   4.226   5.930 -1.1015 -0.2821  0.5951
 2787SOL    HW2 8757   4.811   4.251   6.079  0.9494  1.1579  0.5246
 2788SOL     OW 8758   0.075   4.226   1.576 -0.2365 -0.2055 -0.6193
 2788SOL    HW1 8759   0.027   4.174   1.640  1.4929 -0.7041  0.3463
 2788SOL    HW2 8760   0.098   4.165   1.507 -1.2095  0.0981 -1.2253
 2789SOL     OW 8761   1.584   1.241   6.013 -0.4642 -0.8634  0.5508
 2789SOL    HW1 8762   1.559   1.316   5.959  0.6373 -0.2404  0.8787
 2789SOL    HW2 8763   1.680   1.240   6.011 -0.4464 -1.8915  1.0585
 2790SOL     OW 8764   5.167   1.285   5.377  0.7849  0.4580  0.0915
 2790SOL    HW1 8765   5.182   1.313   5.287 -2.6746 -0.1449 -0.8370
 2790SOL    HW2 8766   5.169   1.365   5.429 -0.2959  1.2834 -1.0887
 2791SOL     OW 8767   1.472   1.264   6.885  0.0415 -0.2485  0.0948
 2791SOL    HW1 8768   1.475   1.345   6.937  0.9151 -1.2798  1.7111
 2791SOL    HW2 8769   1.561   1.255   6.850  0.6746 -1.7546  1.9636
 2792SOL     OW 8770   0.989   6.800   0.778 -0.4772  0.0054 -0.2019
 2792SOL    HW1 8771   1.019   6.845   0.857 -0.3361 -2.2556  1.1259
 2792SOL    HW2 8772   0.894   6.796   0.788 -0.5034  0.1532 -0.3967
 2793SOL     OW 8773   0.425   0.254   0.651  0.5398 -0.1528  0.2867
 2793SOL    HW1 8774   0.464   0.284   0.569 -1.7886 -1.6326 -1.4976
 2793SOL    HW2 8775   0.468   0.307   0.718  0.6089  3.1925 -2.0874
 2794SOL     OW 8776   4.917   1.925   3.713  1.0243 -0.1553  0.0849
 2794SOL    HW1 8777   4.910   2.017   3.687  1.2921  0.0255  0.6384
 2794SOL    HW2 8778   5.001   1.897   3.675  1.0050 -0.1363  0.0269
 2795SOL     OW 8779   2.689   5.479   2.517 -0.1604  0.3243  0.5792
 2795SOL    HW1 8780   2.782   5.456   2.530 -0.3880 -0.3317  1.1435
 2795SOL    HW2 8781   2.644   5.395   2.514 -0.7146  0.6310  0.0319
 2796SOL     OW 8782   2.376   2.840   6.784  0.5685  0.4147  0.2415
 2796SOL    HW1 8783   2.445   2.875   6.729  1.1460  0.8622  1.2170
 2796SOL    HW2 8784   2.352   2.912   6.842 -1.0078  0.3923 -0.3365
 2797SOL     OW 8785   0.281   4.205   0.063 -0.1138 -0.3864  0.4656
 2797SOL    HW1 8786   0.242   4.266  -0.000 -2.0528 -3.3900 -1.5012
 2797SOL    HW2 8787   0.372   4.195   0.033 -0.6183 -0.7041 -1.0525
 2798SOL     OW 8788   5.549   1.497   2.711  0.1499  0.2098 -0.2789
 2798SOL    HW1 8789   5.509   1.584   2.699 -0.8984 -0.3167 -0.7002
 2798SOL    HW2 8790   5.639   1.516   2.737 -0.0216  1.4279 -0.5052
 2799SOL     OW 8791   0.121   1.210   0.574  0.5480 -0.4061 -0.1418
 2799SOL    HW1 8792   0.045   1.207   0.632 -0.1837  0.5443 -0.9996
 2799SOL    HW2 8793   0.109   1.291   0.524  1.3103 -1.0252 -1.3754
 2800SOL     OW 8794   2.638   2.986   1.793  0.4522  0.1306 -0.1449
 2800SOL    HW1 8795   2.720   2.937   1.800  0.4913  0.3800  1.5613
 2800SOL    HW2 8796   2.592   2.945   1.719  0.6912 -2.1670  0.8861
 2801SOL     OW 8797   2.194   6.263   2.032 -0.7352 -0.7053  0.1788
 2801SOL    HW1 8798   2.231   6.304   1.954  0.3478  2.3761  2.1331
 2801SOL    HW2 8799   2.257   6.194   2.055  0.5972  0.4032 -0.0003
 2802SOL     OW 8800   5.037   5.937   3.606  0.2306 -0.1730  0.4244
 2802SOL    HW1 8801   5.018   5.895   3.690 -0.4841  3.2481  2.1573
 2802SOL    HW2 8802   5.124   5.973   3.615  0.7701 -1.0236 -0.9567
 2803SOL     OW 8803   5.250   0.961   4.188 -0.1811 -0.5299  0.8546
 2803SOL    HW1 8804   5.177   0.992   4.241 -0.3380  0.2634  0.2051
 2803SOL    HW2 8805   5.209   0.938   4.104  0.4416  0.9394  0.1141
 2804SOL     OW 8806   5.314   4.954   3.598 -0.4884  0.3309 -0.0358
 2804SOL    HW1 8807   5.263   4.898   3.540  0.4146 -2.0240  1.2981
 2804SOL    HW2 8808   5.330   4.900   3.675  2.2210  1.6859  0.4662
 2805SOL     OW 8809   0.737   0.238   4.745  0.8787 -0.2580  0.1065
 2805SOL    HW1 8810   0.748   0.172   4.676  0.0138  1.2802 -1.5744
 2805SOL    HW2 8811   0.652   0.216   4.785  0.1982  0.2881 -0.9985
 2806SOL     OW 8812   4.517   2.885   6.008 -0.4936 -0.3727 -0.4358
 2806SOL    HW1 8813   4.468   2.967   6.000  0.0086  0.0156  0.3432
 2806SOL    HW2 8814   4.536   2.877   6.102  0.8697 -0.5499 -0.7078
 2807SOL     OW 8815   0.057   5.908   1.350 -0.1205 -0.2600  0.1038
 2807SOL    HW1 8816  -0.020   5.879   1.300 -0.2802 -2.0295  1.2843
 2807SOL    HW2 8817   0.087   5.986   1.304 -2.6488  0.5336 -0.3785
 2808SOL     OW 8818   6.719   0.393   6.429 -0.6487  0.5994 -0.3465
 2808SOL    HW1 8819   6.690   0.476   6.392  0.6779  1.8276  1.2174
 2808SOL    HW2 8820   6.722   0.408   6.524  2.5461 -0.1708 -0.1936
 2809SOL     OW 8821   2.929   2.873   3.699 -0.0742  0.1844  0.0585
 2809SOL    HW1 8822   2.877   2.950   3.721 -0.3194 -0.0894  0.4486
 2809SOL    HW2 8823   2.995   2.906   3.638 -0.6864  0.5429 -0.4302
 2810SOL     OW 8824   4.982   0.720   0.420  0.1339  0.4790 -0.4639
 2810SOL    HW1 8825   5.038   0.777   0.367 -0.4271  0.9821 -0.5289
 2810SOL    HW2 8826   4.895   0.760   0.413 -0.2457 -0.3329 -0.4238
 2811SOL     OW 8827   2.430   5.330   5.581  0.6082  0.1235  0.2720
 2811SOL    HW1 8828   2.519   5.326   5.547  0.0466 -0.2244 -1.2388
 2811SOL    HW2 8829   2.378   5.363   5.508 -0.5224  0.2161  1.0911
 2812SOL     OW 8830   2.058   4.501   1.492  0.2373 -0.1245 -0.5708
 2812SOL    HW1 8831   2.135   4.521   1.545  0.4812 -1.4294 -0.3936
 2812SOL    HW2 8832   2.014   4.585   1.480  1.1245  0.4672  0.2076
 2813SOL     OW 8833   0.930   4.225   5.898  0.3772  0.2993  0.2321
 2813SOL    HW1 8834   0.932   4.291   5.828 -1.6550 -0.1975 -0.3744
 2813SOL    HW2 8835   0.941   4.142   5.852  0.2161  0.0498  0.6409
 2814SOL     OW 8836   2.156   1.823   1.006 -0.0661  0.2087  0.0088
 2814SOL    HW1 8837   2.228   1.801   0.948  0.3102 -0.2543  0.6367
 2814SOL    HW2 8838   2.109   1.741   1.019 -0.6944  0.4999 -0.3700
 2815SOL     OW 8839   1.014   0.446   4.333  0.2930  0.5479 -0.5682
 2815SOL    HW1 8840   1.024   0.442   4.238 -1.4055 -0.2371 -0.7656
 2815SOL    HW2 8841   0.988   0.536   4.351 -2.7805 -0.0589 -1.3377
 2816SOL     OW 8842   4.583   3.834   4.243  0.0071 -0.2891 -0.5848
 2816SOL    HW1 8843   4.574   3.741   4.222 -0.4289  0.3205 -3.6359
 2816SOL    HW2 8844   4.497   3.872   4.221  0.7940  1.1094 -1.4619
 2817SOL     OW 8845   3.644   1.619   1.037 -0.5176 -0.2769  0.6196
 2817SOL    HW1 8846   3.548   1.616   1.038 -0.5770  1.0187  0.1825
 2817SOL    HW2 8847   3.665   1.701   0.993  0.8245 -1.3234 -0.8053
 2818SOL     OW 8848   2.391   0.864   2.022  0.0883  0.0234  0.3758
 2818SOL    HW1 8849   2.429   0.946   1.994  0.2213  0.1758  0.9860
 2818SOL    HW2 8850   2.329   0.841   1.953  1.1119 -0.1159 -0.5183
 2819SOL     OW 8851   2.761   3.313   3.039 -0.1859  0.1821  0.4923
 2819SOL    HW1 8852   2.752   3.230   2.993 -1.4071 -0.0047  1.0274
 2819SOL    HW2 8853   2.675   3.355   3.031  0.3196  1.2489  0.4978
 2820SOL     OW 8854   3.878   6.844   0.473  0.1509 -0.0508  0.1960
 2820SOL    HW1 8855   3.964   6.864   0.435  0.0027  2.2889  0.9709
 2820SOL    HW2 8856   3.860   6.754   0.445  1.5929  0.3497 -2.2907
 2821SOL     OW 8857   1.328   1.030   0.693 -0.1979 -0.2755  0.3354
 2821SOL    HW1 8858   1.276   1.070   0.623  1.5301  1.3999 -0.0806
 2821SOL    HW2 8859   1.289   1.064   0.774 -1.7429 -1.6352  0.1998
 2822SOL     OW 8860   0.973   5.633   1.723 -0.3341  0.7211  0.5306
 2822SOL    HW1 8861   0.932   5.555   1.759  0.1140  0.5478  0.6735
 2822SOL    HW2 8862   1.031   5.665   1.792  0.0390  0.7562  0.2081
 2823SOL     OW 8863   5.100   4.670   5.314 -0.0062  0.2828 -0.2397
 2823SOL    HW1 8864   5.135   4.582   5.329 -0.7363  0.1168  0.6085
 2823SOL    HW2 8865   5.067   4.667   5.224  2.0396  0.4331 -1.0310
 2824SOL     OW 8866   6.226   3.952   1.369 -0.6174 -0.2323  0.4173
 2824SOL    HW1 8867   6.194   3.939   1.458  0.2782 -0.8498  0.6605
 2824SOL    HW2 8868   6.302   3.894   1.362 -0.2613  0.3280 -0.5240
 2825SOL     OW 8869   1.530   2.014   3.869  0.3778 -0.1637  0.0982
 2825SOL    HW1 8870   1.591   2.008   3.795  1.2246  1.4053  0.6233
 2825SOL    HW2 8871   1.521   2.108   3.884  1.1033 -0.4329  2.6869
 2826SOL     OW 8872   0.669   0.415   2.111  0.8322 -0.6353  0.4816
 2826SOL    HW1 8873   0.589   0.452   2.074 -0.8871 -1.9942  2.5816
 2826SOL    HW2 8874   0.719   0.490   2.140 -2.0150  0.2796  3.5864
 2827SOL     OW 8875   4.525   4.130   0.209 -0.3490  0.7118  1.0253
 2827SOL    HW1 8876   4.611   4.099   0.179 -0.6362 -0.2245  1.1583
 2827SOL    HW2 8877   4.529   4.122   0.305 -0.4738  0.9717  1.0528
 2828SOL     OW 8878   4.140   3.693   5.104 -0.7979 -0.4581 -0.1440
 2828SOL    HW1 8879   4.200   3.686   5.178 -0.3962  0.8518 -0.3230
 2828SOL    HW2 8880   4.099   3.779   5.115 -0.1486  0.0975 -1.8714
 2829SOL     OW 8881   1.636   6.367   6.582 -0.3485  0.1683 -0.1013
 2829SOL    HW1 8882   1.626   6.462   6.584  2.3392  0.5020  0.8343
 2829SOL    HW2 8883   1.643   6.345   6.489 -0.2230  0.9778 -0.2860
 2830SOL     OW 8884   4.370   2.531   4.550 -0.0632 -0.2965 -0.1629
 2830SOL    HW1 8885   4.379   2.435   4.544 -1.2707 -0.4009 -0.6283
 2830SOL    HW2 8886   4.352   2.548   4.642 -0.7253 -0.6041 -0.2340
 2831SOL     OW 8887   3.287   3.644   5.038  0.3363 -0.7708  0.2163
 2831SOL    HW1 8888   3.372   3.687   5.050 -0.6741  0.8241  2.2975
 2831SOL    HW2 8889   3.247   3.691   4.964  0.2141  0.2892  0.9394
 2832SOL     OW 8890   1.072   6.797   5.919  0.4254 -0.4949 -0.2062
 2832SOL    HW1 8891   1.111   6.734   5.981  0.3255  0.0954  0.4749
 2832SOL    HW2 8892   1.115   6.779   5.836  3.4940  1.2351  0.8433
 2833SOL     OW 8893   6.325   5.851   0.764 -0.5273  0.4470 -0.3541
 2833SOL    HW1 8894   6.347   5.760   0.744 -0.6433  0.5116 -0.7878
 2833SOL    HW2 8895   6.329   5.895   0.680 -0.9131  0.7518 -0.2166
 2834SOL     OW 8896   3.334   0.054   1.297 -0.0129  0.4935  0.5516
 2834SOL    HW1 8897   3.404  -0.003   1.330  0.2424  0.5672  0.1514
 2834SOL    HW2 8898   3.364   0.142   1.317 -0.7805  0.4743  1.8913
 2835SOL     OW 8899   3.894   6.172   1.550  0.6226 -0.6104 -0.6375
 2835SOL    HW1 8900   3.975   6.187   1.502  0.3331 -1.9662 -1.6043
 2835SOL    HW2 8901   3.828   6.224   1.504  0.6502 -0.7271 -0.8117
 2836SOL     OW 8902   6.632   1.573   1.832  0.9845 -0.2386  0.5221
 2836SOL    HW1 8903   6.573   1.529   1.893 -0.0605 -0.9096 -0.9041
 2836SOL    HW2 8904   6.600   1.663   1.830 -0.2943 -0.6767 -0.5149
 2837SOL     OW 8905   6.656   1.743   2.517  0.1167 -0.0635  0.0923
 2837SOL    HW1 8906   6.723   1.770   2.454 -1.2412  0.3178 -1.2555
 2837SOL    HW2 8907   6.658   1.647   2.515  0.8179 -0.0577  0.2979
 2838SOL     OW 8908   4.859   2.031   0.565  0.0491 -0.0547 -0.1959
 2838SOL    HW1 8909   4.953   2.014   0.577  0.2754  1.2675  0.0074
 2838SOL    HW2 8910   4.827   1.953   0.519  1.1738 -0.6809  0.0343
 2839SOL     OW 8911   3.804   1.029   4.399 -0.3867 -0.8173 -0.7683
 2839SOL    HW1 8912   3.871   1.007   4.335 -0.8241 -1.0529 -1.1539
 2839SOL    HW2 8913   3.847   1.020   4.484 -0.1228 -1.6427 -0.9812
 2840SOL     OW 8914   4.562   1.936   4.385 -0.3071  0.3450  0.1433
 2840SOL    HW1 8915   4.470   1.958   4.373 -0.0125  1.7469  0.2178
 2840SOL    HW2 8916   4.579   1.865   4.323 -1.4010  0.1576  0.0446
 2841SOL     OW 8917   6.314   5.569   4.239  0.5878  0.0808 -0.5692
 2841SOL    HW1 8918   6.238   5.545   4.185  0.0955  1.9713 -0.7803
 2841SOL    HW2 8919   6.348   5.485   4.271 -3.1930 -0.8323  1.7542
 2842SOL     OW 8920   0.723   6.525   2.122  0.4531  0.5005  1.1525
 2842SOL    HW1 8921   0.695   6.545   2.033  0.2504  0.4968  1.2150
 2842SOL    HW2 8922   0.704   6.431   2.133  0.9256  0.3860  1.0349
 2843SOL     OW 8923   5.305   1.455   2.322  0.3026 -0.2849  0.3208
 2843SOL    HW1 8924   5.375   1.464   2.256 -0.9355 -0.9258 -1.1346
 2843SOL    HW2 8925   5.338   1.389   2.383  0.8495 -0.7970 -0.5122
 2844SOL     OW 8926   0.063   4.825   6.903 -0.1479  0.2095 -0.7762
 2844SOL    HW1 8927   0.132   4.762   6.882 -0.0987  0.0598 -0.2015
 2844SOL    HW2 8928   0.109   4.909   6.907  0.3385 -0.0788  1.1015
 2845SOL     OW 8929   0.571   5.669   1.269  0.5358  0.0354  0.1951
 2845SOL    HW1 8930   0.562   5.577   1.242 -1.4017  0.3642 -0.4387
 2845SOL    HW2 8931   0.490   5.687   1.317  0.7732  1.4907  0.0745
 2846SOL     OW 8932   0.603   4.183   0.080  0.3486  0.4199 -0.0596
 2846SOL    HW1 8933   0.616   4.096   0.115 -0.4306  0.9858  1.7275
 2846SOL    HW2 8934   0.689   4.226   0.088  0.0517  0.7198  1.7261
 2847SOL     OW 8935   4.668   0.831   1.551 -0.4246 -0.1239 -0.1034
 2847SOL    HW1 8936   4.740   0.894   1.541 -0.7073  0.0425 -1.1445
 2847SOL    HW2 8937   4.628   0.855   1.635  0.1650  0.3616  0.0493
 2848SOL     OW 8938   6.320   6.250   4.695 -0.1311 -0.6019 -0.2523
 2848SOL    HW1 8939   6.362   6.218   4.774  0.2403  0.6216  0.0729
 2848SOL    HW2 8940   6.227   6.236   4.709  0.0134 -1.3722 -0.0565
 2849SOL     OW 8941   6.637   4.765   5.733 -0.4091 -0.6623  0.4395
 2849SOL    HW1 8942   6.565   4.807   5.779  0.2408  0.3204  0.5745
 2849SOL    HW2 8943   6.693   4.729   5.802 -0.4485 -0.9077  0.3477
 2850SOL     OW 8944   0.868   3.963   1.079  0.2238 -0.2570 -0.4220
 2850SOL    HW1 8945   0.793   3.941   1.023 -0.8243 -0.1066  0.8553
 2850SOL    HW2 8946   0.925   4.015   1.024 -0.3709 -0.8019 -1.5866
 2851SOL     OW 8947   2.712   4.863   1.276  0.2721 -0.1145 -0.3813
 2851SOL    HW1 8948   2.789   4.891   1.227  1.2225  0.2450  1.2593
 2851SOL    HW2 8949   2.708   4.922   1.351 -0.0092 -1.8385  1.0195
 2852SOL     OW 8950   4.785   0.245   0.945 -0.7564 -0.0356 -0.0526
 2852SOL    HW1 8951   4.832   0.215   0.867 -2.1036 -1.5069 -0.3460
 2852SOL    HW2 8952   4.772   0.339   0.929 -1.1357 -0.3268 -1.6907
 2853SOL     OW 8953   3.008   6.052   2.363 -0.7406 -0.5162 -0.1475
 2853SOL    HW1 8954   3.026   6.102   2.443 -0.6715 -0.9617  0.1173
 2853SOL    HW2 8955   3.056   6.098   2.295 -3.7943  2.2008 -0.7348
 2854SOL     OW 8956   6.275   6.859   0.088  0.5124  0.0626 -0.3474
 2854SOL    HW1 8957   6.297   6.949   0.064  0.4245  0.0556 -0.4517
 2854SOL    HW2 8958   6.225   6.868   0.169  1.2284  0.0559  0.1072
 2855SOL     OW 8959   0.421   0.569   6.725  0.3793 -0.6888 -0.6702
 2855SOL    HW1 8960   0.432   0.475   6.733  0.9666 -0.6384 -0.8263
 2855SOL    HW2 8961   0.507   0.605   6.747  0.5122 -0.2555 -1.8134
 2856SOL     OW 8962   5.470   6.254   2.141 -0.4257  0.7119 -0.2647
 2856SOL    HW1 8963   5.502   6.309   2.213  0.6496  0.1798 -0.3226
 2856SOL    HW2 8964   5.546   6.239   2.086 -1.1152  0.6388 -1.2248
 2857SOL     OW 8965   6.303   4.562   0.415 -0.3698 -0.3207  0.2207
 2857SOL    HW1 8966   6.329   4.641   0.463 -3.1789  0.9792 -0.1424
 2857SOL    HW2 8967   6.324   4.581   0.324 -1.3115  0.1757  0.0949
 2858SOL     OW 8968   4.064   3.741   1.919 -0.5185  0.0957  0.4560
 2858SOL    HW1 8969   4.106   3.753   1.834 -0.5546 -1.3262  0.2107
 2858SOL    HW2 8970   4.122   3.786   1.981 -1.5835  3.0188 -0.4997
 2859SOL     OW 8971   0.652   4.365   6.582  0.2709 -0.2432  0.0933
 2859SOL    HW1 8972   0.620   4.373   6.492  1.2641  0.4634 -0.2116
 2859SOL    HW2 8973   0.655   4.270   6.598  1.2200 -0.4197 -1.0464
 2860SOL     OW 8974   5.174   1.227   2.678  0.5732  0.3075  0.5858
 2860SOL    HW1 8975   5.174   1.132   2.686  0.1587  0.0586 -1.6004
 2860SOL    HW2 8976   5.095   1.247   2.627  0.7822  1.7930  0.7955
 2861SOL     OW 8977   4.164   3.650   1.670 -0.4169 -0.1698 -0.2233
 2861SOL    HW1 8978   4.188   3.690   1.586 -1.6380  1.5179  0.1723
 2861SOL    HW2 8979   4.070   3.633   1.662 -0.4322 -0.5033  0.6109
 2862SOL     OW 8980   0.303   1.124   0.830  0.5310  0.3419 -0.4231
 2862SOL    HW1 8981   0.236   1.058   0.845 -1.4408  2.5455  1.3854
 2862SOL    HW2 8982   0.297   1.145   0.737 -0.0345 -0.7453 -0.6476
 2863SOL     OW 8983   2.366   6.285   3.474  0.3483  0.0476 -0.1464
 2863SOL    HW1 8984   2.370   6.228   3.550  1.0980  1.1036  0.6414
 2863SOL    HW2 8985   2.456   6.285   3.439  0.4689  1.0501  0.1235
 2864SOL     OW 8986   4.398   0.615   4.242 -0.4534 -0.0723 -0.0619
 2864SOL    HW1 8987   4.487   0.588   4.264  0.0558  0.9570 -0.7594
 2864SOL    HW2 8988   4.342   0.568   4.304  0.5275 -1.1442  0.0373
 2865SOL     OW 8989   6.235   2.200   1.376  0.1154 -0.1257  0.1143
 2865SOL    HW1 8990   6.312   2.251   1.403 -0.2888  0.2525  0.5908
 2865SOL    HW2 8991   6.263   2.152   1.298  1.0760 -0.6248  0.7575
 2866SOL     OW 8992   1.839   4.007   5.538 -0.2212 -0.1981 -0.0965
 2866SOL    HW1 8993   1.808   3.989   5.450  2.4750  0.6939 -1.3441
 2866SOL    HW2 8994   1.780   4.075   5.572 -0.9513 -0.1429 -1.4387
 2867SOL     OW 8995   3.305   2.394   2.818  0.5026  0.2357  0.1675
 2867SOL    HW1 8996   3.292   2.475   2.768 -0.9325 -2.4793 -4.5385
 2867SOL    HW2 8997   3.399   2.377   2.811  0.6085  0.8573  0.0245
 2868SOL     OW 8998   0.812   3.358   1.796 -0.2619  0.1345 -0.2000
 2868SOL    HW1 8999   0.794   3.412   1.719 -1.9436  0.1327  0.1487
 2868SOL    HW2 9000   0.775   3.272   1.774 -0.2957 -0.0084  0.4036
 2869SOL     OW 9001   0.838   5.193   2.508  0.8561  0.3202  0.2069
 2869SOL    HW1 9002   0.922   5.186   2.552  0.6917 -0.0815  0.4622
 2869SOL    HW2 9003   0.777   5.144   2.564  1.0409 -2.0648 -1.5523
 2870SOL     OW 9004   1.919   5.388   0.619  0.0927 -0.3841 -0.0643
 2870SOL    HW1 9005   1.844   5.332   0.637  0.1396 -0.2857  0.4414
 2870SOL    HW2 9006   1.888   5.448   0.552 -0.0521 -0.8150 -0.3908
 2871SOL     OW 9007   1.988   3.868   2.338  0.4884 -0.3166  0.0122
 2871SOL    HW1 9008   2.081   3.847   2.337  0.5202 -0.1723 -0.7728
 2871SOL    HW2 9009   1.957   3.839   2.424  1.1798 -0.6976  0.1346
 2872SOL     OW 9010   6.826   0.383   0.483  0.3904  0.2837 -0.3296
 2872SOL    HW1 9011   6.900   0.351   0.431  0.0570  0.3415 -0.8370
 2872SOL    HW2 9012   6.764   0.418   0.419  0.4109  1.2555  0.1633
 2873SOL     OW 9013   1.705   0.895   0.695  0.0926 -0.1755 -0.6108
 2873SOL    HW1 9014   1.661   0.879   0.779  2.9942  1.7851  1.4754
 2873SOL    HW2 9015   1.781   0.837   0.697  1.4279  1.4931 -0.7666
 2874SOL     OW 9016   5.112   1.442   0.522  0.0145 -0.2990 -0.2457
 2874SOL    HW1 9017   5.134   1.352   0.547 -0.4931 -0.4137 -0.1983
 2874SOL    HW2 9018   5.179   1.466   0.458  0.4746 -0.5160  0.1478
 2875SOL     OW 9019   4.808   2.274   5.430 -0.0662 -0.3172 -0.3073
 2875SOL    HW1 9020   4.775   2.202   5.484 -0.4324  1.1001  1.4578
 2875SOL    HW2 9021   4.891   2.241   5.395 -0.8081 -2.0248 -0.5614
 2876SOL     OW 9022   5.922   3.788   4.119 -0.1902 -0.3079 -0.0971
 2876SOL    HW1 9023   5.960   3.844   4.052 -0.8988  0.6698  0.2956
 2876SOL    HW2 9024   5.949   3.827   4.202  1.2540 -1.8939  0.2376
 2877SOL     OW 9025   3.333   0.964   4.315  0.2952 -0.1348  0.2490
 2877SOL    HW1 9026   3.255   0.954   4.369  1.1852  0.1200  1.6280
 2877SOL    HW2 9027   3.384   1.033   4.359  1.0964  0.0164 -0.8671
 2878SOL     OW 9028   4.778   6.418   0.649  0.1305  0.4506 -0.0616
 2878SOL    HW1 9029   4.698   6.471   0.643 -1.4385 -1.9254 -1.7261
 2878SOL    HW2 9030   4.752   6.332   0.618  3.7568 -0.0459 -2.2936
 2879SOL     OW 9031   6.758   4.417   0.018 -0.1270  0.5891  0.4515
 2879SOL    HW1 9032   6.736   4.491   0.074  0.5711  0.8213  0.4363
 2879SOL    HW2 9033   6.836   4.379   0.060 -0.0050  0.3597  0.0163
 2880SOL     OW 9034   5.450   2.114   6.279  0.7277 -0.3302  0.4109
 2880SOL    HW1 9035   5.360   2.141   6.298  0.2105 -0.6058 -1.4710
 2880SOL    HW2 9036   5.495   2.195   6.253  1.1596 -0.1324  1.6689
 2881SOL     OW 9037   1.536   2.801   6.467 -0.2282 -0.5456  0.1129
 2881SOL    HW1 9038   1.497   2.850   6.540 -0.9510 -0.9950  0.0380
 2881SOL    HW2 9039   1.579   2.726   6.508 -1.9875 -1.6778 -0.0150
 2882SOL     OW 9040   3.313   3.235   3.833  0.2377 -0.3205  0.6088
 2882SOL    HW1 9041   3.378   3.180   3.788  0.2778  0.2716 -0.0636
 2882SOL    HW2 9042   3.269   3.174   3.893  0.3969 -1.0605  0.0027
 2883SOL     OW 9043   6.454   1.472   2.787  0.8541  0.4576 -0.0124
 2883SOL    HW1 9044   6.499   1.464   2.703  0.7024 -1.6724  0.0383
 2883SOL    HW2 9045   6.363   1.490   2.763  1.2405  2.4381 -0.1775
 2884SOL     OW 9046   5.820   2.856   4.513 -0.0458 -0.4592  0.1034
 2884SOL    HW1 9047   5.915   2.853   4.527 -0.1195  0.2128  0.8311
 2884SOL    HW2 9048   5.798   2.949   4.517 -0.4119 -0.3653 -2.5013
 2885SOL     OW 9049   1.261   4.630   3.210 -0.2120  0.1290  0.2937
 2885SOL    HW1 9050   1.270   4.718   3.249 -0.4508  0.6218 -0.7233
 2885SOL    HW2 9051   1.191   4.589   3.260 -1.2922  1.1691 -0.3171
 2886SOL     OW 9052   0.154   4.164   3.623  0.0478  0.8412  0.3021
 2886SOL    HW1 9053   0.157   4.257   3.599 -4.5258  0.8232 -1.5510
 2886SOL    HW2 9054   0.062   4.149   3.647  0.6959 -3.1244  0.9905
 2887SOL     OW 9055   6.019   6.585   0.032  0.2582 -0.9262 -0.3572
 2887SOL    HW1 9056   6.113   6.573   0.019  0.0701 -0.7681 -2.0358
 2887SOL    HW2 9057   6.006   6.680   0.030  0.4098 -0.7160  2.9120
 2888SOL     OW 9058   5.262   1.999   4.320  0.3743 -0.5214  0.6977
 2888SOL    HW1 9059   5.185   2.019   4.374  0.3798 -1.1399  0.9461
 2888SOL    HW2 9060   5.259   1.904   4.308 -0.3252 -0.2820 -1.4530
 2889SOL     OW 9061   1.399   5.656   5.874 -0.5127  0.0493  0.5551
 2889SOL    HW1 9062   1.408   5.683   5.966 -1.1165  0.1931  0.5800
 2889SOL    HW2 9063   1.304   5.655   5.859 -0.5104 -1.7266  0.4525
 2890SOL     OW 9064   0.187   6.389   5.834 -0.5432  0.2178 -0.6717
 2890SOL    HW1 9065   0.220   6.330   5.902  0.6607  0.0287 -1.3833
 2890SOL    HW2 9066   0.114   6.341   5.794  0.4676 -0.8513 -1.2907
 2891SOL     OW 9067   6.270   3.118   1.890  0.2445 -0.4059 -0.1375
 2891SOL    HW1 9068   6.266   3.030   1.852  3.0015 -1.8507  2.4813
 2891SOL    HW2 9069   6.178   3.145   1.897 -1.0142 -4.3802  1.6261
 2892SOL     OW 9070   2.584   4.906   2.723 -0.2752 -0.1561 -0.3366
 2892SOL    HW1 9071   2.625   4.822   2.702  1.4008  0.3431  0.8274
 2892SOL    HW2 9072   2.547   4.935   2.639 -1.0054 -2.0734 -0.7479
 2893SOL     OW 9073   2.117   2.730   4.434  0.1100  0.0395  0.0081
 2893SOL    HW1 9074   2.168   2.788   4.377 -0.9972  0.1723 -0.8777
 2893SOL    HW2 9075   2.029   2.730   4.397  0.3644 -3.3621 -0.9622
 2894SOL     OW 9076   6.106   3.018   5.870 -0.4605  0.6318  0.0748
 2894SOL    HW1 9077   6.084   2.951   5.936  0.8615  0.3522  0.2580
 2894SOL    HW2 9078   6.068   2.984   5.789 -0.4130 -0.0079  0.3093
 2895SOL     OW 9079   5.591   0.147   5.925  0.0172 -0.3666 -0.3138
 2895SOL    HW1 9080   5.641   0.196   5.859 -2.1464  0.1335 -1.6932
 2895SOL    HW2 9081   5.615   0.188   6.008  3.5522 -1.6381 -0.5331
 2896SOL     OW 9082   0.738   3.594   1.944 -0.2909 -0.0079  0.0577
 2896SOL    HW1 9083   0.728   3.500   1.931  1.7864 -0.4304  1.0029
 2896SOL    HW2 9084   0.665   3.633   1.897  0.4257 -1.9308 -2.9709
 2897SOL     OW 9085   3.736   4.417   4.138 -0.1203 -0.4123 -0.1734
 2897SOL    HW1 9086   3.781   4.333   4.134 -0.5458 -0.6508 -0.0961
 2897SOL    HW2 9087   3.786   4.474   4.081 -0.4421 -1.0266 -1.1040
 2898SOL     OW 9088   6.736   0.803   5.211  0.2607 -0.1161  0.2786
 2898SOL    HW1 9089   6.819   0.763   5.238 -0.0837 -1.0183  0.0051
 2898SOL    HW2 9090   6.684   0.807   5.292 -0.1911 -1.4202  0.0706
 2899SOL     OW 9091   6.391   4.112   0.560  0.0075 -0.1240  0.0598
 2899SOL    HW1 9092   6.420   4.115   0.469  0.9005 -1.3219  0.2871
 2899SOL    HW2 9093   6.374   4.019   0.577  0.0859  0.0518  1.1917
 2900SOL     OW 9094   5.088   6.262   5.397 -0.0413 -0.6539  0.1246
 2900SOL    HW1 9095   5.032   6.314   5.340 -1.1667  0.6334  2.2987
 2900SOL    HW2 9096   5.051   6.273   5.484  2.8948 -0.7078  1.4953
 2901SOL     OW 9097   6.586   5.178   5.831  0.0054 -0.6423  0.2448
 2901SOL    HW1 9098   6.660   5.190   5.890  0.0892  0.2508 -0.0300
 2901SOL    HW2 9099   6.528   5.117   5.877 -0.1773  0.4218  1.4912
 2902SOL     OW 9100   2.942   3.688   4.088  0.0839  0.3761 -0.3373
 2902SOL    HW1 9101   3.037   3.671   4.085 -0.0052 -0.0712 -0.8500
 2902SOL    HW2 9102   2.902   3.602   4.075 -0.3893  0.7973 -1.9590
 2903SOL     OW 9103   1.684   6.151   3.022  0.0832 -0.0164 -0.2227
 2903SOL    HW1 9104   1.710   6.194   3.104  0.7426  1.3068 -1.0930
 2903SOL    HW2 9105   1.607   6.100   3.045  1.5658 -1.5545  1.7571
 2904SOL     OW 9106   5.749   0.147   6.634  0.3350  0.5025  0.3764
 2904SOL    HW1 9107   5.744   0.235   6.597  0.6345  0.2425 -0.3027
 2904SOL    HW2 9108   5.708   0.155   6.721 -0.1546  1.1808  0.0959
 2905SOL     OW 9109   0.273   3.473   1.087  0.3601  0.2815 -0.0422
 2905SOL    HW1 9110   0.354   3.520   1.066  0.8852 -0.7861 -0.5055
 2905SOL    HW2 9111   0.203   3.535   1.065  1.0018  0.5429 -1.5010
 2906SOL     OW 9112   6.566   0.369   0.823  0.0103 -0.1751  0.1045
 2906SOL    HW1 9113   6.650   0.331   0.798  0.2550  0.9934 -0.8897
 2906SOL    HW2 9114   6.501   0.317   0.775  0.1321 -1.1137  0.9150
 2907SOL     OW 9115   4.051   4.648   2.550  0.4093  0.5566  0.0151
 2907SOL    HW1 9116   4.017   4.559   2.557  1.0924  0.2439 -0.5203
 2907SOL    HW2 9117   4.016   4.694   2.626 -1.7718  0.4519 -0.8443
 2908SOL     OW 9118   0.438   4.953   2.569  0.5404  0.3509 -0.2851
 2908SOL    HW1 9119   0.371   5.010   2.607  0.1088  0.5128 -1.2656
 2908SOL    HW2 9120   0.392   4.903   2.501  0.4476 -2.5155  1.6880
 2909SOL     OW 9121   3.404   5.730   1.820  0.4378  0.7720  0.6303
 2909SOL    HW1 9122   3.486   5.774   1.797  0.4368  0.0431 -0.8974
 2909SOL    HW2 9123   3.379   5.684   1.741 -1.0097  0.2667  1.3499
 2910SOL     OW 9124   3.202   3.398   5.785 -0.1351  0.1213 -0.5447
 2910SOL    HW1 9125   3.130   3.417   5.725  0.5082  1.4613 -0.9218
 2910SOL    HW2 9126   3.162   3.400   5.872 -0.7255 -0.0874 -0.8016
 2911SOL     OW 9127   1.362   5.367   5.440  0.1389 -0.1907 -0.4288
 2911SOL    HW1 9128   1.270   5.392   5.446  0.6322  1.5630  0.6015
 2911SOL    HW2 9129   1.365   5.280   5.481 -0.4756  1.5513  3.8807
 2912SOL     OW 9130   1.386   5.204   4.105 -0.4806  0.2165 -0.0635
 2912SOL    HW1 9131   1.308   5.155   4.128 -0.5110  0.0946 -0.4249
 2912SOL    HW2 9132   1.387   5.206   4.009 -0.6672  1.2075 -0.0610
 2913SOL     OW 9133   6.630   2.916   4.486  0.3494  0.4564 -0.3816
 2913SOL    HW1 9134   6.637   2.835   4.537 -0.3559  0.6790  0.0890
 2913SOL    HW2 9135   6.705   2.914   4.426  0.5767 -0.3344 -0.0785
 2914SOL     OW 9136   4.820   3.873   1.279  0.0605 -0.4733 -0.1713
 2914SOL    HW1 9137   4.874   3.872   1.357 -0.2407  0.0721  0.0496
 2914SOL    HW2 9138   4.742   3.923   1.304  0.1393  0.0517 -0.9338
 2915SOL     OW 9139   1.581   4.021   5.046  0.3207  0.0849  0.7773
 2915SOL    HW1 9140   1.640   4.090   5.015  0.4324 -0.3166  0.0594
 2915SOL    HW2 9141   1.494   4.049   5.018  0.5678 -0.9397 -1.2322
 2916SOL     OW 9142   0.189   6.422   2.867  0.2021 -0.4167  0.3730
 2916SOL    HW1 9143   0.269   6.419   2.815  1.1731  0.3174  1.7440
 2916SOL    HW2 9144   0.121   6.447   2.805  0.6877 -2.5330 -1.1655
 2917SOL     OW 9145   3.435   3.466   2.712 -0.5822  0.0364  0.3857
 2917SOL    HW1 9146   3.429   3.466   2.807 -0.7404  0.1619  0.3761
 2917SOL    HW2 9147   3.458   3.556   2.689 -0.6931  0.0436  0.2978
 2918SOL     OW 9148   4.082   5.302   0.172 -0.2865 -0.4107  0.2112
 2918SOL    HW1 9149   4.009   5.254   0.134  0.2485 -1.8906  0.9469
 2918SOL    HW2 9150   4.125   5.344   0.098 -1.0945 -0.6285 -0.3912
 2919SOL     OW 9151   1.047   3.060   1.770 -0.2892 -0.6246  0.1365
 2919SOL    HW1 9152   1.138   3.031   1.763 -0.0240  0.1435  0.3643
 2919SOL    HW2 9153   1.024   3.092   1.683  0.1632  0.6177  0.4516
 2920SOL     OW 9154   3.713   3.243   5.844  0.0553  0.3315 -0.1587
 2920SOL    HW1 9155   3.622   3.235   5.814  0.7670 -0.9408 -2.1957
 2920SOL    HW2 9156   3.732   3.336   5.838 -1.2756  0.6919  0.8649
 2921SOL     OW 9157   3.536   5.187   2.595 -0.4909 -0.0171  0.6966
 2921SOL    HW1 9158   3.465   5.134   2.558  1.5588 -1.5472 -1.3761
 2921SOL    HW2 9159   3.615   5.136   2.577  1.0549  0.7010  4.5105
 2922SOL     OW 9160   2.710   2.553   6.908  0.3141  0.0718 -0.4521
 2922SOL    HW1 9161   2.747   2.624   6.855  0.6125  0.3314  0.0979
 2922SOL    HW2 9162   2.637   2.594   6.955  2.4537  0.9526  2.4131
 2923SOL     OW 9163   2.042   6.625   5.544 -0.4325  0.3012 -0.0352
 2923SOL    HW1 9164   2.068   6.556   5.482  0.8094  1.0315 -0.3421
 2923SOL    HW2 9165   1.958   6.595   5.578 -1.0183 -0.2774 -1.8593
 2924SOL     OW 9166   5.927   0.160   3.989 -0.8132  0.2440  0.0347
 2924SOL    HW1 9167   5.867   0.235   3.988 -0.7243  0.3135 -0.8098
 2924SOL    HW2 9168   6.009   0.195   3.955 -0.4510  0.0147  0.6690
 2925SOL     OW 9169   5.969   3.054   3.785 -0.2470  0.1303  0.3383
 2925SOL    HW1 9170   5.959   3.099   3.868  1.5263 -1.2570  1.3901
 2925SOL    HW2 9171   6.041   2.992   3.800 -0.0116 -0.3149 -2.1637
 2926SOL     OW 9172   3.040   1.024   3.054 -0.1764 -0.2209  0.4522
 2926SOL    HW1 9173   3.006   0.999   2.968  0.1771 -0.6023  0.4212
 2926SOL    HW2 9174   3.071   1.114   3.042 -1.4524  0.2624  0.5659
 2927SOL     OW 9175   5.727   5.590   0.319 -0.0400 -0.0198 -0.8665
 2927SOL    HW1 9176   5.658   5.530   0.292 -0.3179  0.7848 -2.0529
 2927SOL    HW2 9177   5.684   5.676   0.322  0.0580  0.0413  1.8840
 2928SOL     OW 9178   0.649   1.336   5.494 -0.0455  0.1739  0.5465
 2928SOL    HW1 9179   0.734   1.361   5.529  1.0924 -3.2763  0.6274
 2928SOL    HW2 9180   0.612   1.277   5.559 -2.2555  1.0581  0.1980
 2929SOL     OW 9181   3.057   6.162   3.494 -0.7353  0.0986  0.3161
 2929SOL    HW1 9182   3.150   6.151   3.515 -1.0751 -1.1947  1.3055
 2929SOL    HW2 9183   3.032   6.243   3.537 -0.2610  0.0105  0.7748
 2930SOL     OW 9184   6.415   0.827   2.712 -0.0335 -0.5631 -0.0883
 2930SOL    HW1 9185   6.454   0.740   2.720  1.6566  0.2544  1.0612
 2930SOL    HW2 9186   6.474   0.874   2.654 -1.6891 -0.5304 -1.8616
 2931SOL     OW 9187   1.187   1.151   6.247  0.3347 -0.4308  0.3126
 2931SOL    HW1 9188   1.260   1.198   6.207  0.5882 -0.5405  0.6407
 2931SOL    HW2 9189   1.226   1.072   6.284  0.1018 -0.3485  0.7500
 2932SOL     OW 9190   6.930   1.036   6.883 -0.0370 -0.3318  0.2542
 2932SOL    HW1 9191   6.988   1.045   6.959  0.1755 -1.4664  0.2540
 2932SOL    HW2 9192   6.883   0.954   6.899  0.4843 -0.9328 -1.1470
 2933SOL     OW 9193   6.133   3.386   5.508  0.5334  0.1354 -0.4851
 2933SOL    HW1 9194   6.131   3.379   5.604  0.3277 -1.0947 -0.5547
 2933SOL    HW2 9195   6.086   3.308   5.478  1.7137 -0.1770 -1.6111
 2934SOL     OW 9196   0.946   5.565   6.866  0.2995 -0.3424  0.0731
 2934SOL    HW1 9197   0.995   5.601   6.792  2.3618 -1.6458  0.7051
 2934SOL    HW2 9198   0.947   5.635   6.931  2.2223 -0.6507  0.4245
 2935SOL     OW 9199   6.047   4.369   1.496 -0.6777 -0.2180 -0.3936
 2935SOL    HW1 9200   6.079   4.344   1.583  0.3031  0.4660 -0.5399
 2935SOL    HW2 9201   6.125   4.401   1.451 -1.0210 -1.2532 -1.7888
 2936SOL     OW 9202   5.974   2.409   0.541  0.2158  0.5788 -0.1858
 2936SOL    HW1 9203   6.000   2.458   0.619 -0.3924  1.4855 -0.5427
 2936SOL    HW2 9204   5.879   2.419   0.536  0.0393 -0.8939 -0.1100
 2937SOL     OW 9205   3.749   6.627   0.996 -0.2552  0.2421  0.3031
 2937SOL    HW1 9206   3.806   6.633   0.918  1.2214 -1.3870  1.1917
 2937SOL    HW2 9207   3.733   6.718   1.020  0.4365  0.7675 -1.0772
 2938SOL     OW 9208   4.485   4.855   6.255 -0.3473  0.4771  0.1766
 2938SOL    HW1 9209   4.434   4.826   6.330  0.2574  1.7401  1.1059
 2938SOL    HW2 9210   4.481   4.951   6.258  0.8744  0.5729 -0.5625
 2939SOL     OW 9211   6.119   2.450   3.493  0.2145 -0.0775  0.3691
 2939SOL    HW1 9212   6.170   2.419   3.568 -2.4529  0.2589  2.5178
 2939SOL    HW2 9213   6.029   2.427   3.515 -0.7661  0.5039 -2.5787
 2940SOL     OW 9214   4.379   0.037   3.176  0.2090 -0.3165  0.0701
 2940SOL    HW1 9215   4.474   0.043   3.188  0.1805 -0.3270  0.3004
 2940SOL    HW2 9216   4.342   0.061   3.261  0.0671 -2.7792  0.7710
 2941SOL     OW 9217   0.606   2.216   2.092 -0.6307 -0.1315 -0.4583
 2941SOL    HW1 9218   0.640   2.216   2.003 -1.8386 -1.8331 -0.9743
 2941SOL    HW2 9219   0.672   2.261   2.143 -0.9332  3.0168 -2.5642
 2942SOL     OW 9220   2.306   3.332   3.416 -0.1253  0.0395  0.3698
 2942SOL    HW1 9221   2.241   3.373   3.473 -1.2093  0.1133 -0.8860
 2942SOL    HW2 9222   2.258   3.264   3.369  0.3854  0.9228 -1.5197
 2943SOL     OW 9223   6.468   3.672   4.442 -0.0832 -0.3748  0.2142
 2943SOL    HW1 9224   6.404   3.687   4.511  0.3857 -0.7657  0.7453
 2943SOL    HW2 9225   6.477   3.577   4.439  0.0497 -0.3494 -0.2535
 2944SOL     OW 9226   3.549   1.084   1.094 -0.0071  1.0602 -0.2980
 2944SOL    HW1 9227   3.604   1.065   1.018 -0.8311 -0.4331 -0.5669
 2944SOL    HW2 9228   3.460   1.086   1.059 -0.4134  0.1846  0.6285
 2945SOL     OW 9229   5.242   4.075   4.328 -0.1311 -0.0353 -0.5028
 2945SOL    HW1 9230   5.283   3.991   4.310  0.0947  0.0021 -0.1676
 2945SOL    HW2 9231   5.312   4.129   4.365 -0.5929 -0.1322  0.5427
 2946SOL     OW 9232   0.661   5.373   0.043  0.1965  0.3092  0.0243
 2946SOL    HW1 9233   0.574   5.415   0.045 -1.0622 -2.1312  1.1280
 2946SOL    HW2 9234   0.711   5.418   0.111 -1.4137 -0.4719  1.8249
 2947SOL     OW 9235   0.295   1.109   4.090 -0.0675  0.0919 -0.0860
 2947SOL    HW1 9236   0.237   1.180   4.065 -1.1409 -0.4777  0.6825
 2947SOL    HW2 9237   0.300   1.053   4.012  1.6492  1.5103 -1.0639
 2948SOL     OW 9238   5.223   2.740   1.664  0.7094  0.1073 -0.6242
 2948SOL    HW1 9239   5.149   2.684   1.689  0.2889  1.2321  0.7489
 2948SOL    HW2 9240   5.237   2.720   1.572 -1.2441 -0.2233 -0.9075
 2949SOL     OW 9241   5.134   4.897   0.629  0.1401 -0.4737 -0.4012
 2949SOL    HW1 9242   5.192   4.962   0.667  0.1065 -0.0981 -0.9922
 2949SOL    HW2 9243   5.053   4.904   0.680 -0.1603  0.5352 -0.9941
 2950SOL     OW 9244   0.742   2.511   6.350 -0.0517  0.3602 -0.2461
 2950SOL    HW1 9245   0.650   2.535   6.362  0.0863  0.7149  0.1334
 2950SOL    HW2 9246   0.739   2.419   6.322 -0.4812  0.0903  0.6358
 2951SOL     OW 9247   4.645   0.339   1.422  1.0270  0.2843 -0.6080
 2951SOL    HW1 9248   4.673   0.388   1.499 -0.3010  1.0164 -0.5491
 2951SOL    HW2 9249   4.673   0.392   1.347  1.5077  0.0301 -0.6126
 2952SOL     OW 9250   1.799   4.492   3.572 -0.5550  0.1489  0.3182
 2952SOL    HW1 9251   1.790   4.563   3.509  0.0849  0.0546  0.1119
 2952SOL    HW2 9252   1.808   4.535   3.656 -1.2893  0.2797  0.3324
 2953SOL     OW 9253   4.086   1.505   1.671 -1.0004 -0.1623  0.2163
 2953SOL    HW1 9254   4.067   1.590   1.711  0.6765  0.8514 -0.9655
 2953SOL    HW2 9255   4.012   1.489   1.612 -0.4079  1.5384 -1.0841
 2954SOL     OW 9256   3.083   3.063   4.354 -0.3514 -0.9002  0.4004
 2954SOL    HW1 9257   2.996   3.064   4.393 -0.4431  0.7456  0.2116
 2954SOL    HW2 9258   3.078   3.125   4.281  1.0761 -0.4146  0.6771
 2955SOL     OW 9259   0.741   6.161   6.316 -0.4524 -0.3012  0.2500
 2955SOL    HW1 9260   0.718   6.088   6.373  0.2779 -0.5684  0.2145
 2955SOL    HW2 9261   0.824   6.193   6.350  0.1506 -0.6493 -0.8247
 2956SOL     OW 9262   3.779   5.519   5.156  0.6185 -0.2337  0.3930
 2956SOL    HW1 9263   3.721   5.591   5.130  1.7069  0.4343 -0.2420
 2956SOL    HW2 9264   3.791   5.468   5.076 -2.8561 -3.1909  1.5058
 2957SOL     OW 9265   6.377   4.376   5.401  0.3132 -0.3441  0.1899
 2957SOL    HW1 9266   6.397   4.466   5.428  1.3253 -0.6897  0.6208
 2957SOL    HW2 9267   6.445   4.323   5.441  1.4992 -0.9724 -2.4949
 2958SOL     OW 9268   1.576   0.318   5.195 -0.5515  0.3209  0.0958
 2958SOL    HW1 9269   1.518   0.249   5.165 -1.8601  1.0840  0.7706
 2958SOL    HW2 9270   1.661   0.297   5.156 -1.3180 -0.7057 -1.0968
 2959SOL     OW 9271   6.937   3.829   2.647 -0.5258  1.0438  0.5099
 2959SOL    HW1 9272   6.907   3.821   2.557  1.1371 -1.6978  0.0728
 2959SOL    HW2 9273   6.867   3.791   2.700 -0.9472  1.4632  0.2561
 2960SOL     OW 9274   4.394   5.550   5.698 -0.2437 -0.0914  0.0142
 2960SOL    HW1 9275   4.409   5.461   5.669 -1.6058 -0.0608 -0.8527
 2960SOL    HW2 9276   4.302   5.552   5.724  0.1594  0.6739  1.5207
 2961SOL     OW 9277   3.650   6.198   1.200 -0.2391 -0.0774 -0.3407
 2961SOL    HW1 9278   3.620   6.159   1.282  2.5230 -1.9268 -0.0742
 2961SOL    HW2 9279   3.716   6.262   1.226 -1.7052  1.8229 -1.0319
 2962SOL     OW 9280   2.868   0.677   0.578 -0.1024 -0.3977 -0.5631
 2962SOL    HW1 9281   2.936   0.744   0.572  0.3328 -0.5974  1.4021
 2962SOL    HW2 9282   2.915   0.594   0.577 -0.5209 -0.6373 -1.4663
 2963SOL     OW 9283   4.256   5.732   3.929  0.2499  0.2512 -0.0146
 2963SOL    HW1 9284   4.295   5.670   3.991 -0.5906 -1.3126 -0.9980
 2963SOL    HW2 9285   4.168   5.748   3.962  0.8185  1.8017  0.8212
 2964SOL     OW 9286   0.401   4.840   2.862 -0.0299 -0.0574 -0.0092
 2964SOL    HW1 9287   0.480   4.843   2.808 -0.4154 -0.0014 -0.5702
 2964SOL    HW2 9288   0.421   4.774   2.929  0.8266  0.5737  0.3815
 2965SOL     OW 9289   2.133   5.967   5.476  0.7917 -0.1572 -0.0620
 2965SOL    HW1 9290   2.082   6.048   5.470  1.3375  0.2653  0.8934
 2965SOL    HW2 9291   2.080   5.909   5.530  1.1829  0.1844  0.7004
 2966SOL     OW 9292   2.378   3.844   0.149 -0.1017  0.0057 -0.2876
 2966SOL    HW1 9293   2.309   3.905   0.172 -0.5920 -1.0775  1.2940
 2966SOL    HW2 9294   2.332   3.767   0.114  0.3190 -0.4704  0.1772
 2967SOL     OW 9295   5.747   5.037   2.992 -0.6010  0.7049 -0.3065
 2967SOL    HW1 9296   5.807   4.991   2.933  0.3713  0.9613  0.4687
 2967SOL    HW2 9297   5.665   4.987   2.985 -0.5857  0.8453 -2.0176
 2968SOL     OW 9298   3.934   0.927   2.371  0.0072 -0.0168 -0.1180
 2968SOL    HW1 9299   3.932   0.853   2.432  0.2609 -0.9852 -1.2601
 2968SOL    HW2 9300   3.969   0.999   2.423 -1.7066 -0.2473  1.4644
 2969SOL     OW 9301   1.852   2.607   4.253 -0.1094 -0.6315 -0.2064
 2969SOL    HW1 9302   1.812   2.521   4.238  1.1929 -1.2353 -0.3020
 2969SOL    HW2 9303   1.933   2.606   4.203  0.7161  0.0587  1.0610
 2970SOL     OW 9304   3.495   6.651   1.900  0.1249  0.0442 -0.8998
 2970SOL    HW1 9305   3.585   6.668   1.929 -0.7737  0.9322  1.6095
 2970SOL    HW2 9306   3.469   6.731   1.854  0.1849  0.2962 -0.4929
 2971SOL     OW 9307   6.149   4.391   1.253 -0.2392 -0.3738  0.2035
 2971SOL    HW1 9308   6.126   4.369   1.162 -0.4557 -2.1684  0.6558
 2971SOL    HW2 9309   6.210   4.323   1.279 -0.4671 -0.0871  1.5363
 2972SOL     OW 9310   2.565   5.870   0.464  0.3003 -0.7330 -0.1533
 2972SOL    HW1 9311   2.472   5.852   0.478  0.0370  1.4552  1.5064
 2972SOL    HW2 9312   2.584   5.831   0.379 -2.1883 -1.0850 -0.6435
 2973SOL     OW 9313   2.475   2.027   2.259 -0.5565 -0.1074 -0.1110
 2973SOL    HW1 9314   2.403   2.012   2.320  0.0999 -0.8165  0.5140
 2973SOL    HW2 9315   2.443   2.095   2.200 -1.4792  0.0686  0.5724
 2974SOL     OW 9316   2.801   5.502   4.451 -0.3217  0.1043 -0.2354
 2974SOL    HW1 9317   2.723   5.550   4.426 -0.8040  0.1545  1.2295
 2974SOL    HW2 9318   2.874   5.555   4.418 -0.8916  0.6211 -0.6759
 2975SOL     OW 9319   6.235   4.091   3.537  0.6713  0.0995  0.3015
 2975SOL    HW1 9320   6.221   4.010   3.586  0.6354 -0.2686 -0.3025
 2975SOL    HW2 9321   6.203   4.160   3.596 -0.9138 -0.4633  0.1736
 2976SOL     OW 9322   2.292   3.942   1.988  0.3672  0.0585  0.3231
 2976SOL    HW1 9323   2.313   3.854   2.018  0.7261  0.2398  0.6105
 2976SOL    HW2 9324   2.341   4.000   2.047 -0.1335  0.4575  0.3576
 2977SOL     OW 9325   1.750   3.077   2.875  0.1365  0.3583 -0.3923
 2977SOL    HW1 9326   1.834   3.040   2.901  0.4847  1.8013  0.6801
 2977SOL    HW2 9327   1.770   3.167   2.851 -1.0557  0.6288 -0.4347
 2978SOL     OW 9328   2.206   1.814   1.685 -0.0784 -0.4321 -0.7333
 2978SOL    HW1 9329   2.165   1.733   1.655 -2.1763  0.3817 -0.2512
 2978SOL    HW2 9330   2.176   1.824   1.776  0.5204  0.6498 -0.6288
 2979SOL     OW 9331   2.293   3.406   0.253  0.3115  0.4788 -0.7216
 2979SOL    HW1 9332   2.342   3.410   0.172  2.3398 -0.8913  0.3406
 2979SOL    HW2 9333   2.353   3.440   0.320  0.1619 -1.7923  0.7150
 2980SOL     OW 9334   1.449   2.066   1.912 -0.2346  0.2023  0.3571
 2980SOL    HW1 9335   1.475   2.029   1.828  0.0520 -2.3211  1.4712
 2980SOL    HW2 9336   1.353   2.064   1.911 -0.2249 -0.9744  0.5323
 2981SOL     OW 9337   6.937   6.914   3.356  0.3083 -0.3685 -0.5304
 2981SOL    HW1 9338   6.959   6.945   3.444  0.2401 -1.6752 -0.0321
 2981SOL    HW2 9339   6.938   6.993   3.302  1.3541  0.3145  0.4372
 2982SOL     OW 9340   0.940   3.372   2.690  0.4792  0.0327  0.1022
 2982SOL    HW1 9341   0.983   3.444   2.644 -0.8158  0.5280 -0.3646
 2982SOL    HW2 9342   0.921   3.308   2.621 -0.1608  0.1334  0.1837
 2983SOL     OW 9343   4.855   3.437   4.573 -0.3345 -0.2668  0.2474
 2983SOL    HW1 9344   4.807   3.391   4.642 -1.1311 -0.1735 -0.2251
 2983SOL    HW2 9345   4.938   3.462   4.614 -1.1127  0.5084  1.4541
 2984SOL     OW 9346   2.940   2.508   1.617 -0.1712 -0.0591 -0.0822
 2984SOL    HW1 9347   2.947   2.492   1.711 -1.6984  0.3282  0.1383
 2984SOL    HW2 9348   2.901   2.427   1.582 -0.6547  0.2116 -0.1864
 2985SOL     OW 9349   5.509   6.557   1.157 -0.6815 -0.1724  0.8613
 2985SOL    HW1 9350   5.528   6.627   1.094  2.1544  0.0683  1.8788
 2985SOL    HW2 9351   5.457   6.600   1.225  0.1756  0.6981  0.9809
 2986SOL     OW 9352   1.372   5.095   6.918 -0.2259 -0.1930 -0.0103
 2986SOL    HW1 9353   1.301   5.069   6.977  1.3740  1.4852  2.8494
 2986SOL    HW2 9354   1.439   5.027   6.930 -0.1328 -0.1680 -0.3811
 2987SOL     OW 9355   4.300   4.047   1.948  0.5148  0.0007  0.0908
 2987SOL    HW1 9356   4.268   3.998   2.025  0.3853  0.0447  0.0662
 2987SOL    HW2 9357   4.222   4.092   1.915  0.8193  0.9983  0.6874
 2988SOL     OW 9358   3.877   3.824   4.681 -0.3337 -0.1232 -0.1218
 2988SOL    HW1 9359   3.947   3.833   4.618 -1.0625  1.0073 -0.7956
 2988SOL    HW2 9360   3.890   3.895   4.743  0.8141 -1.6512  1.5057
 2989SOL     OW 9361   6.535   0.958   1.176  0.3591 -0.4124  0.7699
 2989SOL    HW1 9362   6.489   0.969   1.260  0.1782  1.3352  0.4750
 2989SOL    HW2 9363   6.487   1.014   1.115  2.1881  0.5801  0.1786
 2990SOL     OW 9364   3.358   4.733   4.836 -0.2119 -0.3937 -0.2020
 2990SOL    HW1 9365   3.307   4.662   4.874 -0.6355 -1.0213 -1.8507
 2990SOL    HW2 9366   3.418   4.689   4.776  1.8888  0.3764  1.2047
 2991SOL     OW 9367   3.224   4.954   3.433 -0.1111 -0.3923 -0.0390
 2991SOL    HW1 9368   3.281   5.008   3.379  0.2596 -0.5221  0.2177
 2991SOL    HW2 9369   3.280   4.882   3.462 -0.9607 -1.7162 -1.5405
 2992SOL     OW 9370   0.201   0.600   3.160  0.7929  0.1657 -0.1618
 2992SOL    HW1 9371   0.254   0.596   3.240 -1.3638  1.2199  1.4336
 2992SOL    HW2 9372   0.186   0.693   3.146 -1.0210 -0.1130 -0.2449
 2993SOL     OW 9373   0.643   5.666   4.583  0.2798  0.5476  0.3935
 2993SOL    HW1 9374   0.656   5.700   4.672  2.4582 -0.9951  0.7566
 2993SOL    HW2 9375   0.575   5.599   4.593 -0.1100  0.9894  0.7205
 2994SOL     OW 9376   5.359   3.226   1.173 -0.2463 -0.0753 -0.8147
 2994SOL    HW1 9377   5.310   3.146   1.192  0.8762 -0.2724  1.7531
 2994SOL    HW2 9378   5.313   3.294   1.222 -0.5490  0.6589 -2.0890
 2995SOL     OW 9379   3.458   5.519   2.002  0.3621 -0.1863  0.2350
 2995SOL    HW1 9380   3.443   5.613   1.989  0.2034 -0.3323 -0.7465
 2995SOL    HW2 9381   3.381   5.477   1.963  0.8285 -0.7449 -0.1024
 2996SOL     OW 9382   5.178   6.686   3.531  0.3215  0.3428 -0.2759
 2996SOL    HW1 9383   5.093   6.645   3.549  0.6082  0.1201  0.6382
 2996SOL    HW2 9384   5.159   6.779   3.530 -0.3988  0.2508 -2.6993
 2997SOL     OW 9385   0.352   5.056   5.089  0.2614  0.3169  0.1809
 2997SOL    HW1 9386   0.362   5.092   5.177  0.7041 -0.8565  0.6313
 2997SOL    HW2 9387   0.418   4.987   5.083 -2.3738 -2.4438  0.4324
 2998SOL     OW 9388   2.488   0.078   2.384 -0.2944  0.2920 -0.5347
 2998SOL    HW1 9389   2.493   0.170   2.411 -2.1797  0.1526  0.4556
 2998SOL    HW2 9390   2.499   0.029   2.465  3.6575 -0.5731 -1.3791
 2999SOL     OW 9391   0.933   2.539   6.558 -0.1576 -0.0082  0.2502
 2999SOL    HW1 9392   1.018   2.536   6.513  0.9773 -1.4069  2.3025
 2999SOL    HW2 9393   0.869   2.515   6.491  1.5223 -2.8398 -0.5283
 3000SOL     OW 9394   6.511   3.012   3.586 -0.9265  0.0258 -0.1271
 3000SOL    HW1 9395   6.604   3.018   3.567 -1.2994  0.1236 -2.1576
 3000SOL    HW2 9396   6.505   3.027   3.680  0.9560  1.7050 -0.1975
 3001SOL     OW 9397   4.602   0.282   0.129 -0.1547  0.6791  0.9176
 3001SOL    HW1 9398   4.538   0.235   0.183 -1.0690  1.4295  0.5141
 3001SOL    HW2 9399   4.615   0.226   0.053  1.2324 -0.4465  1.9130
 3002SOL     OW 9400   6.055   5.896   0.756 -0.3259 -0.0544 -0.1396
 3002SOL    HW1 9401   6.145   5.883   0.785 -0.2580  0.2233 -0.2293
 3002SOL    HW2 9402   6.044   5.835   0.683 -0.4963 -0.7585  0.4550
 3003SOL     OW 9403   5.631   1.224   2.154 -0.1303  0.3307  0.6944
 3003SOL    HW1 9404   5.659   1.213   2.245  1.4035  2.1611  0.5050
 3003SOL    HW2 9405   5.564   1.156   2.141 -0.6391  0.2390  3.2728
 3004SOL     OW 9406   6.356   0.947   1.373  0.2679 -0.0091  0.4978
 3004SOL    HW1 9407   6.273   0.902   1.357 -0.7609  1.5593  1.1490
 3004SOL    HW2 9408   6.389   0.908   1.454 -0.6238  0.3806  1.0716
 3005SOL     OW 9409   4.921   6.750   2.034  0.4971  0.0969 -0.1748
 3005SOL    HW1 9410   4.903   6.787   2.121  2.0275 -0.8781  0.6122
 3005SOL    HW2 9411   4.989   6.807   1.999 -0.4108  0.7356 -0.9387
 3006SOL     OW 9412   1.996   1.852   4.619  0.4914 -0.5515  0.0638
 3006SOL    HW1 9413   1.932   1.783   4.633 -2.1765  1.2816 -2.1702
 3006SOL    HW2 9414   1.965   1.924   4.673  3.0553 -0.8323  2.1087
 3007SOL     OW 9415   1.320   2.064   4.429  0.2855 -0.1478 -0.4358
 3007SOL    HW1 9416   1.352   2.150   4.457  0.1626 -0.4609  0.7505
 3007SOL    HW2 9417   1.227   2.077   4.410  0.3913  0.0918 -0.7981
 3008SOL     OW 9418   3.860   2.629   4.738 -0.0540  0.0475  0.2599
 3008SOL    HW1 9419   3.877   2.719   4.708  0.2810  0.0720  0.5254
 3008SOL    HW2 9420   3.797   2.595   4.674 -0.6621  0.6784  0.5004
 3009SOL     OW 9421   6.121   3.368   1.708  0.3018  0.2259  0.0905
 3009SOL    HW1 9422   6.090   3.304   1.771  0.2225  0.3209  0.1494
 3009SOL    HW2 9423   6.188   3.322   1.657  0.9713  0.3913  0.7962
 3010SOL     OW 9424   5.879   3.956   3.792 -0.2886 -0.4457 -0.0608
 3010SOL    HW1 9425   5.939   3.883   3.773  0.2856 -0.3674  1.3160
 3010SOL    HW2 9426   5.921   4.003   3.864 -1.0644  0.7722 -0.3748
 3011SOL     OW 9427   4.266   6.176   2.648  0.5072 -0.0148  0.3473
 3011SOL    HW1 9428   4.208   6.184   2.724 -0.3550  2.2511 -0.4714
 3011SOL    HW2 9429   4.340   6.233   2.669  0.3725  0.4456 -0.4189
 3012SOL     OW 9430   6.576   1.152   5.684 -0.2663  0.2901 -0.1169
 3012SOL    HW1 9431   6.542   1.083   5.741  0.9866  0.2636  0.6300
 3012SOL    HW2 9432   6.523   1.146   5.605 -0.9187 -0.7920  0.3831
 3013SOL     OW 9433   3.924   0.438   3.982  0.0015 -0.6607  0.1765
 3013SOL    HW1 9434   3.928   0.429   3.887 -1.6052 -0.1606  0.0219
 3013SOL    HW2 9435   3.909   0.531   3.997  1.1459 -0.5805  0.9835
 3014SOL     OW 9436   4.649   5.606   1.384  0.7821 -0.1026 -0.2416
 3014SOL    HW1 9437   4.682   5.618   1.296  1.2165 -3.8926 -0.7415
 3014SOL    HW2 9438   4.614   5.692   1.409  2.1044  1.4873 -3.4156
 3015SOL     OW 9439   2.819   6.585   3.987 -0.2744 -0.3667  0.2771
 3015SOL    HW1 9440   2.761   6.579   3.911  0.0798  1.2642 -0.1531
 3015SOL    HW2 9441   2.873   6.506   3.983 -0.4951 -0.4675 -0.9687
 3016SOL     OW 9442   4.688   0.124   4.202  0.7372  0.1641  0.5584
 3016SOL    HW1 9443   4.636   0.169   4.269 -0.5862  0.0340 -0.3490
 3016SOL    HW2 9444   4.720   0.045   4.246  1.7422  1.1449  1.6784
 3017SOL     OW 9445   4.927   3.304   2.620 -0.3084  0.4487 -0.1183
 3017SOL    HW1 9446   4.883   3.372   2.671 -2.9350 -0.9962 -0.3090
 3017SOL    HW2 9447   4.874   3.225   2.633  1.9323 -1.2944 -0.8819
 3018SOL     OW 9448   0.873   0.692   3.962  0.3651 -0.2547 -0.5982
 3018SOL    HW1 9449   0.911   0.773   3.929  0.0451 -0.3116 -1.1150
 3018SOL    HW2 9450   0.778   0.709   3.963  0.3199 -0.5163 -0.4246
 3019SOL     OW 9451   1.478   2.001   2.755  0.2695  0.4967 -0.1839
 3019SOL    HW1 9452   1.486   1.906   2.752  0.2108  0.5029 -0.5740
 3019SOL    HW2 9453   1.399   2.020   2.705  0.6157  0.7898 -0.6332
 3020SOL     OW 9454   0.067   5.530   2.917 -0.0167 -0.7573  0.3164
 3020SOL    HW1 9455  -0.015   5.537   2.966 -0.6175  0.7583 -0.7875
 3020SOL    HW2 9456   0.085   5.437   2.911 -1.8337 -1.1334  0.3456
 3021SOL     OW 9457   6.231   0.520   3.412  0.4189 -0.2219 -0.0490
 3021SOL    HW1 9458   6.182   0.585   3.363 -1.5804 -0.9038  0.9255
 3021SOL    HW2 9459   6.218   0.543   3.504 -0.3119 -1.9039  0.3227
 3022SOL     OW 9460   3.356   0.027   5.666  0.1579 -0.0795 -0.0804
 3022SOL    HW1 9461   3.352  -0.068   5.659  1.4329 -0.1955  0.5211
 3022SOL    HW2 9462   3.265   0.055   5.674 -0.4148 -1.0485 -2.4537
 3023SOL     OW 9463   3.988   4.564   1.870  0.2248 -0.0017  0.9897
 3023SOL    HW1 9464   4.066   4.605   1.908  0.3666  0.1157  0.5745
 3023SOL    HW2 9465   3.943   4.635   1.826  1.6728 -0.6490 -1.7663
 3024SOL     OW 9466   4.361   4.049   6.035 -0.0079  0.5118  0.5522
 3024SOL    HW1 9467   4.363   3.979   6.099  2.5384  1.3298  1.5056
 3024SOL    HW2 9468   4.453   4.068   6.017 -0.5433  3.7805  0.5805
 3025SOL     OW 9469   0.608   5.884   6.836 -0.4177 -0.0455  0.1253
 3025SOL    HW1 9470   0.643   5.972   6.824 -1.9038  0.7163  1.1232
 3025SOL    HW2 9471   0.603   5.848   6.748  0.8646  0.5897 -0.2336
 3026SOL     OW 9472   1.118   4.926   5.250  0.3985 -0.2406 -0.1960
 3026SOL    HW1 9473   1.200   4.972   5.267  0.3065  0.4775 -1.5165
 3026SOL    HW2 9474   1.051   4.994   5.259  0.1840 -0.2691 -1.3382
 3027SOL     OW 9475   0.789   3.066   2.743 -0.3182  0.1815 -0.1152
 3027SOL    HW1 9476   0.754   2.978   2.733 -1.0082  0.4630 -0.3064
 3027SOL    HW2 9477   0.808   3.095   2.654 -1.7591  0.8568 -0.2446
 3028SOL     OW 9478   3.138   2.110   5.310  0.1131  0.1480  0.0889
 3028SOL    HW1 9479   3.094   2.077   5.388 -1.8406  1.0389 -0.5599
 3028SOL    HW2 9480   3.201   2.042   5.287 -0.8759 -1.1680  1.1437
 3029SOL     OW 9481   1.812   5.254   1.180 -0.1094 -0.2079  0.8059
 3029SOL    HW1 9482   1.773   5.193   1.117 -0.1501 -0.4469  1.0610
 3029SOL    HW2 9483   1.738   5.287   1.231 -0.2646  1.1050 -0.2223
 3030SOL     OW 9484   2.863   1.129   6.374  0.4474  0.0194  0.3695
 3030SOL    HW1 9485   2.955   1.155   6.379  0.0753  1.2285  1.2209
 3030SOL    HW2 9486   2.815   1.209   6.354 -0.5453 -0.3626  1.1014
 3031SOL     OW 9487   6.584   6.599   4.469  0.7844  0.2106 -0.0104
 3031SOL    HW1 9488   6.597   6.547   4.390  1.8800 -1.1028  0.9878
 3031SOL    HW2 9489   6.554   6.536   4.534  1.0306  1.0424  0.9300
 3032SOL     OW 9490   0.951   1.760   1.122 -0.4981 -0.6659 -0.3084
 3032SOL    HW1 9491   0.976   1.689   1.181 -0.4224 -0.2953  0.1120
 3032SOL    HW2 9492   0.862   1.738   1.095 -1.6487  0.5652  2.1752
 3033SOL     OW 9493   2.582   4.590   0.390  0.1251  0.0821 -0.4097
 3033SOL    HW1 9494   2.612   4.680   0.376 -0.2533  0.0163 -1.9009
 3033SOL    HW2 9495   2.635   4.537   0.330  0.6590 -0.7767  0.7747
 3034SOL     OW 9496   4.212   0.238   0.526 -0.3233  0.0021  0.0579
 3034SOL    HW1 9497   4.258   0.250   0.443  0.9127 -0.7019  0.6147
 3034SOL    HW2 9498   4.178   0.324   0.547  0.5583  0.5024 -0.4865
 3035SOL     OW 9499   3.000   6.068   1.196 -0.2172  0.4856  0.0342
 3035SOL    HW1 9500   2.999   5.998   1.261 -2.1012 -0.5310 -1.0040
 3035SOL    HW2 9501   3.058   6.037   1.128 -0.2713  0.3793  0.0366
 3036SOL     OW 9502   6.669   6.866   2.392 -0.0869  0.0614  0.6057
 3036SOL    HW1 9503   6.728   6.838   2.462 -0.2262 -0.8299  0.3785
 3036SOL    HW2 9504   6.603   6.919   2.436  1.3110  1.7940  0.7567
 3037SOL     OW 9505   2.995   2.597   3.386  0.3441 -0.6543 -0.1850
 3037SOL    HW1 9506   2.984   2.597   3.291 -1.1837 -1.6910 -0.0531
 3037SOL    HW2 9507   3.082   2.634   3.400  0.9549 -1.2541 -2.0260
 3038SOL     OW 9508   5.495   4.670   4.757 -0.2787  0.2502 -0.2704
 3038SOL    HW1 9509   5.536   4.755   4.772  1.6025 -0.7252  0.2778
 3038SOL    HW2 9510   5.531   4.613   4.824 -3.8023 -0.3461  1.3688
 3039SOL     OW 9511   1.140   0.256   1.414  0.4626  0.1880  0.1486
 3039SOL    HW1 9512   1.159   0.189   1.480  0.9582 -0.7395 -0.8998
 3039SOL    HW2 9513   1.214   0.253   1.353 -0.6707 -0.0811 -1.3013
 3040SOL     OW 9514   5.390   6.489   3.198 -0.5442 -0.2690 -0.3169
 3040SOL    HW1 9515   5.372   6.574   3.238  0.6586 -0.6004  1.0473
 3040SOL    HW2 9516   5.422   6.435   3.271  1.1897 -1.0890 -1.6078
 3041SOL     OW 9517   6.585   1.509   6.405 -0.2748  0.5382 -0.1100
 3041SOL    HW1 9518   6.648   1.520   6.334 -0.0168 -0.2029 -0.0089
 3041SOL    HW2 9519   6.632   1.458   6.471 -1.1404 -0.5230 -0.2716
 3042SOL     OW 9520   6.829   1.862   6.739  0.1169  0.4747 -0.2275
 3042SOL    HW1 9521   6.761   1.877   6.674  0.0852  0.6251 -0.1602
 3042SOL    HW2 9522   6.856   1.771   6.726  2.8484  1.4929 -3.0880
 3043SOL     OW 9523   2.924   5.298   1.926 -0.1223 -0.4092  0.0786
 3043SOL    HW1 9524   2.932   5.388   1.894  1.1055 -0.9717 -1.2961
 3043SOL    HW2 9525   2.842   5.298   1.976 -0.4902  1.3000 -0.4526
 3044SOL     OW 9526   0.368   0.347   2.747  0.1602  0.2195 -0.7643
 3044SOL    HW1 9527   0.305   0.285   2.784  0.5848  0.4684  0.4191
 3044SOL    HW2 9528   0.342   0.356   2.656 -2.3073  1.2820 -0.0266
 3045SOL     OW 9529   5.263   3.640   6.293  0.3111 -0.0581  0.1572
 3045SOL    HW1 9530   5.243   3.613   6.382  1.1185  1.8008  0.9473
 3045SOL    HW2 9531   5.358   3.640   6.288  0.2736 -1.0554 -1.0243
 3046SOL     OW 9532   4.124   4.025   1.545  0.1990 -0.4013  0.3674
 3046SOL    HW1 9533   4.069   3.955   1.510 -1.1329  0.3584  0.8699
 3046SOL    HW2 9534   4.084   4.106   1.513  1.0547  0.1781  0.7092
 3047SOL     OW 9535   1.498   6.725   0.979  0.0754  0.2850  0.0385
 3047SOL    HW1 9536   1.471   6.793   1.042 -1.2861  0.3176 -0.5349
 3047SOL    HW2 9537   1.561   6.672   1.027 -0.3219  0.7881  1.1626
 3048SOL     OW 9538   2.839   6.842   2.043 -0.1098  0.5087  0.9817
 3048SOL    HW1 9539   2.821   6.841   1.949 -0.9619  1.2257  1.1253
 3048SOL    HW2 9540   2.933   6.824   2.050 -0.2076 -0.4252  0.0496
 3049SOL     OW 9541   0.917   4.250   3.534  1.0842  0.1720  0.1295
 3049SOL    HW1 9542   0.879   4.167   3.505 -0.7896  0.4555  1.6137
 3049SOL    HW2 9543   1.001   4.226   3.572  2.8083 -0.4288 -3.6167
 3050SOL     OW 9544   3.392   2.374   3.093  0.0664 -0.0834  0.2147
 3050SOL    HW1 9545   3.368   2.446   3.151  1.5392  1.7114 -1.2723
 3050SOL    HW2 9546   3.345   2.393   3.012 -1.0559 -1.9198  0.3725
 3051SOL     OW 9547   6.308   1.355   3.817  0.0219  0.3901  0.3962
 3051SOL    HW1 9548   6.374   1.404   3.866  1.1093  0.2931 -0.9276
 3051SOL    HW2 9549   6.338   1.265   3.819  0.7061  0.5369 -1.3452
 3052SOL     OW 9550   3.928   5.038   4.389 -0.9199 -0.4494  0.1318
 3052SOL    HW1 9551   3.921   4.974   4.460 -1.2184 -0.4673  0.0856
 3052SOL    HW2 9552   3.975   4.991   4.319 -0.0775 -0.2352  0.5451
 3053SOL     OW 9553   1.021   3.102   3.902 -0.0436 -0.6252  0.4658
 3053SOL    HW1 9554   0.984   3.165   3.840 -0.0167 -1.2869 -0.2469
 3053SOL    HW2 9555   1.096   3.146   3.941  0.7568 -0.6646 -0.9798
 3054SOL     OW 9556   5.373   6.911   1.194  0.1170  0.1070 -0.0201
 3054SOL    HW1 9557   5.392   6.844   1.128  0.6043  0.6792 -0.4688
 3054SOL    HW2 9558   5.446   6.906   1.255  0.8281  1.0961 -0.7656
 3055SOL     OW 9559   4.619   5.705   2.309 -0.1865 -0.2213  0.2912
 3055SOL    HW1 9560   4.527   5.710   2.337  0.2790 -0.1816  1.9567
 3055SOL    HW2 9561   4.667   5.746   2.381  1.2494 -1.5490  0.1319
 3056SOL     OW 9562   6.162   2.585   0.408 -0.2144 -0.1078 -0.0540
 3056SOL    HW1 9563   6.134   2.614   0.322 -0.1592 -0.1201 -0.0762
 3056SOL    HW2 9564   6.092   2.526   0.437  1.2179 -2.7248 -1.4632
 3057SOL     OW 9565   0.921   2.604   1.267  0.1989 -0.3360  0.2695
 3057SOL    HW1 9566   0.908   2.611   1.173  1.0868  1.2212  0.2386
 3057SOL    HW2 9567   0.867   2.530   1.293 -1.0720  0.0038 -1.2703
 3058SOL     OW 9568   6.218   3.755   6.780 -0.0939  0.2016 -0.1656
 3058SOL    HW1 9569   6.175   3.756   6.866  1.2628  2.2142  0.5710
 3058SOL    HW2 9570   6.269   3.675   6.779 -1.0327 -0.4234  0.4164
 3059SOL     OW 9571   1.877   1.182   6.023  0.2972 -0.2769 -0.1267
 3059SOL    HW1 9572   1.883   1.090   5.997  0.5991 -0.5408  0.8119
 3059SOL    HW2 9573   1.906   1.231   5.946 -1.6271 -0.8545 -1.2823
 3060SOL     OW 9574   0.986   6.911   4.223  0.5141  0.5339 -0.0072
 3060SOL    HW1 9575   0.967   6.936   4.133 -2.8616  0.1135  0.4581
 3060SOL    HW2 9576   0.924   6.962   4.276  0.3283 -1.4170  1.7941
 3061SOL     OW 9577   0.379   2.687   3.020  0.1891 -0.4171  0.8101
 3061SOL    HW1 9578   0.352   2.764   2.971  0.4953 -0.7300  0.1341
 3061SOL    HW2 9579   0.305   2.626   3.013 -0.0319 -0.2076  1.2996
 3062SOL     OW 9580   4.778   6.882   4.349  0.0938 -0.7502 -0.2993
 3062SOL    HW1 9581   4.869   6.874   4.322 -0.3350  2.1278 -3.1372
 3062SOL    HW2 9582   4.782   6.893   4.444  2.6610 -0.9671 -0.3074
 3063SOL     OW 9583   6.447   1.478   4.183 -0.0693 -0.0928 -0.1439
 3063SOL    HW1 9584   6.362   1.518   4.164 -0.7374 -1.1895  0.4804
 3063SOL    HW2 9585   6.441   1.390   4.147  0.9855 -0.0418 -0.4944
 3064SOL     OW 9586   5.382   1.577   3.034  0.2190 -0.2952 -0.7671
 3064SOL    HW1 9587   5.478   1.577   3.026  0.2877  1.2315 -0.2838
 3064SOL    HW2 9588   5.351   1.548   2.948  1.1025 -0.2794 -1.1045
 3065SOL     OW 9589   3.161   4.628   6.045  0.2520  0.3276  0.8000
 3065SOL    HW1 9590   3.154   4.535   6.025  0.6652  0.4435  0.0631
 3065SOL    HW2 9591   3.136   4.672   5.963  0.0439  0.8601  1.1488
 3066SOL     OW 9592   4.786   2.073   1.374 -0.1194  0.5769 -0.1583
 3066SOL    HW1 9593   4.762   1.982   1.354  1.6854  0.1532 -0.5717
 3066SOL    HW2 9594   4.823   2.107   1.293  0.1400  1.3470  0.2724
 3067SOL     OW 9595   2.671   4.784   5.801  0.4769  0.2688  0.1920
 3067SOL    HW1 9596   2.680   4.875   5.774 -0.0249 -0.2005 -1.7198
 3067SOL    HW2 9597   2.756   4.745   5.783 -0.3694 -0.4812 -2.7393
 3068SOL     OW 9598   5.707   5.917   1.002  0.0369 -0.0663  0.4388
 3068SOL    HW1 9599   5.648   5.991   1.018 -2.0850 -1.5128 -0.2446
 3068SOL    HW2 9600   5.711   5.871   1.085  0.0395 -0.0882  0.4265
 3069SOL     OW 9601   1.297   0.189   2.916 -0.0538  0.2229  0.6527
 3069SOL    HW1 9602   1.318   0.100   2.884  1.3656  0.7217  0.0898
 3069SOL    HW2 9603   1.237   0.224   2.851  1.6287  0.6756 -0.7275
 3070SOL     OW 9604   4.086   3.960   6.353  0.3793  0.4173 -0.5352
 3070SOL    HW1 9605   4.069   4.053   6.337  0.3694  0.5287  0.1234
 3070SOL    HW2 9606   4.044   3.941   6.437 -1.1536 -0.6170 -1.4822
 3071SOL     OW 9607   5.120   0.984   6.151 -0.1848  0.1373 -0.2913
 3071SOL    HW1 9608   5.214   0.979   6.164 -0.1790  0.6722 -0.0883
 3071SOL    HW2 9609   5.110   1.022   6.063 -0.2017  0.7602 -0.0273
 3072SOL     OW 9610   4.806   3.229   3.321 -0.1159 -0.2356  0.1784
 3072SOL    HW1 9611   4.853   3.238   3.404 -0.8756 -1.3543  0.7464
 3072SOL    HW2 9612   4.868   3.185   3.263 -0.3397 -1.4684  0.8434
 3073SOL     OW 9613   2.731   6.232   5.792  0.3234 -0.1578 -0.0468
 3073SOL    HW1 9614   2.677   6.277   5.857 -1.3164 -0.3852 -1.1946
 3073SOL    HW2 9615   2.691   6.145   5.783  0.3590 -0.0604 -1.4932
 3074SOL     OW 9616   3.953   4.339   2.828  0.0806 -0.6221 -0.6282
 3074SOL    HW1 9617   3.961   4.349   2.734  0.3929 -0.7314 -0.6140
 3074SOL    HW2 9618   4.043   4.334   2.860 -0.0237 -0.7132 -0.3400
 3075SOL     OW 9619   6.132   2.868   3.894  0.5118  0.3507 -0.1557
 3075SOL    HW1 9620   6.226   2.849   3.896  0.2482 -1.3432 -1.3294
 3075SOL    HW2 9621   6.096   2.817   3.967  0.0718 -2.3417 -2.0768
 3076SOL     OW 9622   4.927   0.955   1.559  0.1409 -0.0136 -0.1743
 3076SOL    HW1 9623   4.901   0.935   1.469  1.5660 -4.2310  0.1178
 3076SOL    HW2 9624   5.022   0.969   1.553  0.4132 -1.2780  0.6850
 3077SOL     OW 9625   6.487   0.526   2.539 -0.1247 -0.4760 -0.0960
 3077SOL    HW1 9626   6.464   0.536   2.631 -0.3602 -0.2763 -0.1783
 3077SOL    HW2 9627   6.492   0.431   2.526 -1.9002 -0.5757 -0.3189
 3078SOL     OW 9628   2.990   6.254   4.380  0.1895 -0.7197  0.3916
 3078SOL    HW1 9629   2.916   6.213   4.336 -0.0656 -0.1239  0.2442
 3078SOL    HW2 9630   2.974   6.240   4.473 -0.9934  0.7979  0.4710
 3079SOL     OW 9631   1.201   5.935   5.141 -0.3185  0.6241  0.0742
 3079SOL    HW1 9632   1.170   5.865   5.083 -0.6622  1.6961 -1.0910
 3079SOL    HW2 9633   1.136   5.939   5.211  0.1657 -0.7765  0.6433
 3080SOL     OW 9634   6.912   2.332   0.678 -0.0021 -0.6534 -0.2909
 3080SOL    HW1 9635   6.936   2.353   0.768  1.0298 -1.3591 -0.3808
 3080SOL    HW2 9636   6.819   2.311   0.681 -0.4469  1.2127  0.2591
 3081SOL     OW 9637   2.085   1.616   4.811  0.0398  0.3852 -0.1038
 3081SOL    HW1 9638   2.129   1.587   4.892 -0.4097 -1.0591 -0.3541
 3081SOL    HW2 9639   2.011   1.667   4.842  1.3751  2.1534  0.3394
 3082SOL     OW 9640   2.222   2.941   3.705 -0.7738 -0.0596  0.0506
 3082SOL    HW1 9641   2.294   2.890   3.742 -0.3938  1.3228  1.3063
 3082SOL    HW2 9642   2.206   2.900   3.619  1.4675 -0.4358 -0.2649
 3083SOL     OW 9643   5.677   0.337   2.923 -0.7504 -0.3256  0.1176
 3083SOL    HW1 9644   5.739   0.398   2.962 -0.6584 -1.1161  1.2525
 3083SOL    HW2 9645   5.699   0.252   2.961 -1.3867 -0.9375 -0.8259
 3084SOL     OW 9646   0.737   6.131   6.823 -0.1217 -0.4334  0.4977
 3084SOL    HW1 9647   0.727   6.220   6.790 -0.2264 -0.5009  0.3478
 3084SOL    HW2 9648   0.818   6.099   6.782  0.5874  0.0135  1.4897
 3085SOL     OW 9649   0.982   0.641   6.614  0.7853  0.2120 -0.0002
 3085SOL    HW1 9650   1.053   0.700   6.640  0.6741 -0.7796  3.0484
 3085SOL    HW2 9651   0.919   0.648   6.686 -1.6561  0.1086 -2.0146
 3086SOL     OW 9652   2.707   3.118   2.354  0.0242  0.1221 -0.0218
 3086SOL    HW1 9653   2.742   3.189   2.301 -0.5294 -0.5686 -1.3600
 3086SOL    HW2 9654   2.783   3.061   2.371 -0.0976 -0.5478 -1.5693
 3087SOL     OW 9655   3.409   4.692   0.782  0.5265  0.1911 -0.7866
 3087SOL    HW1 9656   3.388   4.668   0.872  0.4703 -2.4825 -1.4212
 3087SOL    HW2 9657   3.348   4.761   0.760 -0.1074  0.2094  0.9136
 3088SOL     OW 9658   1.520   6.545   1.676  0.0899  0.1180  0.3789
 3088SOL    HW1 9659   1.467   6.466   1.679  1.5867 -0.9394  0.0640
 3088SOL    HW2 9660   1.609   6.515   1.694  0.7332  1.7026  0.0176
 3089SOL     OW 9661   5.099   3.019   2.350 -0.0893 -0.3678  0.1509
 3089SOL    HW1 9662   5.154   3.010   2.272  0.7397 -0.1019  0.6934
 3089SOL    HW2 9663   5.058   3.105   2.341 -0.5502 -0.6326 -0.3322
 3090SOL     OW 9664   4.095   6.665   2.951  0.1343  0.5749  0.3616
 3090SOL    HW1 9665   4.179   6.643   2.990  0.4286 -0.6671 -0.8928
 3090SOL    HW2 9666   4.108   6.752   2.913  1.0317  0.1681 -0.2835
 3091SOL     OW 9667   4.789   6.651   0.065 -0.6616  0.2898  0.1499
 3091SOL    HW1 9668   4.805   6.663  -0.029 -0.6756 -0.0640  0.1014
 3091SOL    HW2 9669   4.812   6.559   0.081 -1.5155  0.0984  0.3096
 3092SOL     OW 9670   3.248   3.591   4.424  0.7809 -0.4435  0.0807
 3092SOL    HW1 9671   3.320   3.653   4.439 -0.1162  0.8959 -0.8943
 3092SOL    HW2 9672   3.225   3.603   4.332 -1.8766  0.5521  0.7660
 3093SOL     OW 9673   3.089   0.096   2.352  0.1290  0.1646  0.2825
 3093SOL    HW1 9674   3.028   0.024   2.337  0.5686 -0.6838  2.1757
 3093SOL    HW2 9675   3.033   0.171   2.373 -0.3340  0.4408 -1.7347
 3094SOL     OW 9676   3.754   5.323   0.490 -0.3875 -0.4602 -1.0245
 3094SOL    HW1 9677   3.666   5.298   0.518 -0.1331 -0.1893  0.0724
 3094SOL    HW2 9678   3.742   5.404   0.441 -0.5269  0.9827  1.2690
 3095SOL     OW 9679   2.968   6.128   6.865  0.2015  0.2898  0.2126
 3095SOL    HW1 9680   3.062   6.115   6.878  0.4760 -0.0077 -1.7833
 3095SOL    HW2 9681   2.951   6.094   6.777 -1.9908 -0.6744  0.9326
 3096SOL     OW 9682   5.286   2.991   2.160  0.0023  0.5374  0.0080
 3096SOL    HW1 9683   5.367   2.957   2.198 -0.6504 -1.3362 -0.1759
 3096SOL    HW2 9684   5.290   2.965   2.068 -0.7416  0.5393 -0.0319
 3097SOL     OW 9685   5.168   0.663   6.828 -0.6923  0.2699  0.1557
 3097SOL    HW1 9686   5.233   0.606   6.786  0.3522  0.8691  0.9099
 3097SOL    HW2 9687   5.113   0.603   6.878  0.9211 -0.0841  1.6377
 3098SOL     OW 9688   4.540   5.387   3.197  0.0828  0.0177  0.1518
 3098SOL    HW1 9689   4.522   5.294   3.211 -0.9419  0.2815  0.6951
 3098SOL    HW2 9690   4.549   5.422   3.286  0.6894  0.4000 -0.0561
 3099SOL     OW 9691   0.401   0.282   4.609 -0.0110  0.2039  0.3060
 3099SOL    HW1 9692   0.316   0.239   4.616  0.0754  0.0475  0.3929
 3099SOL    HW2 9693   0.451   0.248   4.683  1.1837 -2.0319 -1.4024
 3100SOL     OW 9694   3.235   1.339   6.218 -0.7948 -0.4789 -0.0910
 3100SOL    HW1 9695   3.179   1.354   6.142  1.1515  0.3926 -1.4227
 3100SOL    HW2 9696   3.226   1.419   6.271 -1.3241 -0.6322  0.0544
 3101SOL     OW 9697   6.346   3.625   1.376 -0.1956 -0.1994  0.7351
 3101SOL    HW1 9698   6.310   3.594   1.293 -1.9185  0.5730  1.1636
 3101SOL    HW2 9699   6.385   3.546   1.416 -1.9849 -1.2282  0.5373
 3102SOL     OW 9700   0.746   1.852   0.646 -0.0191  0.2256 -0.3931
 3102SOL    HW1 9701   0.727   1.921   0.710 -1.5557 -0.2102 -0.3409
 3102SOL    HW2 9702   0.663   1.840   0.598  0.3485 -1.2697 -0.6989
 3103SOL     OW 9703   6.404   1.980   5.067  0.2873 -0.3964  0.2638
 3103SOL    HW1 9704   6.358   1.896   5.064 -0.1708 -0.1305 -0.1612
 3103SOL    HW2 9705   6.469   1.968   5.137 -0.5388 -0.7164  1.0017
 3104SOL     OW 9706   0.509   0.651   1.520  0.3843 -0.0684  0.6022
 3104SOL    HW1 9707   0.438   0.650   1.455  0.1872 -0.9529  0.8110
 3104SOL    HW2 9708   0.584   0.615   1.474  0.1956 -0.8676  0.9085
 3105SOL     OW 9709   5.688   6.215   4.994 -0.3045 -0.3312 -0.1118
 3105SOL    HW1 9710   5.706   6.185   5.083  1.3537 -3.9373 -1.4734
 3105SOL    HW2 9711   5.593   6.208   4.984 -0.5094  0.1042  1.3003
 3106SOL     OW 9712   4.006   6.509   3.645  0.2913 -0.4341  0.0040
 3106SOL    HW1 9713   4.073   6.556   3.595  0.6076 -1.4299 -0.5465
 3106SOL    HW2 9714   3.964   6.576   3.699  0.3256  0.5817 -1.1833
 3107SOL     OW 9715   0.684   4.995   2.665  0.0032  0.7549  0.2327
 3107SOL    HW1 9716   0.657   5.061   2.728 -0.4858  0.1239  0.7073
 3107SOL    HW2 9717   0.604   4.972   2.619  0.2664  0.8567 -0.2759
 3108SOL     OW 9718   5.772   6.881   3.963 -0.3129 -0.0297  0.2359
 3108SOL    HW1 9719   5.820   6.961   3.983 -0.5135  0.2333 -0.3060
 3108SOL    HW2 9720   5.837   6.822   3.927 -0.0230 -0.3723  1.2860
 3109SOL     OW 9721   6.648   6.101   4.930 -0.2314 -0.2282 -0.0988
 3109SOL    HW1 9722   6.695   6.052   4.998 -0.7110 -1.1787 -0.4319
 3109SOL    HW2 9723   6.687   6.072   4.848 -0.4384  0.0559 -0.3009
 3110SOL     OW 9724   4.422   1.475   3.975  0.0915  0.4262 -0.4948
 3110SOL    HW1 9725   4.411   1.493   4.069 -0.9426 -0.4899 -0.4191
 3110SOL    HW2 9726   4.334   1.461   3.943  0.4493  0.6725 -1.6121
 3111SOL     OW 9727   4.022   6.582   1.053  0.0449 -0.5543  0.2867
 3111SOL    HW1 9728   4.094   6.639   1.025 -0.6584  0.8791  1.2737
 3111SOL    HW2 9729   3.964   6.578   0.977 -0.5303  1.1285  0.5915
 3112SOL     OW 9730   5.149   3.588   4.899  0.2331  0.3809 -0.3148
 3112SOL    HW1 9731   5.104   3.652   4.843 -0.5834  0.4118  0.3649
 3112SOL    HW2 9732   5.131   3.504   4.857 -1.7050  0.2315  0.7116
 3113SOL     OW 9733   1.405   5.442   3.221 -0.3539 -0.3085 -0.2174
 3113SOL    HW1 9734   1.443   5.497   3.153 -1.5063  2.2249  1.0314
 3113SOL    HW2 9735   1.478   5.421   3.279  0.0436  0.3884 -0.4525
 3114SOL     OW 9736   1.530   4.559   3.130 -0.3678  0.3332  0.2473
 3114SOL    HW1 9737   1.543   4.654   3.137  0.2220  0.2737  0.0222
 3114SOL    HW2 9738   1.447   4.543   3.175  0.3735  0.7298  1.8068
 3115SOL     OW 9739   5.830   6.026   0.413 -0.3891 -0.1414  0.0649
 3115SOL    HW1 9740   5.779   6.033   0.333  0.4834  1.2750 -0.3982
 3115SOL    HW2 9741   5.765   6.026   0.483 -1.1539 -1.3954 -0.6069
 3116SOL     OW 9742   2.845   6.290   2.784  0.7308 -0.0482 -0.2066
 3116SOL    HW1 9743   2.925   6.253   2.819  0.4423  0.9019  1.5992
 3116SOL    HW2 9744   2.869   6.378   2.756  0.4361  0.0581 -0.1337
 3117SOL     OW 9745   3.087   1.228   1.176 -0.0091  0.7905  0.5798
 3117SOL    HW1 9746   3.007   1.177   1.186 -0.5805  1.5081 -0.1841
 3117SOL    HW2 9747   3.066   1.314   1.212  0.4418  0.9606  0.4491
 3118SOL     OW 9748   2.036   5.861   5.128 -0.1298 -0.2858  0.2853
 3118SOL    HW1 9749   2.008   5.839   5.039 -0.1900  0.8188  0.0150
 3118SOL    HW2 9750   2.098   5.792   5.151 -1.8884 -1.9226  0.3120
 3119SOL     OW 9751   4.700   4.488   5.534 -0.3509 -0.3899  0.1027
 3119SOL    HW1 9752   4.734   4.566   5.490  0.5416 -0.7062  0.2129
 3119SOL    HW2 9753   4.713   4.506   5.628 -2.3913  0.3530  0.2926
 3120SOL     OW 9754   4.140   4.335   1.475 -0.3748  0.3062 -0.2681
 3120SOL    HW1 9755   4.230   4.317   1.447 -0.2164  1.3814 -0.5104
 3120SOL    HW2 9756   4.149   4.405   1.540 -0.8788 -0.9854  1.2580
 3121SOL     OW 9757   4.056   1.197   5.402  0.0291 -0.4877  0.1041
 3121SOL    HW1 9758   4.120   1.192   5.331  0.2195  0.7369  0.1674
 3121SOL    HW2 9759   4.105   1.174   5.481 -0.2322 -2.0695 -0.1472
 3122SOL     OW 9760   1.804   4.645   3.008  0.6019  0.2153 -0.8646
 3122SOL    HW1 9761   1.711   4.644   2.987 -0.4492  2.2354  2.7650
 3122SOL    HW2 9762   1.820   4.734   3.041  3.1095 -0.8242  1.0743
 3123SOL     OW 9763   2.486   3.515   3.992 -0.5835 -0.4184 -0.3419
 3123SOL    HW1 9764   2.529   3.593   4.025  2.9350 -1.0922 -2.7684
 3123SOL    HW2 9765   2.488   3.453   4.066  1.2776  0.1394  0.1161
 3124SOL     OW 9766   0.767   2.480   6.931 -0.0244  0.3485 -0.2797
 3124SOL    HW1 9767   0.767   2.463   7.025  0.4200 -1.6182 -0.5864
 3124SOL    HW2 9768   0.677   2.466   6.903  0.0754 -0.1899 -0.3268
 3125SOL     OW 9769   1.124   2.795   4.892  0.5416 -0.6830  0.4185
 3125SOL    HW1 9770   1.175   2.806   4.972  0.2047 -0.1007  0.5586
 3125SOL    HW2 9771   1.128   2.701   4.874  1.4193 -0.6850  0.5833
 3126SOL     OW 9772   1.176   1.458   5.099 -0.0971 -0.5555  0.7160
 3126SOL    HW1 9773   1.157   1.544   5.136  0.0925 -0.0425 -0.3437
 3126SOL    HW2 9774   1.141   1.396   5.164  0.1063  0.3004  1.6667
 3127SOL     OW 9775   4.425   6.751   3.432 -0.4672 -0.3803  0.4966
 3127SOL    HW1 9776   4.511   6.759   3.392 -0.9277 -0.8569 -0.6248
 3127SOL    HW2 9777   4.438   6.689   3.504  0.3693  0.4888  1.1276
 3128SOL     OW 9778   5.862   3.810   6.936  0.5333  0.3320  0.7808
 3128SOL    HW1 9779   5.868   3.903   6.956  1.5817  1.1706 -2.6856
 3128SOL    HW2 9780   5.770   3.797   6.911  0.4565  0.5153  0.9659
 3129SOL     OW 9781   3.875   0.278   3.578  0.2365 -0.2570 -0.3896
 3129SOL    HW1 9782   3.787   0.286   3.542  1.6928 -0.0272 -4.4827
 3129SOL    HW2 9783   3.898   0.367   3.604  0.0761  0.1969 -1.6991
 3130SOL     OW 9784   0.366   6.252   3.474 -0.1529 -0.0849 -0.6340
 3130SOL    HW1 9785   0.301   6.308   3.431 -0.6176  0.1538  0.3446
 3130SOL    HW2 9786   0.323   6.224   3.555  0.5021 -0.9431 -0.5652
 3131SOL     OW 9787   6.192   1.397   0.286  0.3774  0.2143 -0.3500
 3131SOL    HW1 9788   6.170   1.388   0.379  0.2502  2.6349 -0.0886
 3131SOL    HW2 9789   6.108   1.413   0.243  0.5491  0.0861 -0.7334
 3132SOL     OW 9790   6.577   0.357   3.106 -0.0464  0.7988 -0.5625
 3132SOL    HW1 9791   6.510   0.369   3.174  0.0097  1.2580 -0.5880
 3132SOL    HW2 9792   6.645   0.419   3.129  1.0982 -0.7308  0.3694
 3133SOL     OW 9793   6.626   6.808   3.418  0.1246  0.0426 -0.2803
 3133SOL    HW1 9794   6.560   6.869   3.386 -0.7372 -0.9169 -0.3792
 3133SOL    HW2 9795   6.709   6.853   3.403 -0.3241  0.2528 -2.5273
 3134SOL     OW 9796   5.667   1.924   0.633  0.3350  0.2278  0.0408
 3134SOL    HW1 9797   5.733   1.986   0.666 -0.7015  1.1460  0.4370
 3134SOL    HW2 9798   5.606   1.978   0.583 -0.4197 -0.5288  0.1227
 3135SOL     OW 9799   3.372   5.793   5.313  0.2566  0.3195 -0.4628
 3135SOL    HW1 9800   3.455   5.759   5.279 -0.3734  1.2325 -3.1066
 3135SOL    HW2 9801   3.307   5.766   5.249 -1.1913  1.3310  0.5218
 3136SOL     OW 9802   1.606   1.853   0.605  0.2640  0.4740  0.1483
 3136SOL    HW1 9803   1.599   1.766   0.643 -0.6363  0.4516 -0.0389
 3136SOL    HW2 9804   1.621   1.838   0.511 -1.3988  0.4905 -0.1454
 3137SOL     OW 9805   4.266   1.566   1.284 -0.3549  0.2615  0.1548
 3137SOL    HW1 9806   4.172   1.582   1.286 -0.0839  2.0215 -0.0351
 3137SOL    HW2 9807   4.276   1.479   1.323 -2.0480  0.0488  0.1807
 3138SOL     OW 9808   1.113   0.926   3.648  0.3005 -0.5296 -0.2964
 3138SOL    HW1 9809   1.178   0.956   3.584 -0.8454  0.6768 -0.9444
 3138SOL    HW2 9810   1.050   0.997   3.652  0.0069 -0.8695  1.7408
 3139SOL     OW 9811   5.022   2.746   1.122  0.4072  0.0676 -0.1203
 3139SOL    HW1 9812   4.953   2.724   1.186 -0.1176  0.7283 -0.4515
 3139SOL    HW2 9813   4.989   2.712   1.039  0.5186  0.3165 -0.2661
 3140SOL     OW 9814   1.892   1.671   0.214 -0.0705  0.5851 -0.0778
 3140SOL    HW1 9815   1.927   1.620   0.141 -1.0888  0.4402 -0.4852
 3140SOL    HW2 9816   1.967   1.687   0.271  0.4109 -0.7753 -0.2966
 3141SOL     OW 9817   6.646   4.467   6.715 -0.4673  0.5286 -0.3745
 3141SOL    HW1 9818   6.660   4.441   6.806 -1.8025  1.2337  0.0616
 3141SOL    HW2 9819   6.708   4.538   6.700 -1.3822  1.5573  0.5417
 3142SOL     OW 9820   3.034   2.172   5.625 -0.1438  0.3891 -0.5409
 3142SOL    HW1 9821   2.946   2.193   5.656  0.1943  0.7395  0.2002
 3142SOL    HW2 9822   3.043   2.078   5.639 -0.6254  0.2393 -1.2051
 3143SOL     OW 9823   1.143   5.946   3.346  0.1226  0.0081 -0.1397
 3143SOL    HW1 9824   1.080   5.910   3.408 -0.0461 -1.3216 -1.0551
 3143SOL    HW2 9825   1.092   5.960   3.266  0.4735  1.1330 -0.1834
 3144SOL     OW 9826   1.455   3.543   2.965  0.1312 -0.3338 -0.6308
 3144SOL    HW1 9827   1.427   3.624   3.008 -2.6360 -0.6931 -1.5627
 3144SOL    HW2 9828   1.480   3.485   3.037 -2.3003 -0.1664  0.4467
 3145SOL     OW 9829   1.152   3.715   0.379  0.0221 -0.2982 -0.4764
 3145SOL    HW1 9830   1.200   3.639   0.349 -1.3060 -1.1765 -0.4574
 3145SOL    HW2 9831   1.132   3.697   0.471  1.1558  0.8582  0.0356
 3146SOL     OW 9832   5.436   2.174   2.976  0.0451  0.1415 -0.0082
 3146SOL    HW1 9833   5.414   2.267   2.982 -0.3838  0.2835 -2.6868
 3146SOL    HW2 9834   5.354   2.129   2.998 -0.5764  0.4902 -1.5257
 3147SOL     OW 9835   6.355   1.751   6.836  0.6572 -0.5617 -0.5896
 3147SOL    HW1 9836   6.374   1.710   6.752  0.7168 -0.3088 -0.7022
 3147SOL    HW2 9837   6.271   1.714   6.863 -1.0438  1.7645 -2.3359
 3148SOL     OW 9838   2.147   4.902   2.324  0.0299 -0.3363  0.3115
 3148SOL    HW1 9839   2.171   4.810   2.316  0.8042 -0.2350  1.2951
 3148SOL    HW2 9840   2.052   4.901   2.338  0.0695 -0.9956  0.5726
 3149SOL     OW 9841   5.351   0.484   0.166  0.0778  0.4279  0.0503
 3149SOL    HW1 9842   5.345   0.575   0.138  1.0491  0.6666  0.5771
 3149SOL    HW2 9843   5.279   0.474   0.229  0.9251  1.3071  1.2064
 3150SOL     OW 9844   2.899   1.510   6.415  0.6094  0.3756 -0.6227
 3150SOL    HW1 9845   2.914   1.562   6.336  2.3490  1.1180  0.1463
 3150SOL    HW2 9846   2.977   1.524   6.468 -0.5541 -0.0345  1.2868
 3151SOL     OW 9847   0.899   3.417   4.451  0.2114 -0.4514 -0.0597
 3151SOL    HW1 9848   0.811   3.393   4.479  1.1915 -2.6386  1.3535
 3151SOL    HW2 9849   0.955   3.348   4.485  2.6471  1.4482  0.0335
 3152SOL     OW 9850   4.109   2.778   6.905 -0.3124  0.0239 -0.2331
 3152SOL    HW1 9851   4.035   2.778   6.966 -1.5360  1.4867 -1.6319
 3152SOL    HW2 9852   4.155   2.860   6.923 -1.2120  0.9282 -1.7935
 3153SOL     OW 9853   0.808   2.712   3.878  0.4611  0.2578 -0.1383
 3153SOL    HW1 9854   0.769   2.640   3.830  0.7962  0.0472 -0.1002
 3153SOL    HW2 9855   0.840   2.772   3.810  1.1696 -0.1658 -0.1923
 3154SOL     OW 9856   5.867   5.680   6.142  0.0010 -0.0607  0.2082
 3154SOL    HW1 9857   5.772   5.694   6.146  0.2083  1.6079 -0.0029
 3154SOL    HW2 9858   5.890   5.699   6.051  0.7249  1.0847  0.5967
 3155SOL     OW 9859   0.088   6.559   5.174  0.2499 -0.2126  0.0103
 3155SOL    HW1 9860   0.170   6.523   5.207 -0.5149 -0.8060  1.3511
 3155SOL    HW2 9861   0.072   6.636   5.229 -0.4066 -0.4716  0.1915
 3156SOL     OW 9862   1.459   4.402   2.200  0.1670  0.1337 -0.1105
 3156SOL    HW1 9863   1.471   4.493   2.228  3.7208  0.3396 -1.6657
 3156SOL    HW2 9864   1.413   4.361   2.272 -1.5776  3.1260  0.6621
 3157SOL     OW 9865   6.405   5.863   0.144  0.6338 -0.7327  0.4477
 3157SOL    HW1 9866   6.336   5.842   0.207  0.7520  0.1713  0.8906
 3157SOL    HW2 9867   6.392   5.801   0.073 -2.2491  1.0017 -0.7096
 3158SOL     OW 9868   6.835   6.579   1.168 -0.1266  0.3742 -0.2121
 3158SOL    HW1 9869   6.792   6.657   1.203 -0.8630  0.1939 -0.6993
 3158SOL    HW2 9870   6.895   6.613   1.101  0.4869  0.6218  0.4475
 3159SOL     OW 9871   6.743   3.310   4.065 -0.0502  0.4054  0.3215
 3159SOL    HW1 9872   6.724   3.303   3.971 -0.5562  1.5174  0.3303
 3159SOL    HW2 9873   6.813   3.375   4.070 -0.6407  1.0139  0.7776
 3160SOL     OW 9874   6.861   3.076   6.145  0.1095 -0.5808 -0.0335
 3160SOL    HW1 9875   6.874   3.166   6.175  0.2138 -1.1585  1.8012
 3160SOL    HW2 9876   6.924   3.065   6.073  1.4297  0.2564  0.9604
 3161SOL     OW 9877   6.204   5.844   4.060 -0.1648  0.4505  0.4479
 3161SOL    HW1 9878   6.186   5.860   4.153  0.5595 -0.4259  0.7498
 3161SOL    HW2 9879   6.161   5.761   4.041  0.2407  0.3035  0.1675
 3162SOL     OW 9880   0.659   6.777   5.058 -0.5318  0.0031 -0.2178
 3162SOL    HW1 9881   0.684   6.716   4.989 -1.0909  1.7167 -2.0567
 3162SOL    HW2 9882   0.566   6.760   5.073 -0.0902 -1.3521  1.2382
 3163SOL     OW 9883   6.088   5.170   2.904 -0.1408 -0.0073  0.1937
 3163SOL    HW1 9884   6.107   5.087   2.861 -0.5092 -0.0699  0.1509
 3163SOL    HW2 9885   6.156   5.179   2.970 -1.5978 -1.6465  2.0439
 3164SOL     OW 9886   1.548   3.143   4.995 -0.0943 -0.5575 -0.0619
 3164SOL    HW1 9887   1.555   3.054   4.961  0.6502 -0.2189 -0.8567
 3164SOL    HW2 9888   1.536   3.132   5.090  1.1501 -1.4974  0.0226
 3165SOL     OW 9889   3.432   0.242   6.539  0.0655 -0.0003 -0.2296
 3165SOL    HW1 9890   3.353   0.202   6.504 -0.2161 -0.1991  0.6350
 3165SOL    HW2 9891   3.447   0.200   6.623  0.3938  0.9050  0.1854
 3166SOL     OW 9892   6.813   3.801   3.230 -0.0801 -0.2511  0.5416
 3166SOL    HW1 9893   6.878   3.810   3.299 -0.7500  0.3385  1.1052
 3166SOL    HW2 9894   6.736   3.848   3.262 -0.5418 -0.3097 -0.4265
 3167SOL     OW 9895   5.545   4.771   6.751  0.5018 -0.0874 -0.1493
 3167SOL    HW1 9896   5.557   4.676   6.748  1.1231  0.0030 -1.0305
 3167SOL    HW2 9897   5.457   4.783   6.786 -0.4507 -1.0522 -2.0881
 3168SOL     OW 9898   6.067   4.318   4.695  0.1195  0.3478 -0.5523
 3168SOL    HW1 9899   6.148   4.321   4.745 -0.3221  0.6821  0.1528
 3168SOL    HW2 9900   5.998   4.323   4.761 -0.4706  0.8477 -1.1945
 3169SOL     OW 9901   6.806   5.377   1.056 -0.6970  0.3327 -0.3537
 3169SOL    HW1 9902   6.754   5.436   1.110 -0.3878  2.0509 -1.8156
 3169SOL    HW2 9903   6.756   5.371   0.974 -0.2701 -0.7590 -0.5511
 3170SOL     OW 9904   0.225   5.124   5.733  1.3349  0.2201 -0.3390
 3170SOL    HW1 9905   0.273   5.156   5.656  1.1098 -0.2687 -0.6842
 3170SOL    HW2 9906   0.198   5.036   5.709  0.2645  0.4883 -0.1443
 3171SOL     OW 9907   0.276   1.106   5.933 -0.1155 -0.2979 -0.1088
 3171SOL    HW1 9908   0.297   1.170   6.001 -0.1970  0.7527 -1.0372
 3171SOL    HW2 9909   0.209   1.149   5.880 -0.1370 -1.1431 -0.7878
 3172SOL     OW 9910   5.176   5.209   1.476  0.2312  0.4835 -0.0034
 3172SOL    HW1 9911   5.085   5.192   1.502  0.7519  0.4578  2.0427
 3172SOL    HW2 9912   5.170   5.271   1.404 -1.4257 -0.1270 -0.4309
 3173SOL     OW 9913   5.006   5.346   0.099 -0.3201  0.0932  1.0757
 3173SOL    HW1 9914   5.022   5.416   0.035 -2.1960 -0.2975  0.1047
 3173SOL    HW2 9915   4.924   5.372   0.142 -0.7627 -1.2316  1.0716
 3174SOL     OW 9916   5.382   1.990   0.809  0.1634 -0.4447  0.2235
 3174SOL    HW1 9917   5.308   2.029   0.856 -0.6159 -0.2473 -1.1240
 3174SOL    HW2 9918   5.364   1.896   0.808  0.3679 -0.4903  0.6232
 3175SOL     OW 9919   1.968   5.813   5.645 -0.4619  0.6532  0.1292
 3175SOL    HW1 9920   1.933   5.896   5.675 -1.1267 -0.3084  2.1615
 3175SOL    HW2 9921   1.892   5.765   5.612 -0.5002 -0.0153  1.1368
 3176SOL     OW 9922   6.747   2.413   3.312 -0.5249  0.0499 -0.5482
 3176SOL    HW1 9923   6.692   2.337   3.291 -0.3558  0.2526 -1.7706
 3176SOL    HW2 9924   6.816   2.377   3.368 -0.4778 -0.6892 -1.0728
 3177SOL     OW 9925   2.683   4.266   2.893 -0.5262 -0.1499  0.0186
 3177SOL    HW1 9926   2.734   4.264   2.973 -1.0543 -1.2450  0.3448
 3177SOL    HW2 9927   2.595   4.290   2.921 -0.2490  1.6716 -0.5313
 3178SOL     OW 9928   6.321   6.746   6.453  0.4931  0.3683 -0.0243
 3178SOL    HW1 9929   6.403   6.757   6.406  0.0059  0.5070 -0.8612
 3178SOL    HW2 9930   6.342   6.683   6.523  1.7190  1.6945  0.8517
 3179SOL     OW 9931   3.772   3.822   3.669 -0.0176  0.5351 -0.4167
 3179SOL    HW1 9932   3.809   3.768   3.599  2.1510  1.5774 -0.1769
 3179SOL    HW2 9933   3.791   3.912   3.643  1.5746  0.9450  1.7722
 3180SOL     OW 9934   0.919   5.610   3.652  0.1388 -0.1128  0.2325
 3180SOL    HW1 9935   0.839   5.557   3.662  0.2269 -0.0873  1.1116
 3180SOL    HW2 9936   0.912   5.678   3.718 -0.7329  2.0020 -1.9197
 3181SOL     OW 9937   1.407   6.583   5.201  0.6191 -0.3821  0.2453
 3181SOL    HW1 9938   1.319   6.615   5.180  1.0029  1.3906  1.2129
 3181SOL    HW2 9939   1.440   6.550   5.117 -0.0045  1.3483 -0.7439
 3182SOL     OW 9940   3.506   2.137   2.602 -0.4242  0.0924 -0.0192
 3182SOL    HW1 9941   3.592   2.110   2.633 -1.0854 -1.2681  0.7387
 3182SOL    HW2 9942   3.520   2.222   2.562  2.1785 -1.9673 -4.1044
 3183SOL     OW 9943   1.993   3.213   2.225 -0.3222  0.4862  0.9335
 3183SOL    HW1 9944   1.982   3.302   2.258 -0.7031 -0.0692  2.3669
 3183SOL    HW2 9945   2.088   3.202   2.216 -0.2237  0.7200  1.6606
 3184SOL     OW 9946   1.846   0.028   1.733  0.2855 -0.4345  0.3190
 3184SOL    HW1 9947   1.885   0.114   1.748 -1.1479  0.2465  0.3810
 3184SOL    HW2 9948   1.772   0.024   1.794 -0.0420 -1.4499 -0.1222
 3185SOL     OW 9949   4.112   4.146   3.197  0.3858 -0.0171 -0.3589
 3185SOL    HW1 9950   4.133   4.053   3.210 -0.4006  0.0079  1.3658
 3185SOL    HW2 9951   4.174   4.192   3.252 -1.1295  0.2834  1.1949
 3186SOL     OW 9952   5.961   0.093   1.334 -0.3674 -0.8887  0.5935
 3186SOL    HW1 9953   6.032   0.095   1.397 -1.0773  1.1254  1.4255
 3186SOL    HW2 9954   6.001   0.119   1.251 -0.0418 -0.1374  0.9771
 3187SOL     OW 9955   1.996   5.639   2.991 -0.2591  0.5481 -0.1084
 3187SOL    HW1 9956   1.909   5.607   2.966  0.0431  0.2463 -0.7870
 3187SOL    HW2 9957   2.032   5.676   2.911  0.7369 -0.4565 -0.1462
 3188SOL     OW 9958   1.684   2.313   1.013  0.1701  0.2612  0.0250
 3188SOL    HW1 9959   1.679   2.317   0.917 -0.7935 -0.2457  0.0454
 3188SOL    HW2 9960   1.684   2.220   1.033 -0.6544  0.3709  0.5612
 3189SOL     OW 9961   4.889   3.127   0.136  1.3063 -0.3840 -0.3396
 3189SOL    HW1 9962   4.947   3.134   0.211  2.4012 -0.4582 -1.1617
 3189SOL    HW2 9963   4.885   3.216   0.100 -1.1708  0.2226  1.1815
 3190SOL     OW 9964   0.365   6.505   5.116 -0.1538 -0.4782 -0.1033
 3190SOL    HW1 9965   0.387   6.453   5.193  1.7595 -0.2890 -0.4869
 3190SOL    HW2 9966   0.369   6.443   5.043  0.0921 -0.2245 -0.3055
 3191SOL     OW 9967   6.837   5.213   2.821 -0.3001 -0.1543  0.1607
 3191SOL    HW1 9968   6.796   5.298   2.807 -0.1045  0.0486  0.7813
 3191SOL    HW2 9969   6.926   5.235   2.850  1.3925 -0.5321 -4.0587
 3192SOL     OW 9970   4.510   4.720   2.045 -0.3970  0.2218 -0.0934
 3192SOL    HW1 9971   4.534   4.779   2.117 -1.3312 -0.7353  1.0347
 3192SOL    HW2 9972   4.443   4.767   1.996  1.6938  1.7561 -1.6298
 3193SOL     OW 9973   0.994   4.975   6.636 -0.4115 -0.4821 -0.0044
 3193SOL    HW1 9974   1.047   5.053   6.624 -0.6454 -0.3019  0.1197
 3193SOL    HW2 9975   0.904   5.004   6.621 -0.3145 -1.3096 -2.6962
 3194SOL     OW 9976   6.803   4.302   1.423 -0.5293  0.0353 -0.3030
 3194SOL    HW1 9977   6.889   4.314   1.464 -0.7441  0.7021 -0.0253
 3194SOL    HW2 9978   6.750   4.259   1.490 -0.0439 -1.6478 -0.9492
 3195SOL     OW 9979   1.278   5.931   3.728  0.0734  0.6405  0.2812
 3195SOL    HW1 9980   1.319   5.845   3.738  0.2375  0.7344  0.4231
 3195SOL    HW2 9981   1.349   5.988   3.696 -0.0070  0.7480  0.2945
 3196SOL     OW 9982   3.067   2.189   2.461 -0.8042  0.1695 -0.4088
 3196SOL    HW1 9983   3.162   2.184   2.462 -0.6367  2.2048 -1.1487
 3196SOL    HW2 9984   3.041   2.162   2.373 -0.7606  1.0719 -0.7135
 3197SOL     OW 9985   3.805   2.863   6.225  0.9759  0.0622  0.0929
 3197SOL    HW1 9986   3.719   2.831   6.251  1.0935 -1.2844 -1.0333
 3197SOL    HW2 9987   3.787   2.931   6.160  0.7409 -0.6064 -0.5606
 3198SOL     OW 9988   0.936   0.501   1.753  0.1043 -0.0935 -0.1314
 3198SOL    HW1 9989   0.874   0.448   1.703  0.0120  0.9305 -1.1451
 3198SOL    HW2 9990   1.022   0.470   1.724  0.0517  0.4622 -0.9274
 3199SOL     OW 9991   4.236   0.430   5.646 -0.0639  0.0606  0.2222
 3199SOL    HW1 9992   4.307   0.379   5.605 -1.3818 -0.6911 -1.2290
 3199SOL    HW2 9993   4.279   0.476   5.717  1.9048 -0.3630 -0.6029
 3200SOL     OW 9994   3.662   5.882   0.385  0.3074  0.0844 -0.1598
 3200SOL    HW1 9995   3.655   5.910   0.294 -0.3260  0.1935 -0.0869
 3200SOL    HW2 9996   3.755   5.886   0.405  0.4570 -0.0137 -0.8249
 3201SOL     OW 9997   1.631   0.445   4.752  0.3047  0.0335 -0.2272
 3201SOL    HW1 9998   1.695   0.503   4.710 -0.4002  0.8485 -0.2135
 3201SOL    HW2 9999   1.570   0.504   4.796 -0.8391 -0.6842 -0.7862
 3202SOL     OW10000   1.780   1.145   6.328 -0.5320 -0.4806 -0.5460
 3202SOL    HW110001   1.828   1.069   6.359 -3.3470 -2.1010  0.2073
 3202SOL    HW210002   1.814   1.161   6.240  2.0722 -0.7720  0.3294
 3203SOL     OW10003   6.067   5.622   3.983  0.1596 -0.7289  0.5572
 3203SOL    HW110004   6.052   5.528   3.971 -0.3951 -0.4719 -1.0562
 3203SOL    HW210005   5.984   5.655   4.017 -0.1090 -0.6307 -0.1715
 3204SOL     OW10006   1.650   5.250   4.232  0.4419  0.2084 -0.2727
 3204SOL    HW110007   1.577   5.203   4.194  1.4162 -1.3071 -0.3582
 3204SOL    HW210008   1.658   5.329   4.178 -1.0931  0.3989 -0.2596
 3205SOL     OW10009   4.620   4.318   2.571 -0.3468 -0.0700 -0.6390
 3205SOL    HW110010   4.707   4.356   2.564 -0.4747  0.3497 -0.0396
 3205SOL    HW210011   4.621   4.244   2.510  0.8620 -0.8875  0.3352
 3206SOL     OW10012   6.924   1.455   0.085 -0.6279 -0.6170 -0.7189
 3206SOL    HW110013   6.915   1.538   0.132  1.4820 -0.7274  0.0089
 3206SOL    HW210014   6.840   1.412   0.094 -1.5416  1.1380 -0.5049
 3207SOL     OW10015   0.300   3.440   4.429  0.2044  0.4415  0.3504
 3207SOL    HW110016   0.286   3.353   4.468  0.6456 -0.1571 -0.7636
 3207SOL    HW210017   0.390   3.462   4.452  0.5748 -0.0581 -0.5573
 3208SOL     OW10018   3.249   5.805   6.358  0.4541 -0.7460 -0.1197
 3208SOL    HW110019   3.199   5.884   6.380 -0.2052 -1.5043  1.2280
 3208SOL    HW210020   3.316   5.800   6.426  2.0434 -0.0804 -1.5601
 3209SOL     OW10021   1.260   4.240   1.135 -0.2557 -0.4557  0.0432
 3209SOL    HW110022   1.302   4.264   1.218 -2.0264  1.0306  0.5883
 3209SOL    HW210023   1.195   4.174   1.159 -0.2149 -0.6217 -0.3003
 3210SOL     OW10024   1.074   1.901   6.086 -0.2489 -0.2213  0.3657
 3210SOL    HW110025   1.146   1.951   6.124  1.7276 -2.0096 -0.8052
 3210SOL    HW210026   1.052   1.948   6.005  1.1421 -0.8041 -0.3862
 3211SOL     OW10027   5.869   0.271   5.502  0.4290 -0.1636  0.2170
 3211SOL    HW110028   5.827   0.321   5.572  2.3233  2.1255 -0.1334
 3211SOL    HW210029   5.833   0.308   5.421  1.7389  0.5939 -0.0457
 3212SOL     OW10030   1.039   2.586   5.265  0.1013 -0.7035 -0.0735
 3212SOL    HW110031   1.047   2.495   5.236  0.4874 -0.9674  0.8460
 3212SOL    HW210032   1.033   2.581   5.360 -0.9396  0.1667 -0.0703
 3213SOL     OW10033   1.242   2.019   1.475  0.7067  0.3616  0.3279
 3213SOL    HW110034   1.245   2.099   1.527 -0.1984  0.8740 -0.3799
 3213SOL    HW210035   1.149   1.996   1.471  1.0799 -2.0661  2.4825
 3214SOL     OW10036   3.578   0.270   5.563 -0.3183 -0.2835  0.4945
 3214SOL    HW110037   3.507   0.206   5.553  0.9908 -1.4466 -3.1316
 3214SOL    HW210038   3.656   0.217   5.580  0.5390  0.3822 -1.1252
 3215SOL     OW10039   5.951   4.410   5.196  0.0925 -0.2703  0.3221
 3215SOL    HW110040   6.007   4.371   5.129  2.2969 -0.6738  2.2766
 3215SOL    HW210041   5.970   4.360   5.276 -1.7161  0.7934  1.5031
 3216SOL     OW10042   0.860   1.677   6.114 -0.0687 -0.6300  0.8060
 3216SOL    HW110043   0.909   1.757   6.095  0.2376 -1.1491 -0.7326
 3216SOL    HW210044   0.885   1.617   6.044 -2.8253 -0.9450 -0.0014
 3217SOL     OW10045   1.984   2.722   5.411  0.0896 -0.5261 -0.6333
 3217SOL    HW110046   1.950   2.709   5.323  1.3269  0.6110 -1.3103
 3217SOL    HW210047   1.949   2.807   5.438 -2.0721 -1.7587  0.9103
 3218SOL     OW10048   6.163   0.226   0.746  0.5815 -0.5760  0.1694
 3218SOL    HW110049   6.177   0.281   0.823 -1.3920 -0.8121  0.7477
 3218SOL    HW210050   6.201   0.276   0.674 -0.2547  1.0775  0.8288
 3219SOL     OW10051   6.442   5.049   5.318 -0.2611 -0.1534  0.4116
 3219SOL    HW110052   6.373   5.115   5.310 -1.0480 -0.9999  0.1305
 3219SOL    HW210053   6.487   5.072   5.399 -0.5453  0.7055  0.3385
 3220SOL     OW10054   1.952   1.801   6.688  0.6447 -0.2967  0.4292
 3220SOL    HW110055   2.037   1.779   6.650  1.1644  1.0467  0.7634
 3220SOL    HW210056   1.888   1.765   6.626  1.4243 -2.1460  0.6496
 3221SOL     OW10057   3.064   4.025   5.569  0.5206  0.9887 -0.2241
 3221SOL    HW110058   3.130   3.957   5.585  0.0337  0.8812  1.4791
 3221SOL    HW210059   3.081   4.092   5.635 -1.3629  0.7149  0.6090
 3222SOL     OW10060   2.765   5.401   4.711  0.0158 -0.1870  0.4692
 3222SOL    HW110061   2.851   5.365   4.732  0.1623 -0.3158 -0.3182
 3222SOL    HW210062   2.770   5.422   4.618  0.1741  2.5866  1.0307
 3223SOL     OW10063   4.721   6.843   5.451 -0.0842 -0.2851  0.5478
 3223SOL    HW110064   4.732   6.937   5.435 -0.6513 -0.1297  1.0431
 3223SOL    HW210065   4.662   6.838   5.526 -0.9295 -1.0657 -0.1589
 3224SOL     OW10066   5.009   2.379   2.368 -0.6704 -0.8008 -0.3116
 3224SOL    HW110067   5.097   2.417   2.369 -1.0907  0.1936  0.7611
 3224SOL    HW210068   4.953   2.450   2.337 -1.0251 -1.6670 -1.7760
 3225SOL     OW10069   0.636   6.830   4.157  0.4086  0.2812  0.1121
 3225SOL    HW110070   0.594   6.915   4.168 -0.5622 -0.2897  1.0848
 3225SOL    HW210071   0.689   6.839   4.078 -0.4544  1.4771 -0.3627
 3226SOL     OW10072   4.352   1.520   5.892  0.3711 -0.3306  0.1499
 3226SOL    HW110073   4.312   1.552   5.973  2.5955 -0.0178  1.2070
 3226SOL    HW210074   4.376   1.600   5.845  0.3794 -0.4954 -0.1242
 3227SOL     OW10075   5.200   1.783   4.003 -0.3755 -0.0794  0.0799
 3227SOL    HW110076   5.279   1.771   3.951  0.5122  1.6314  0.9384
 3227SOL    HW210077   5.189   1.878   4.009 -1.9222 -0.2665  0.8241
 3228SOL     OW10078   4.388   4.029   3.021 -0.0563  0.5383 -0.1467
 3228SOL    HW110079   4.434   4.088   3.080 -0.1524 -0.3872  0.8808
 3228SOL    HW210080   4.440   3.949   3.021 -2.3116 -1.0957  2.2192
 3229SOL     OW10081   4.948   5.916   5.749  0.0954 -0.1395 -0.3701
 3229SOL    HW110082   5.019   5.946   5.691  1.2860 -1.9536  0.0745
 3229SOL    HW210083   4.915   5.836   5.707  0.1326 -0.7876  0.8001
 3230SOL     OW10084   6.737   4.630   5.120 -0.1366  0.1890  0.2914
 3230SOL    HW110085   6.728   4.614   5.025  1.3272  1.4183 -0.0893
 3230SOL    HW210086   6.677   4.702   5.138 -0.6573 -0.2592  0.3798
 3231SOL     OW10087   3.369   2.260   1.971  1.1786 -0.0389  0.3037
 3231SOL    HW110088   3.351   2.210   2.051  1.7135  0.6909  0.8840
 3231SOL    HW210089   3.443   2.215   1.931  2.0908  0.6518  1.1693
 3232SOL     OW10090   3.243   0.002   2.059 -0.2525 -0.2792  0.3471
 3232SOL    HW110091   3.195  -0.075   2.088 -0.8787 -0.0046  0.0689
 3232SOL    HW210092   3.193   0.076   2.094  0.7810 -0.0024  1.2843
 3233SOL     OW10093   3.942   2.844   1.549 -0.1762 -0.6665  0.1891
 3233SOL    HW110094   3.890   2.816   1.623 -0.6568  0.3039  0.2349
 3233SOL    HW210095   3.978   2.763   1.513 -0.3711 -1.1935  1.1474
 3234SOL     OW10096   6.585   6.842   4.623 -0.0185  0.2159 -0.2790
 3234SOL    HW110097   6.599   6.769   4.562 -0.9678 -0.6563  0.5125
 3234SOL    HW210098   6.664   6.895   4.615  1.0462 -1.3047 -0.3188
 3235SOL     OW10099   1.516   1.453   1.622  0.2143 -0.7016 -0.4304
 3235SOL    HW110100   1.580   1.420   1.684 -0.0121 -1.3151 -0.5218
 3235SOL    HW210101   1.516   1.548   1.637  0.3731 -0.8098  0.2967
 3236SOL     OW10102   6.066   3.648   3.424  0.0937 -0.1238 -0.4014
 3236SOL    HW110103   6.053   3.721   3.363 -0.1965  0.1918  0.0359
 3236SOL    HW210104   5.979   3.607   3.431  0.7373 -2.0474 -2.5581
 3237SOL     OW10105   1.883   5.201   0.237 -0.3946 -0.1924 -0.0394
 3237SOL    HW110106   1.887   5.105   0.233  1.5115 -0.1022 -1.3514
 3237SOL    HW210107   1.824   5.219   0.311 -1.1517 -2.3557 -0.0389
 3238SOL     OW10108   0.577   6.470   0.531 -0.4492  0.1578 -0.5647
 3238SOL    HW110109   0.497   6.488   0.482 -1.3141  0.1885  0.8158
 3238SOL    HW210110   0.588   6.375   0.524  1.0209  0.4301 -3.1442
 3239SOL     OW10111   3.611   2.101   0.815  0.1682 -0.0273  0.3216
 3239SOL    HW110112   3.531   2.110   0.867 -1.0594 -0.9868 -1.2973
 3239SOL    HW210113   3.650   2.188   0.816 -0.1907  0.1641  2.1900
 3240SOL     OW10114   3.267   0.418   0.669  0.5702  0.3405  0.2594
 3240SOL    HW110115   3.188   0.454   0.628  0.3622  1.5329  1.6388
 3240SOL    HW210116   3.235   0.372   0.747  1.2322  1.0223  0.9520
 3241SOL     OW10117   1.639   6.029   1.433 -0.0138  0.0144 -0.1316
 3241SOL    HW110118   1.614   6.121   1.431  0.2590  0.0798 -1.4369
 3241SOL    HW210119   1.564   5.983   1.397  0.5065 -0.0964 -1.0944
 3242SOL     OW10120   6.177   3.605   5.336  0.3290 -0.3602 -0.6742
 3242SOL    HW110121   6.163   3.527   5.389 -3.0800 -0.6230 -1.7174
 3242SOL    HW210122   6.101   3.608   5.277  1.0162  3.0044 -1.5999
 3243SOL     OW10123   5.155   6.050   3.035  0.5721  0.5293 -0.0891
 3243SOL    HW110124   5.103   5.969   3.039  0.7786  0.2778 -1.7176
 3243SOL    HW210125   5.091   6.120   3.048  0.3942  0.1342  1.3704
 3244SOL     OW10126   5.769   6.127   3.484  0.1050  0.4877 -0.0438
 3244SOL    HW110127   5.784   6.130   3.578 -1.0543  2.7216  0.1542
 3244SOL    HW210128   5.674   6.117   3.475  0.3889 -1.9982 -1.0635
 3245SOL     OW10129   1.906   3.292   3.049 -0.0237 -0.0497 -0.4110
 3245SOL    HW110130   1.826   3.300   2.998 -0.0386 -0.7634 -0.5105
 3245SOL    HW210131   1.956   3.224   3.004  0.8668  0.7350 -0.6418
 3246SOL     OW10132   6.055   1.648   5.665 -0.0502 -0.1870 -0.1512
 3246SOL    HW110133   6.000   1.659   5.743 -1.9596 -0.8939 -1.3211
 3246SOL    HW210134   6.051   1.733   5.621  1.8375  0.5278  0.9601
 3247SOL     OW10135   6.911   5.090   2.277 -0.1118  0.1363 -0.2288
 3247SOL    HW110136   6.878   5.178   2.262  0.9155  0.5151 -0.3211
 3247SOL    HW210137   6.948   5.064   2.192 -0.1063 -0.2554 -0.1072
 3248SOL     OW10138   1.398   4.559   6.725  0.0853 -0.3131  0.3962
 3248SOL    HW110139   1.335   4.510   6.778 -0.0321  0.0172  0.5603
 3248SOL    HW210140   1.384   4.650   6.748 -1.2957  0.0345 -1.6263
 3249SOL     OW10141   0.661   6.140   5.290 -0.1613  0.6483  0.5477
 3249SOL    HW110142   0.716   6.142   5.212  1.5540 -2.1736  1.5250
 3249SOL    HW210143   0.572   6.151   5.258  0.6674  2.0584 -1.4715
 3250SOL     OW10144   4.578   4.187   5.493  0.0131 -0.6451  0.3405
 3250SOL    HW110145   4.484   4.171   5.483  0.1128 -1.6172  0.8851
 3250SOL    HW210146   4.597   4.258   5.432 -0.5367 -2.3330 -1.8882
 3251SOL     OW10147   3.641   4.779   2.686 -0.1886  0.3345 -0.2786
 3251SOL    HW110148   3.676   4.856   2.642 -1.0972  0.9084 -0.0203
 3251SOL    HW210149   3.718   4.736   2.725  0.3378  1.0347 -0.5346
 3252SOL     OW10150   2.664   1.042   0.575  0.0570 -0.2286 -0.5321
 3252SOL    HW110151   2.709   1.030   0.658 -0.9545 -1.0634 -0.0814
 3252SOL    HW210152   2.732   1.032   0.509  0.6690 -0.6990  0.1566
 3253SOL     OW10153   2.724   1.791   2.931  0.4929  0.0100  0.7606
 3253SOL    HW110154   2.632   1.812   2.915  0.5354 -0.5188 -0.2019
 3253SOL    HW210155   2.770   1.873   2.912  0.2551  0.2192  1.0552
 3254SOL     OW10156   1.757   2.958   3.952  0.4918  0.0370  0.0161
 3254SOL    HW110157   1.716   2.883   3.996  2.1756 -0.3613  0.9757
 3254SOL    HW210158   1.848   2.932   3.940  1.0041  1.7751 -0.0348
 3255SOL     OW10159   3.132   0.473   4.278  0.3056 -0.8246  0.0050
 3255SOL    HW110160   3.217   0.475   4.233  0.6653  1.7660  0.5899
 3255SOL    HW210161   3.069   0.450   4.210  1.1675  0.1570 -1.1775
 3256SOL     OW10162   3.567   0.019   3.645 -0.0298 -0.6691 -0.0466
 3256SOL    HW110163   3.472   0.010   3.658  0.1839 -2.3568  0.6693
 3256SOL    HW210164   3.600   0.046   3.730  0.2206 -1.0203 -0.0296
 3257SOL     OW10165   2.274   2.213   2.600  0.0746 -0.2996 -0.3207
 3257SOL    HW110166   2.310   2.182   2.683 -0.3769  1.0445  0.4130
 3257SOL    HW210167   2.193   2.259   2.625  0.5364  1.1346 -1.3540
 3258SOL     OW10168   3.428   3.297   6.464  0.1147 -0.1455 -0.6493
 3258SOL    HW110169   3.439   3.388   6.491  0.1183 -0.6835  1.3103
 3258SOL    HW210170   3.516   3.260   6.468  0.1477 -0.1958 -1.6599
 3259SOL     OW10171   2.539   4.324   0.678 -0.3468 -0.2430  0.0285
 3259SOL    HW110172   2.452   4.362   0.684 -0.7854 -1.2451  0.1104
 3259SOL    HW210173   2.560   4.298   0.768  0.5433  1.0770  0.2284
 3260SOL     OW10174   0.226   5.533   1.549  0.0808 -0.5492 -0.0661
 3260SOL    HW110175   0.219   5.456   1.492  0.4589 -0.5445 -0.1204
 3260SOL    HW210176   0.218   5.498   1.638 -0.4791 -0.5603 -0.1169
 3261SOL     OW10177   6.897   6.280   5.697 -0.8843 -0.0326  0.1211
 3261SOL    HW110178   6.868   6.309   5.784  0.0155 -0.7160  0.6676
 3261SOL    HW210179   6.818   6.282   5.644 -1.6144 -0.3605  1.1681
 3262SOL     OW10180   5.596   4.307   5.564 -0.4832 -0.2031 -0.8569
 3262SOL    HW110181   5.690   4.311   5.546 -0.6787  0.6464 -1.8197
 3262SOL    HW210182   5.578   4.384   5.618 -0.5318 -0.7215 -0.1138
 3263SOL     OW10183   5.231   2.476   5.692  0.4869  0.4772 -0.2626
 3263SOL    HW110184   5.167   2.532   5.734  0.8718  0.3565  0.4924
 3263SOL    HW210185   5.257   2.412   5.759 -1.0272 -1.5799 -1.5125
 3264SOL     OW10186   4.253   3.176   2.680  0.0962  0.2554 -0.7001
 3264SOL    HW110187   4.323   3.169   2.745 -1.1927 -0.2114  0.7118
 3264SOL    HW210188   4.290   3.140   2.600  2.1690  2.0262 -0.6129
 3265SOL     OW10189   2.367   3.534   5.428 -0.4107  0.0027  0.3091
 3265SOL    HW110190   2.326   3.620   5.436 -1.4018 -0.3714 -0.4111
 3265SOL    HW210191   2.400   3.532   5.339  1.0685  0.2291  0.8329
 3266SOL     OW10192   2.491   3.412   3.028  0.2171  0.4949 -0.0752
 3266SOL    HW110193   2.508   3.416   2.934  0.7196 -0.3497 -0.0278
 3266SOL    HW210194   2.398   3.391   3.035 -0.0466  1.4764 -0.3614
 3267SOL     OW10195   1.753   2.333   1.767  0.4713  0.5116 -0.3851
 3267SOL    HW110196   1.813   2.313   1.840 -1.8957  1.3089  1.9351
 3267SOL    HW210197   1.770   2.265   1.702  1.0190 -1.7473  1.9725
 3268SOL     OW10198   1.740   6.027   2.592  0.3155 -0.3478 -0.1522
 3268SOL    HW110199   1.809   6.008   2.529  0.8724  0.1539  0.2865
 3268SOL    HW210200   1.785   6.028   2.677 -0.3410 -0.6055  0.2056
 3269SOL     OW10201   0.949   1.491   5.979 -0.6236  0.6667 -0.4503
 3269SOL    HW110202   0.891   1.450   5.915 -0.5666  0.1404 -0.1701
 3269SOL    HW210203   0.944   1.433   6.056  1.2550 -0.1088 -0.8656
 3270SOL     OW10204   5.073   0.159   3.315  0.0567  0.2510 -0.5585
 3270SOL    HW110205   5.142   0.093   3.303  0.0094  0.0716  0.0878
 3270SOL    HW210206   5.056   0.193   3.227  0.2549 -0.4269 -0.8667
 3271SOL     OW10207   0.793   0.265   5.311  0.3177  0.1449 -0.1954
 3271SOL    HW110208   0.698   0.251   5.309  0.5405 -1.6958  0.0176
 3271SOL    HW210209   0.828   0.202   5.247  1.3904  0.8678 -0.3425
 3272SOL     OW10210   4.409   2.724   5.817  0.0367 -0.0853 -0.0374
 3272SOL    HW110211   4.380   2.788   5.753  0.7459 -1.4699 -1.8233
 3272SOL    HW210212   4.460   2.774   5.881 -0.0434  1.2114 -0.9610
 3273SOL     OW10213   2.953   2.596   5.665  0.0004 -0.4340 -0.0814
 3273SOL    HW110214   2.966   2.547   5.746  0.3213 -0.3318 -0.0670
 3273SOL    HW210215   3.041   2.628   5.643 -0.4723  1.6282  0.8385
 3274SOL     OW10216   2.002   1.498   0.451 -0.2524  0.1049 -0.0550
 3274SOL    HW110217   1.926   1.525   0.503  0.5920  0.3965  1.0623
 3274SOL    HW210218   2.070   1.480   0.515  0.4820 -0.6629 -1.0112
 3275SOL     OW10219   2.604   6.734   6.727 -0.1054 -0.1407  0.2200
 3275SOL    HW110220   2.546   6.748   6.652 -0.2547  1.9912  0.6828
 3275SOL    HW210221   2.544   6.713   6.799  0.0227 -1.9294 -0.1369
 3276SOL     OW10222   4.764   3.735   1.003 -0.3880  0.0040 -0.0315
 3276SOL    HW110223   4.732   3.645   1.011  0.5947 -0.2790  0.8813
 3276SOL    HW210224   4.783   3.762   1.092  0.8729  0.5413 -0.4353
 3277SOL     OW10225   6.476   6.273   6.707  0.4782  0.5747  0.2940
 3277SOL    HW110226   6.541   6.205   6.721  1.0150  0.8842 -0.6184
 3277SOL    HW210227   6.430   6.280   6.791  0.1272 -1.1903  0.2795
 3278SOL     OW10228   5.415   6.112   4.969 -0.2501  0.2546 -0.9131
 3278SOL    HW110229   5.347   6.120   4.903 -1.5553  0.5943  0.4133
 3278SOL    HW210230   5.375   6.145   5.049  1.3370  0.0484  0.0189
 3279SOL     OW10231   0.676   1.657   1.259  0.5749 -0.1111  0.1679
 3279SOL    HW110232   0.610   1.628   1.197  1.1084 -0.4116 -0.2772
 3279SOL    HW210233   0.667   1.597   1.333 -0.8123  0.9488  0.8950
 3280SOL     OW10234   1.098   3.504   6.713 -0.3059  0.1460 -0.5845
 3280SOL    HW110235   1.020   3.485   6.660  0.2476 -0.5450 -1.1624
 3280SOL    HW210236   1.081   3.591   6.749 -1.2837  0.0689 -0.8206
 3281SOL     OW10237   2.270   2.042   1.122 -0.0362 -0.4269  0.3549
 3281SOL    HW110238   2.212   2.086   1.184 -0.4536  0.8466 -0.8842
 3281SOL    HW210239   2.226   1.959   1.103 -0.9943  0.1265  0.1176
 3282SOL     OW10240   4.927   4.824   2.024 -0.1558 -0.0250 -0.1363
 3282SOL    HW110241   4.885   4.876   2.093  0.0541 -1.1324  0.8757
 3282SOL    HW210242   4.967   4.889   1.966 -1.7851  0.9999 -0.1889
 3283SOL     OW10243   4.415   6.271   5.084  0.5108  0.4749 -0.2029
 3283SOL    HW110244   4.443   6.289   4.995  0.3401  0.9562 -0.1598
 3283SOL    HW210245   4.339   6.213   5.074 -0.3464  1.5940 -0.4317
 3284SOL     OW10246   4.369   5.498   6.726 -0.5709 -0.4407 -0.2094
 3284SOL    HW110247   4.441   5.528   6.781 -0.5539 -1.0952  0.1317
 3284SOL    HW210248   4.402   5.419   6.684 -1.8724 -2.1693  1.8012
 3285SOL     OW10249   5.819   5.337   4.521  0.1495 -0.1741  0.6008
 3285SOL    HW110250   5.736   5.290   4.507  0.5408 -0.2946 -1.7607
 3285SOL    HW210251   5.885   5.281   4.480  0.9242  1.4119 -0.4073
 3286SOL     OW10252   4.100   0.750   5.676 -0.2426 -0.3846  0.5634
 3286SOL    HW110253   4.048   0.670   5.685  0.0545 -0.5490  0.8224
 3286SOL    HW210254   4.037   0.820   5.690 -0.8465 -0.5143 -1.2184
 3287SOL     OW10255   3.134   3.272   6.571 -0.3240 -0.1816 -0.1703
 3287SOL    HW110256   3.227   3.271   6.545  0.0078  1.9939  0.6732
 3287SOL    HW210257   3.128   3.346   6.631 -2.3872 -1.0629  0.7710
 3288SOL     OW10258   5.266   5.172   0.995  0.0372  0.2093 -0.2041
 3288SOL    HW110259   5.193   5.229   0.972 -1.2150 -1.6126 -0.9273
 3288SOL    HW210260   5.322   5.227   1.050 -1.2203  2.0433 -0.6530
 3289SOL     OW10261   2.840   6.209   3.351 -0.6854 -0.4747 -0.1368
 3289SOL    HW110262   2.929   6.200   3.385  0.3305  0.4116 -2.3351
 3289SOL    HW210263   2.844   6.169   3.264 -1.5846  2.1329 -1.4964
 3290SOL     OW10264   6.941   0.043   6.474 -0.2619 -0.1499  0.5362
 3290SOL    HW110265   6.909   0.088   6.396 -1.4081  0.4136  1.2975
 3290SOL    HW210266   7.034   0.029   6.458  0.2132  2.6593  0.3003
 3291SOL     OW10267   4.616   5.965   6.254  0.1518  0.1285 -0.1949
 3291SOL    HW110268   4.629   6.026   6.181  2.5366 -2.3061 -2.0130
 3291SOL    HW210269   4.701   5.961   6.298 -0.7047  0.0736  1.5446
 3292SOL     OW10270   3.827   1.335   2.462  0.0133 -0.2093  0.4825
 3292SOL    HW110271   3.746   1.366   2.422 -1.6266 -2.0158  2.2217
 3292SOL    HW210272   3.802   1.309   2.551  2.5299 -0.7314  1.1197
 3293SOL     OW10273   5.134   2.969   1.459  0.1637  0.5102 -0.2184
 3293SOL    HW110274   5.119   2.876   1.478  1.6949  0.1870 -0.4881
 3293SOL    HW210275   5.108   3.014   1.539  1.3528 -0.3475  0.6925
 3294SOL     OW10276   2.650   5.679   0.909 -0.3122  0.4069 -0.4716
 3294SOL    HW110277   2.557   5.702   0.909 -0.2824  0.9585  2.7953
 3294SOL    HW210278   2.694   5.755   0.870 -1.0535  1.1831  0.1807
 3295SOL     OW10279   4.570   6.882   2.925 -0.0445 -0.2349 -0.7809
 3295SOL    HW110280   4.599   6.918   2.841  0.4535 -2.0510 -1.4323
 3295SOL    HW210281   4.481   6.851   2.908  0.4996 -1.7529 -1.0513
 3296SOL     OW10282   1.972   4.916   6.868  0.4056  0.1840  0.0341
 3296SOL    HW110283   1.930   4.836   6.837  2.0506  0.0860 -2.1090
 3296SOL    HW210284   1.948   4.983   6.804  2.7395  0.3095 -0.8123
 3297SOL     OW10285   3.204   3.761   5.640  0.2018 -0.4838  0.1483
 3297SOL    HW110286   3.240   3.718   5.717  0.4481  1.5550  1.2411
 3297SOL    HW210287   3.111   3.738   5.641 -0.0317  0.3893  1.7140
 3298SOL     OW10288   4.531   5.171   1.851 -0.4222  0.5119  0.0595
 3298SOL    HW110289   4.451   5.205   1.811 -1.6231 -0.5617  1.4355
 3298SOL    HW210290   4.558   5.239   1.913  0.4814  1.4235 -1.2780
 3299SOL     OW10291   3.444   5.170   5.611 -0.5501  0.2727  0.1260
 3299SOL    HW110292   3.532   5.141   5.588 -0.2617  1.0494  0.2183
 3299SOL    HW210293   3.451   5.265   5.619 -1.3110  0.3070  0.5118
 3300SOL     OW10294   0.980   1.942   1.416  0.2118  0.0211 -0.3266
 3300SOL    HW110295   0.898   1.918   1.459 -0.9926  2.1912 -1.2731
 3300SOL    HW210296   0.963   1.929   1.323  0.7894  0.8620 -0.5598
 3301SOL     OW10297   4.858   5.915   4.879  0.0356  0.0087  0.6246
 3301SOL    HW110298   4.877   5.823   4.899  0.0022  0.1413  1.3049
 3301SOL    HW210299   4.764   5.924   4.895  0.1516  0.3051  1.1899
 3302SOL     OW10300   5.467   1.017   2.058 -0.1446 -0.3208  0.3386
 3302SOL    HW110301   5.541   0.969   2.021 -0.3267 -0.1890 -0.1971
 3302SOL    HW210302   5.391   0.962   2.043 -0.4366  0.3499 -0.7466
 3303SOL     OW10303   6.309   1.806   6.010  0.1172  0.7729  0.7104
 3303SOL    HW110304   6.314   1.723   6.057 -1.6694  0.4212  0.3464
 3303SOL    HW210305   6.328   1.872   6.077  1.1641  0.1064  1.0850
 3304SOL     OW10306   3.915   1.140   5.079 -0.4850  0.3028  0.4567
 3304SOL    HW110307   4.001   1.181   5.077  0.2148 -1.0974  0.9057
 3304SOL    HW210308   3.932   1.048   5.099 -2.1993  0.3244  2.3781
 3305SOL     OW10309   1.140   0.508   5.664 -0.7000 -1.1076  0.1687
 3305SOL    HW110310   1.195   0.544   5.594 -1.6100  0.1113  0.0475
 3305SOL    HW210311   1.202   0.466   5.724  0.5083  0.9387  0.4594
 3306SOL     OW10312   3.183   6.167   2.143  0.3816  0.1431 -0.4121
 3306SOL    HW110313   3.151   6.257   2.153  1.3127  0.3317  1.2983
 3306SOL    HW210314   3.263   6.176   2.091  0.2975  0.2496 -0.5247
 3307SOL     OW10315   3.144   2.026   0.899 -0.0036  0.5267  0.0807
 3307SOL    HW110316   3.221   1.974   0.921 -1.2568 -0.8853  1.4176
 3307SOL    HW210317   3.104   1.979   0.825  0.5503  1.4272 -0.8132
 3308SOL     OW10318   5.716   5.235   3.327 -0.1695  0.3577  0.2068
 3308SOL    HW110319   5.621   5.235   3.326 -0.1706  0.7717  0.0292
 3308SOL    HW210320   5.741   5.282   3.248  0.2489 -3.0680 -1.8677
 3309SOL     OW10321   2.095   1.350   4.112 -0.1949  0.1560 -0.2933
 3309SOL    HW110322   2.010   1.308   4.125 -0.1684  0.6752  2.1119
 3309SOL    HW210323   2.078   1.443   4.122  0.7299  0.2217  0.9466
 3310SOL     OW10324   6.008   1.405   0.904 -0.5387 -0.0475 -0.2328
 3310SOL    HW110325   5.914   1.418   0.916 -0.5536 -0.8289  0.5860
 3310SOL    HW210326   6.040   1.490   0.874 -1.0326  1.2238  2.5095
 3311SOL     OW10327   1.593   5.692   2.602 -0.5550  0.0150 -0.3673
 3311SOL    HW110328   1.613   5.769   2.655 -0.2862  0.8412 -1.6098
 3311SOL    HW210329   1.655   5.626   2.632  2.0186  1.5373 -1.9369
 3312SOL     OW10330   0.501   4.537   0.698 -0.3599 -0.3528 -0.0507
 3312SOL    HW110331   0.539   4.604   0.642  0.1174 -0.7677 -0.2267
 3312SOL    HW210332   0.473   4.584   0.777 -0.3274  0.1015 -0.3099
 3313SOL     OW10333   4.834   1.296   4.139  0.1848 -0.1058  0.0148
 3313SOL    HW110334   4.763   1.274   4.201 -0.1206 -0.2587 -0.3826
 3313SOL    HW210335   4.868   1.379   4.170 -0.3720  0.1182  0.0383
 3314SOL     OW10336   1.861   0.297   1.783 -0.0581  0.3515  0.3414
 3314SOL    HW110337   1.891   0.356   1.714  1.4583  1.0903  1.5720
 3314SOL    HW210338   1.900   0.331   1.863  0.2086 -1.8597  1.2269
 3315SOL     OW10339   2.815   0.140   5.498  0.2178 -0.3873 -0.0982
 3315SOL    HW110340   2.796   0.063   5.552 -0.2085  0.0419  0.3915
 3315SOL    HW210341   2.816   0.108   5.408  2.2734 -1.3716  0.2248
 3316SOL     OW10342   0.380   6.468   1.475  0.2207  0.2906 -0.4856
 3316SOL    HW110343   0.287   6.489   1.480  0.4482  0.9671  2.4259
 3316SOL    HW210344   0.425   6.547   1.503  1.6728 -0.3133 -0.9913
 3317SOL     OW10345   3.716   2.565   3.964  0.6664 -0.0556  0.2554
 3317SOL    HW110346   3.658   2.641   3.968 -0.9797 -1.2014 -0.4249
 3317SOL    HW210347   3.658   2.491   3.983  2.4718 -1.0697  2.1831
 3318SOL     OW10348   5.378   0.294   1.875 -0.0301 -0.0144 -0.1872
 3318SOL    HW110349   5.413   0.295   1.786  2.2811 -0.5354  0.6339
 3318SOL    HW210350   5.324   0.216   1.880  1.3813 -1.0689 -0.6441
 3319SOL     OW10351   3.563   1.354   4.679  0.1392  0.4802 -0.5156
 3319SOL    HW110352   3.597   1.416   4.614  0.3762  0.0306 -0.8293
 3319SOL    HW210353   3.553   1.405   4.759  0.0058  1.0037 -0.8623
 3320SOL     OW10354   5.846   6.075   5.219 -0.6397  0.5770 -0.3796
 3320SOL    HW110355   5.902   6.039   5.289 -1.5829 -0.5756 -0.1735
 3320SOL    HW210356   5.869   6.167   5.215 -1.1044  0.8684  2.0188
 3321SOL     OW10357   2.270   3.146   0.557  0.2773 -0.2648  0.3662
 3321SOL    HW110358   2.335   3.215   0.540  0.2326 -0.6485 -1.6611
 3321SOL    HW210359   2.188   3.193   0.569  0.1320  0.0640 -1.6016
 3322SOL     OW10360   2.327   1.650   4.390  0.5697 -0.2839 -0.1788
 3322SOL    HW110361   2.381   1.677   4.316 -0.8842  0.2746 -1.0848
 3322SOL    HW210362   2.334   1.723   4.453  1.7315 -0.7179  0.2184
 3323SOL     OW10363   6.322   6.049   2.253 -0.1589 -0.2525  0.2306
 3323SOL    HW110364   6.295   5.965   2.290  1.0205 -1.7021 -1.9381
 3323SOL    HW210365   6.242   6.100   2.249 -0.5250 -0.3253  3.6723
 3324SOL     OW10366   0.542   3.569   1.102  0.0956  0.2381  0.5209
 3324SOL    HW110367   0.533   3.591   1.009 -0.4883  1.8075  0.9074
 3324SOL    HW210368   0.622   3.614   1.129 -1.1591  2.1027  1.3532
 3325SOL     OW10369   0.567   0.763   4.002 -0.3906  0.0816  0.5045
 3325SOL    HW110370   0.522   0.806   3.930 -0.0357  0.9256  0.7783
 3325SOL    HW210371   0.641   0.820   4.023  2.2072 -2.2954 -1.3539
 3326SOL     OW10372   0.584   3.161   1.069  0.4839 -0.2805  0.4901
 3326SOL    HW110373   0.509   3.199   1.023  0.9108  0.1919  0.1658
 3326SOL    HW210374   0.547   3.088   1.119 -0.4261  0.7887  1.4340
 3327SOL     OW10375   3.923   2.322   0.644 -0.2577 -1.1678  0.1374
 3327SOL    HW110376   3.958   2.315   0.555 -1.9289 -1.8003 -0.5058
 3327SOL    HW210377   3.885   2.410   0.649  0.7992 -0.7168  0.6266
 3328SOL     OW10378   6.222   2.739   4.744  0.3582 -0.0359  0.0605
 3328SOL    HW110379   6.155   2.676   4.771 -0.4036  0.3069 -0.9437
 3328SOL    HW210380   6.305   2.694   4.759 -0.1767 -1.6926 -1.5525
 3329SOL     OW10381   6.798   1.946   3.222  0.2195 -0.5304 -0.0513
 3329SOL    HW110382   6.772   1.986   3.305  1.0976  0.0785 -0.0540
 3329SOL    HW210383   6.869   1.887   3.244 -0.3510 -1.2852 -0.2074
 3330SOL     OW10384   4.882   4.119   4.897 -0.5792 -0.7460 -0.1145
 3330SOL    HW110385   4.960   4.104   4.844  1.6567  1.7959  2.1379
 3330SOL    HW210386   4.891   4.059   4.971 -1.9844 -1.9703 -0.8766
 3331SOL     OW10387   1.729   3.654   5.573 -0.7238  0.0780 -0.5374
 3331SOL    HW110388   1.720   3.563   5.600 -2.9017  0.9861  2.1640
 3331SOL    HW210389   1.795   3.690   5.633 -1.7714  0.8552  0.1843
 3332SOL     OW10390   5.211   6.625   1.926 -0.6953 -0.6311 -0.2235
 3332SOL    HW110391   5.167   6.704   1.959  2.3481  0.3980  1.8653
 3332SOL    HW210392   5.272   6.658   1.861  2.1360 -0.7861  2.1639
 3333SOL     OW10393   1.695   4.000   0.903  0.0954  0.0557 -0.0668
 3333SOL    HW110394   1.614   3.996   0.953  0.3632  0.5824  0.4214
 3333SOL    HW210395   1.677   4.061   0.832 -0.8681 -2.0219 -1.7432
 3334SOL     OW10396   0.103   2.568   4.733  0.1576 -0.1917  0.1482
 3334SOL    HW110397   0.104   2.630   4.806 -0.3228 -0.6737  0.5730
 3334SOL    HW210398   0.189   2.525   4.736  1.1855  1.6050 -1.1837
 3335SOL     OW10399   0.376   1.572   6.388 -0.0708  0.5975 -0.2206
 3335SOL    HW110400   0.449   1.548   6.331 -0.4937 -0.6450 -0.2589
 3335SOL    HW210401   0.316   1.497   6.383 -0.4900  0.8179  1.2439
 3336SOL     OW10402   3.269   0.906   4.827 -0.6362  0.2003 -0.4016
 3336SOL    HW110403   3.270   0.810   4.822 -1.4599  0.1364  0.4233
 3336SOL    HW210404   3.354   0.933   4.793 -0.1544 -0.8538 -0.0557
 3337SOL     OW10405   5.814   4.931   2.391 -0.9083  0.9898 -0.1444
 3337SOL    HW110406   5.843   4.849   2.353 -1.5933  0.5453  0.2740
 3337SOL    HW210407   5.889   4.990   2.382 -0.3279  0.2472 -0.2037
 3338SOL     OW10408   1.321   4.798   6.349  0.3175  0.2797  0.5030
 3338SOL    HW110409   1.310   4.813   6.443 -1.3081 -0.7526  0.5249
 3338SOL    HW210410   1.246   4.841   6.309  1.0106  0.7283 -0.3411
 3339SOL     OW10411   6.415   5.514   5.593  0.5752 -0.0917 -0.1926
 3339SOL    HW110412   6.365   5.560   5.660  0.7986 -1.6605  1.0973
 3339SOL    HW210413   6.349   5.483   5.531  0.0907 -0.8286  0.6749
 3340SOL     OW10414   6.127   6.485   5.380 -0.0253  0.5784  0.2448
 3340SOL    HW110415   6.083   6.567   5.402 -2.2599 -0.8475  1.4334
 3340SOL    HW210416   6.167   6.502   5.294 -1.6255  2.4447 -0.2087
 3341SOL     OW10417   3.395   0.086   6.087  0.4201  0.3091  0.0931
 3341SOL    HW110418   3.410   0.006   6.138  2.6459  0.2090 -0.5741
 3341SOL    HW210419   3.452   0.076   6.010 -1.9071  0.9954 -1.8229
 3342SOL     OW10420   3.935   0.686   3.464  0.0138  0.3888  0.3737
 3342SOL    HW110421   3.932   0.680   3.368  0.9774 -0.7083  0.3937
 3342SOL    HW210422   3.892   0.769   3.484 -0.4500  0.5006 -0.9930
 3343SOL     OW10423   2.203   0.436   2.517  0.5829 -0.0221 -0.1102
 3343SOL    HW110424   2.185   0.345   2.495  0.2362  0.1575 -0.5907
 3343SOL    HW210425   2.272   0.432   2.583  1.2408 -0.5984 -0.8159
 3344SOL     OW10426   3.919   0.227   2.701  0.4457  0.1694  0.1672
 3344SOL    HW110427   3.953   0.198   2.617 -1.8434  1.7229 -1.4292
 3344SOL    HW210428   3.933   0.322   2.701 -1.0209  0.4105  0.7780
 3345SOL     OW10429   3.358   4.066   4.344 -0.2659  0.0251 -0.3487
 3345SOL    HW110430   3.392   4.119   4.272  0.5789 -1.7106 -1.2807
 3345SOL    HW210431   3.387   4.111   4.423  2.5263 -0.2715 -1.0949
 3346SOL     OW10432   6.704   0.737   4.480 -0.2412 -0.4421  0.0721
 3346SOL    HW110433   6.701   0.794   4.556 -1.2383 -0.6509  0.2044
 3346SOL    HW210434   6.612   0.719   4.460 -0.1207  1.4559 -2.6019
 3347SOL     OW10435   6.664   5.920   2.559 -0.2054  0.1593 -0.1969
 3347SOL    HW110436   6.634   6.009   2.578 -0.7339 -0.1271  0.3689
 3347SOL    HW210437   6.741   5.908   2.614 -0.4712  0.0782  0.1680
 3348SOL     OW10438   6.585   4.306   2.846 -0.5803 -0.8962  0.2362
 3348SOL    HW110439   6.662   4.351   2.879 -0.6048 -0.1719 -0.6558
 3348SOL    HW210440   6.530   4.375   2.809 -1.0418 -1.5470 -0.3252
 3349SOL     OW10441   0.660   1.256   1.181 -0.6690 -0.2127 -0.2366
 3349SOL    HW110442   0.628   1.200   1.111  1.3705  0.7781 -2.0923
 3349SOL    HW210443   0.746   1.221   1.202  0.0914  1.3910 -0.5266
 3350SOL     OW10444   5.332   0.118   0.846  0.0528 -0.3675 -0.0334
 3350SOL    HW110445   5.374   0.125   0.932  1.5617  1.5780 -0.8348
 3350SOL    HW210446   5.256   0.175   0.853  1.4399  1.6797 -0.5902
 3351SOL     OW10447   3.516   3.769   3.804  0.1434 -0.0462  0.0814
 3351SOL    HW110448   3.510   3.708   3.731  0.6259  0.2320 -0.1940
 3351SOL    HW210449   3.575   3.838   3.774 -2.0586  1.7451 -0.4642
 3352SOL     OW10450   3.585   4.409   4.384  0.3269  0.2115  0.0520
 3352SOL    HW110451   3.615   4.450   4.302 -0.9889  0.1844 -0.4692
 3352SOL    HW210452   3.607   4.317   4.373  1.8295  0.4822  0.5404
 3353SOL     OW10453   0.829   6.589   2.601 -0.0478  0.4078 -0.1637
 3353SOL    HW110454   0.883   6.549   2.533 -0.6141 -0.0610 -0.3442
 3353SOL    HW210455   0.751   6.534   2.605 -0.3285  0.8375  0.3829
 3354SOL     OW10456   3.106   5.887   5.701 -0.4945  0.6004  0.1841
 3354SOL    HW110457   3.170   5.928   5.760 -1.4214  2.5380 -0.0669
 3354SOL    HW210458   3.024   5.891   5.749 -1.1829  1.8165 -1.0212
 3355SOL     OW10459   2.766   1.446   0.556  0.1054 -0.2453  0.0964
 3355SOL    HW110460   2.692   1.457   0.615 -1.3695 -0.7453 -1.5817
 3355SOL    HW210461   2.786   1.534   0.524  0.2166 -0.1153  0.5274
 3356SOL     OW10462   1.461   3.232   5.859  0.0551 -0.0930  0.1719
 3356SOL    HW110463   1.366   3.237   5.864 -0.1628 -0.5658 -2.2373
 3356SOL    HW210464   1.489   3.215   5.949 -2.2940 -2.0773  0.6349
 3357SOL     OW10465   1.034   5.886   3.811  0.8183 -0.2012  0.2017
 3357SOL    HW110466   1.123   5.911   3.784  0.8536  0.1277  0.6156
 3357SOL    HW210467   1.002   5.961   3.861 -0.1939  0.2368 -1.0522
 3358SOL     OW10468   6.229   6.404   1.424  0.2903 -0.1435  0.2805
 3358SOL    HW110469   6.279   6.484   1.438 -0.6480  0.5773 -0.3553
 3358SOL    HW210470   6.251   6.377   1.335 -0.2426  0.0296  0.0940
 3359SOL     OW10471   2.540   3.080   0.796 -0.2610  0.7223 -0.0625
 3359SOL    HW110472   2.506   3.164   0.827  2.3321  2.0007 -0.4768
 3359SOL    HW210473   2.571   3.098   0.707  3.7334  0.4117  1.1014
 3360SOL     OW10474   4.437   2.642   2.869  0.1426 -0.3053 -0.3357
 3360SOL    HW110475   4.431   2.547   2.865 -0.2462 -0.3654  1.0078
 3360SOL    HW210476   4.529   2.659   2.891  0.3887 -0.3290 -1.3319
 3361SOL     OW10477   1.975   1.787   0.674  0.0019 -1.0524 -0.5909
 3361SOL    HW110478   2.048   1.729   0.697  0.8131 -0.5401 -1.7446
 3361SOL    HW210479   1.903   1.728   0.653 -0.1692 -1.5592  1.2204
 3362SOL     OW10480   4.290   3.775   1.468 -0.1585  0.8182  0.6986
 3362SOL    HW110481   4.298   3.848   1.530 -1.1378  1.1475  0.4544
 3362SOL    HW210482   4.285   3.818   1.382  0.3215  0.4061  0.4626
 3363SOL     OW10483   6.364   6.272   0.250  0.0530 -0.1525 -0.0559
 3363SOL    HW110484   6.307   6.333   0.298 -1.4562 -2.5483  1.4368
 3363SOL    HW210485   6.396   6.212   0.318 -0.1442 -2.1947 -1.6816
 3364SOL     OW10486   6.018   3.721   3.722  0.6356 -0.5925 -0.0977
 3364SOL    HW110487   6.035   3.704   3.629  0.8697 -0.6772 -0.0383
 3364SOL    HW210488   6.058   3.647   3.768  2.9602  0.8058  0.2811
 3365SOL     OW10489   0.836   4.368   3.806 -0.2077 -0.0203  0.1235
 3365SOL    HW110490   0.862   4.278   3.783  2.0279  0.5044  0.3030
 3365SOL    HW210491   0.741   4.364   3.814 -0.2995 -2.0731 -1.1264
 3366SOL     OW10492   4.350   0.559   4.901 -0.1402  0.4207 -0.2091
 3366SOL    HW110493   4.408   0.590   4.832 -0.5578 -0.4957 -1.0026
 3366SOL    HW210494   4.313   0.478   4.866 -0.9601  0.3489  0.7770
 3367SOL     OW10495   2.951   3.027   1.866 -0.2958 -0.3331  0.3763
 3367SOL    HW110496   3.003   3.019   1.947  0.8648 -1.3752 -0.4359
 3367SOL    HW210497   2.868   3.066   1.895  0.9679  1.5918  1.6913
 3368SOL     OW10498   1.801   2.548   4.610  0.1043 -0.1514  0.7668
 3368SOL    HW110499   1.861   2.619   4.634 -1.5521  0.8820  2.0544
 3368SOL    HW210500   1.846   2.468   4.636  1.5429  0.4641  0.2968
 3369SOL     OW10501   6.577   4.564   5.554 -0.7390 -0.1684 -0.5506
 3369SOL    HW110502   6.514   4.600   5.492 -0.8868 -1.0159 -0.9123
 3369SOL    HW210503   6.594   4.635   5.616 -0.1716  0.8928 -1.8753
 3370SOL     OW10504   1.403   5.902   3.441  0.0088  0.6943 -0.0371
 3370SOL    HW110505   1.383   5.844   3.515  1.6128  1.5157  1.0851
 3370SOL    HW210506   1.317   5.929   3.409 -0.8881 -2.8862 -1.1667
 3371SOL     OW10507   4.170   2.540   5.057  0.3090  0.1533  0.1564
 3371SOL    HW110508   4.131   2.485   4.988  0.1576  0.7267 -0.2199
 3371SOL    HW210509   4.114   2.617   5.060  1.0325  0.6893  0.0727
 3372SOL     OW10510   3.772   5.003   2.571  0.6603 -0.6153  0.1290
 3372SOL    HW110511   3.767   5.021   2.477  0.4635  0.3311  0.3116
 3372SOL    HW210512   3.858   5.034   2.597  1.0048 -1.5349  0.1430
 3373SOL     OW10513   2.980   4.936   1.939  0.0563  0.5124 -0.9887
 3373SOL    HW110514   3.025   5.016   1.913 -1.2248  1.3139 -0.8587
 3373SOL    HW210515   2.923   4.964   2.011  1.4068 -1.0425  0.7798
 3374SOL     OW10516   3.258   5.597   0.466  0.6821 -0.5936  0.0407
 3374SOL    HW110517   3.339   5.626   0.424 -1.3262  3.6576 -1.5783
 3374SOL    HW210518   3.259   5.641   0.551  0.2698 -0.8886  0.1993
 3375SOL     OW10519   5.878   5.932   2.654  0.2483 -0.0114 -0.1477
 3375SOL    HW110520   5.812   5.870   2.622 -0.9068  1.3103 -0.4612
 3375SOL    HW210521   5.854   6.015   2.612  1.7936  0.6328  0.1918
 3376SOL     OW10522   4.671   3.753   0.166 -0.1002  0.4836  0.1432
 3376SOL    HW110523   4.585   3.781   0.199 -0.7644 -1.4492  0.1661
 3376SOL    HW210524   4.720   3.730   0.245 -0.7764 -1.6277  0.0050
 3377SOL     OW10525   0.443   3.520   2.816 -0.3631  0.3664  0.2390
 3377SOL    HW110526   0.495   3.459   2.764  0.2371  1.0047  0.0883
 3377SOL    HW210527   0.376   3.552   2.755  0.4746  1.2841 -0.2376
 3378SOL     OW10528   4.769   2.890   5.941 -0.2570 -0.4904 -0.6255
 3378SOL    HW110529   4.730   2.928   5.863  0.5704  0.3965 -0.6246
 3378SOL    HW210530   4.695   2.863   5.995 -0.8376 -0.3841 -1.3560
 3379SOL     OW10531   6.506   1.993   0.722  0.3621 -0.1241  0.1669
 3379SOL    HW110532   6.573   1.980   0.789 -0.3237 -1.2406  0.6560
 3379SOL    HW210533   6.555   2.024   0.645  1.6912 -2.3896  0.0134
 3380SOL     OW10534   5.240   0.400   6.280 -0.1971  0.0529 -0.2194
 3380SOL    HW110535   5.191   0.479   6.258  0.4834  0.1166 -1.6130
 3380SOL    HW210536   5.283   0.375   6.199  0.8383 -0.8825  0.5836
 3381SOL     OW10537   5.525   4.504   0.832 -0.0361  0.7527  0.1831
 3381SOL    HW110538   5.542   4.410   0.834 -0.9496  0.5474 -1.0847
 3381SOL    HW210539   5.437   4.512   0.795  0.2680  2.1327 -0.2938
 3382SOL     OW10540   4.863   6.723   6.748 -0.6435  0.2090 -0.2767
 3382SOL    HW110541   4.919   6.647   6.763 -0.8157 -0.1257 -1.2160
 3382SOL    HW210542   4.824   6.707   6.662  0.0857  1.8411 -0.9537
 3383SOL     OW10543   0.354   0.530   4.693  0.3175  0.6056 -0.5690
 3383SOL    HW110544   0.391   0.450   4.655  1.8361  1.4960 -1.0167
 3383SOL    HW210545   0.260   0.521   4.679  0.4390 -1.1130 -0.5726
 3384SOL     OW10546   4.670   3.444   6.714 -0.1511  0.3740 -0.4771
 3384SOL    HW110547   4.743   3.476   6.766  0.4800  2.9847 -2.7112
 3384SOL    HW210548   4.593   3.459   6.769  0.6416  1.3052  0.4172
 3385SOL     OW10549   1.364   0.072   6.488 -0.0314 -0.3050 -0.1862
 3385SOL    HW110550   1.287   0.032   6.527  0.1566 -0.3144  0.1771
 3385SOL    HW210551   1.343   0.078   6.395 -0.7646  0.3558  0.0096
 3386SOL     OW10552   1.524   4.112   6.398 -0.8977  0.5652  0.0304
 3386SOL    HW110553   1.457   4.085   6.461 -1.1059 -0.3799 -0.5779
 3386SOL    HW210554   1.541   4.204   6.420 -2.2130  0.7564  0.3613
 3387SOL     OW10555   1.878   5.526   2.280 -0.1399  0.4552  0.2500
 3387SOL    HW110556   1.792   5.525   2.322 -0.1787  2.9970  0.4099
 3387SOL    HW210557   1.882   5.444   2.231 -2.2168 -0.2078  1.0786
 3388SOL     OW10558   4.727   4.504   1.283 -0.4969  0.2643  0.0744
 3388SOL    HW110559   4.818   4.512   1.311 -0.6407 -0.1272  0.6753
 3388SOL    HW210560   4.690   4.592   1.297 -0.5036  0.1372  0.9178
 3389SOL     OW10561   3.506   0.539   5.068 -0.4479 -0.5839  0.4593
 3389SOL    HW110562   3.520   0.626   5.105 -1.2001 -0.3270  0.1812
 3389SOL    HW210563   3.551   0.479   5.127 -0.9155 -0.1126  1.3184
 3390SOL     OW10564   4.937   4.847   1.428  0.6160 -0.0284 -0.0157
 3390SOL    HW110565   4.919   4.781   1.362  1.2347  1.3086 -1.5965
 3390SOL    HW210566   4.903   4.928   1.390  0.7124  0.7398  1.4570
 3391SOL     OW10567   5.236   0.853   0.886 -0.0109 -0.0611  1.1068
 3391SOL    HW110568   5.283   0.910   0.946  0.9216 -0.3484  0.6623
 3391SOL    HW210569   5.282   0.769   0.892 -0.2559 -0.2501  0.4150
 3392SOL     OW10570   6.591   5.389   2.080  0.3872 -0.5684  0.3167
 3392SOL    HW110571   6.569   5.345   1.998 -0.2366  0.3711 -0.0335
 3392SOL    HW210572   6.507   5.398   2.126  0.7630 -1.2894  1.1655
 3393SOL     OW10573   1.407   6.939   4.780  0.0875  0.0765 -0.1516
 3393SOL    HW110574   1.401   7.034   4.788  2.4246  0.1008  2.8995
 3393SOL    HW210575   1.447   6.926   4.694  1.2707  1.9866  0.0380
 3394SOL     OW10576   1.753   4.322   4.690  0.1901 -0.7420 -0.2964
 3394SOL    HW110577   1.693   4.394   4.675 -1.9803 -2.0815  1.3760
 3394SOL    HW210578   1.712   4.247   4.645  0.7531 -1.6146  0.5988
 3395SOL     OW10579   2.206   4.291   1.369 -0.3951  0.1193 -0.2419
 3395SOL    HW110580   2.190   4.218   1.429 -2.1899 -0.2534 -1.1278
 3395SOL    HW210581   2.165   4.366   1.411  0.0183  0.2733 -0.1087
 3396SOL     OW10582   2.767   3.626   4.453 -0.4416  0.0183  0.1620
 3396SOL    HW110583   2.844   3.580   4.486 -0.6117 -0.8286 -0.5566
 3396SOL    HW210584   2.803   3.702   4.407  0.0261 -0.6716 -0.6521
 3397SOL     OW10585   1.304   3.785   6.556  0.0553 -0.2709 -0.1404
 3397SOL    HW110586   1.334   3.784   6.465 -1.3591  0.5402 -0.6636
 3397SOL    HW210587   1.210   3.806   6.549  0.3247  1.8113  1.5831
 3398SOL     OW10588   5.300   0.996   0.467 -0.0495 -0.2941  0.0343
 3398SOL    HW110589   5.334   1.039   0.546  0.3815  0.7522 -0.6994
 3398SOL    HW210590   5.377   0.961   0.423  0.1003  1.7019 -1.4104
 3399SOL     OW10591   5.111   5.116   0.289  0.4106  0.5450  0.0095
 3399SOL    HW110592   5.100   5.206   0.259  0.5855  0.3127 -0.7730
 3399SOL    HW210593   5.204   5.097   0.275  0.2954  0.1203 -0.1802
 3400SOL     OW10594   2.186   6.419   4.216  0.0403  0.2280 -0.5013
 3400SOL    HW110595   2.274   6.456   4.231 -0.4495  1.2139  0.0567
 3400SOL    HW210596   2.127   6.494   4.224 -1.1113 -0.7969  1.6856
 3401SOL     OW10597   4.132   6.241   1.409 -0.3223  0.4149  0.0070
 3401SOL    HW110598   4.176   6.202   1.334  1.9070  2.0685  0.3653
 3401SOL    HW210599   4.115   6.332   1.383 -0.0086  0.8638  1.2697
 3402SOL     OW10600   0.839   5.186   2.216 -0.8582  0.8101  0.1158
 3402SOL    HW110601   0.867   5.196   2.307 -1.2166  2.3795  0.0772
 3402SOL    HW210602   0.761   5.130   2.221  0.1692 -0.6504  0.5567
 3403SOL     OW10603   0.907   6.282   3.525  0.7410 -0.1190  0.4973
 3403SOL    HW110604   0.992   6.239   3.536  1.2634  1.5353  4.3924
 3403SOL    HW210605   0.930   6.371   3.498  0.1195 -0.0521  0.1771
 3404SOL     OW10606   2.313   6.674   4.791 -0.4470  0.2166 -0.3766
 3404SOL    HW110607   2.280   6.648   4.705 -1.5062  3.4559 -1.1128
 3404SOL    HW210608   2.312   6.770   4.788  0.6267  0.4307  2.8440
 3405SOL     OW10609   0.233   3.158   2.912 -0.0791 -0.1201  0.1343
 3405SOL    HW110610   0.180   3.218   2.860 -1.0411 -0.1363  1.0722
 3405SOL    HW210611   0.300   3.214   2.953  1.4431 -0.2658 -1.9848
 3406SOL     OW10612   4.481   2.685   5.089 -0.1261  0.1481  0.6184
 3406SOL    HW110613   4.397   2.725   5.110  0.7017  1.4872  1.4970
 3406SOL    HW210614   4.530   2.687   5.172  0.0259 -2.5720  0.6873
 3407SOL     OW10615   5.429   5.125   1.485  0.3146  0.1357  0.0714
 3407SOL    HW110616   5.453   5.039   1.451  1.4461 -1.1222  3.5789
 3407SOL    HW210617   5.333   5.122   1.495  0.1495 -0.0107 -1.3868
 3408SOL     OW10618   0.475   3.517   6.735 -0.0039  0.4041 -0.1053
 3408SOL    HW110619   0.500   3.476   6.818  0.1745 -1.1411 -0.8971
 3408SOL    HW210620   0.557   3.554   6.702  0.9311 -2.6419 -1.5697
 3409SOL     OW10621   1.460   2.287   6.729  0.2125  0.1626 -0.0023
 3409SOL    HW110622   1.402   2.233   6.783  0.9432 -1.6367 -0.9015
 3409SOL    HW210623   1.439   2.261   6.639  1.4827  0.4284 -0.4002
 3410SOL     OW10624   3.256   1.218   0.321  0.1679 -0.0988 -0.1623
 3410SOL    HW110625   3.208   1.251   0.245 -1.6258 -1.8740  0.1311
 3410SOL    HW210626   3.285   1.130   0.296 -0.1280 -0.5625  1.0665
 3411SOL     OW10627   5.453   3.510   6.094 -0.2031 -0.7010 -0.2476
 3411SOL    HW110628   5.376   3.472   6.053 -0.9004 -1.2755  1.4849
 3411SOL    HW210629   5.493   3.438   6.142 -0.7898  0.3671  1.9956
 3412SOL     OW10630   2.342   2.052   3.693  0.9666  0.1695 -0.3854
 3412SOL    HW110631   2.366   2.012   3.777 -0.1343 -0.3444 -0.2848
 3412SOL    HW210632   2.385   1.998   3.627  0.2428 -0.6499 -0.2091
 3413SOL     OW10633   1.481   1.511   0.034  0.7307  0.1625 -0.5256
 3413SOL    HW110634   1.435   1.576   0.088  0.4109  1.7490 -2.5494
 3413SOL    HW210635   1.518   1.562  -0.038  1.2948 -1.8017 -1.7054
 3414SOL     OW10636   1.561   1.082   1.531  0.0033  0.1083  0.1581
 3414SOL    HW110637   1.529   1.099   1.620  0.6475 -0.0139  0.4193
 3414SOL    HW210638   1.622   1.010   1.541  0.3061  0.2915 -0.3448
 3415SOL     OW10639   6.072   1.720   2.344 -0.4532  0.2676 -0.6619
 3415SOL    HW110640   6.072   1.815   2.350 -0.2016  0.2134  0.3556
 3415SOL    HW210641   6.018   1.701   2.267 -2.6537  1.1569  0.5641
 3416SOL     OW10642   1.306   3.049   1.733 -0.1182  0.2638 -0.3796
 3416SOL    HW110643   1.323   3.036   1.640 -0.8438  1.1218 -0.6461
 3416SOL    HW210644   1.354   2.978   1.777 -0.1470 -0.4167 -1.4281
 3417SOL     OW10645   4.484   1.966   2.177  0.1813  0.0436 -0.1305
 3417SOL    HW110646   4.526   1.881   2.161 -1.4599 -0.7574 -0.5151
 3417SOL    HW210647   4.520   1.995   2.261  2.7023  0.2554 -1.2035
 3418SOL     OW10648   3.236   5.712   0.735  0.4465  0.4995  0.3212
 3418SOL    HW110649   3.287   5.787   0.707  2.6969 -1.1463 -0.2609
 3418SOL    HW210650   3.161   5.750   0.781  1.0586  3.0737 -0.6482
 3419SOL     OW10651   1.228   5.246   0.229  0.2038  0.1712  0.1271
 3419SOL    HW110652   1.205   5.311   0.162  0.4577  0.8299  0.6571
 3419SOL    HW210653   1.171   5.171   0.211 -0.5496  0.7859 -0.1250
 3420SOL     OW10654   0.347   2.212   1.907 -0.3183 -0.2918  0.0166
 3420SOL    HW110655   0.318   2.163   1.984  1.7739  0.7467  1.5582
 3420SOL    HW210656   0.434   2.177   1.887 -0.0300  0.7774 -0.6685
 3421SOL     OW10657   3.134   2.978   3.578  0.2264  0.4084 -0.4389
 3421SOL    HW110658   3.165   2.960   3.490  0.2408  1.4314 -0.6559
 3421SOL    HW210659   3.194   2.930   3.635 -0.0835 -0.6669 -0.9848
 3422SOL     OW10660   6.462   1.527   6.048 -0.1280 -0.1590  0.0334
 3422SOL    HW110661   6.483   1.452   6.104 -1.9231 -1.0655 -0.4364
 3422SOL    HW210662   6.522   1.519   5.974  2.8864  1.5416  2.0640
 3423SOL     OW10663   4.214   1.160   5.089 -0.1213 -0.2553  0.4206
 3423SOL    HW110664   4.267   1.086   5.060  0.8480 -0.7291  3.1182
 3423SOL    HW210665   4.268   1.237   5.069 -0.7395 -0.2725 -1.5487
 3424SOL     OW10666   2.026   6.351   3.313  0.4774 -0.2165 -0.3712
 3424SOL    HW110667   2.030   6.295   3.236  0.2307 -0.0337 -0.5190
 3424SOL    HW210668   1.960   6.417   3.291 -1.0243 -1.2863  0.7360
 3425SOL     OW10669   0.125   2.769   6.013  0.1197  0.3879  0.0197
 3425SOL    HW110670   0.161   2.680   6.011  1.0790  0.7495 -2.0782
 3425SOL    HW210671   0.037   2.759   5.974 -0.4174  0.1459  1.2538
 3426SOL     OW10672   4.273   3.913   4.369 -0.1651  0.6863  0.1882
 3426SOL    HW110673   4.286   3.931   4.275  1.6836  1.9813  0.6293
 3426SOL    HW210674   4.327   3.836   4.386 -1.1732 -0.0694  0.0473
 3427SOL     OW10675   1.033   5.552   6.446 -0.2412 -0.2642  0.2436
 3427SOL    HW110676   1.074   5.573   6.362 -0.3740  0.6376  0.3966
 3427SOL    HW210677   0.939   5.555   6.428 -0.2680 -0.2038  0.3989
 3428SOL     OW10678   3.007   2.863   5.881  0.1371  0.1763  0.2007
 3428SOL    HW110679   2.943   2.798   5.852  0.7434 -0.9020  1.1897
 3428SOL    HW210680   3.089   2.814   5.890  0.2493  0.6540  2.6001
 3429SOL     OW10681   3.042   5.505   2.249 -0.4610 -0.5527  0.1798
 3429SOL    HW110682   3.132   5.487   2.222 -0.9323 -1.4418 -0.8786
 3429SOL    HW210683   3.031   5.599   2.234  0.5842 -0.2317  1.2759
 3430SOL     OW10684   0.958   2.278   1.929 -0.2591  0.1945  0.1719
 3430SOL    HW110685   0.956   2.373   1.941  0.3849  0.2960 -0.4145
 3430SOL    HW210686   0.928   2.265   1.839  1.8419  0.0406 -0.5666
 3431SOL     OW10687   2.396   2.483   4.828 -0.2813  0.2632 -0.1781
 3431SOL    HW110688   2.393   2.549   4.759  0.8234  2.7370  1.9508
 3431SOL    HW210689   2.486   2.486   4.860 -0.4137 -1.7608  0.5178
 3432SOL     OW10690   0.322   0.148   5.101 -0.4925  0.5556 -0.1107
 3432SOL    HW110691   0.301   0.122   5.191  0.8475  0.1826  0.1173
 3432SOL    HW210692   0.414   0.176   5.105  0.0156 -0.7540 -1.6274
 3433SOL     OW10693   0.329   4.512   4.829  0.1597  0.1786  0.0429
 3433SOL    HW110694   0.409   4.462   4.820  0.0299 -0.0103 -0.0675
 3433SOL    HW210695   0.315   4.553   4.743 -0.8694 -1.3125 -0.5439
 3434SOL     OW10696   0.033   2.309   4.809 -0.0518 -0.1926 -0.4340
 3434SOL    HW110697   0.112   2.309   4.755  1.3404 -2.8995  1.3225
 3434SOL    HW210698   0.057   2.357   4.888 -0.7219  0.3659 -0.5612
 3435SOL     OW10699   2.911   4.226   5.891 -0.6676  0.3500  0.8995
 3435SOL    HW110700   2.816   4.230   5.880 -0.4267 -0.5037 -2.9183
 3435SOL    HW210701   2.927   4.135   5.916 -0.8112  0.1255  0.2073
 3436SOL     OW10702   5.971   0.904   4.673 -0.2713 -0.3457  0.6168
 3436SOL    HW110703   5.991   0.953   4.593 -1.9076  0.7113  0.8052
 3436SOL    HW210704   5.983   0.813   4.649 -0.5077 -0.0256 -0.7823
 3437SOL     OW10705   3.273   6.726   6.116  0.3571 -0.4792  0.3401
 3437SOL    HW110706   3.201   6.700   6.058  1.1638  0.7638 -1.3071
 3437SOL    HW210707   3.307   6.644   6.151 -0.7648 -1.1935 -0.1850
 3438SOL     OW10708   2.941   5.249   5.212  0.2082 -0.2824 -0.1844
 3438SOL    HW110709   2.985   5.185   5.156 -0.2334 -0.4169 -0.3778
 3438SOL    HW210710   2.938   5.208   5.298 -0.0406 -0.5063 -0.3003
 3439SOL     OW10711   4.364   0.009   6.091 -0.3800 -0.3992 -0.0785
 3439SOL    HW110712   4.323  -0.039   6.163  0.5171  1.4088  1.7309
 3439SOL    HW210713   4.458  -0.005   6.104 -0.2199 -2.4956 -2.7348
 3440SOL     OW10714   5.343   2.615   4.080  0.4553 -0.4643  0.0439
 3440SOL    HW110715   5.352   2.586   3.989  0.5577 -0.3120  0.0048
 3440SOL    HW210716   5.397   2.554   4.130  1.0150 -0.0892 -0.0873
 3441SOL     OW10717   0.154   5.297   1.419 -0.0774  0.1056  0.7676
 3441SOL    HW110718   0.155   5.261   1.331 -3.0138 -0.5241  0.8949
 3441SOL    HW210719   0.186   5.226   1.475 -1.6682 -0.8630  0.5302
 3442SOL     OW10720   5.395   4.363   5.400  0.5380  1.0209  0.7664
 3442SOL    HW110721   5.391   4.295   5.332 -0.7096  0.5935  1.2376
 3442SOL    HW210722   5.462   4.331   5.460  0.1398  0.3082  0.8522
 3443SOL     OW10723   6.841   4.599   2.585  0.0158  0.3427 -0.1564
 3443SOL    HW110724   6.777   4.605   2.656 -1.8801 -1.3619 -1.5933
 3443SOL    HW210725   6.877   4.510   2.593 -1.0854 -0.3279 -1.9241
 3444SOL     OW10726   2.958   4.127   4.831  0.4568 -0.0443  0.8953
 3444SOL    HW110727   2.930   4.082   4.911  1.3782 -0.6735  0.8820
 3444SOL    HW210728   3.052   4.137   4.840  0.3454  1.4294  0.6417
 3445SOL     OW10729   0.327   5.956   0.058  0.1992  0.4121 -0.0116
 3445SOL    HW110730   0.329   6.026   0.123 -0.0320  1.3130 -0.9539
 3445SOL    HW210731   0.414   5.957   0.018  1.2180 -1.7411  1.8709
 3446SOL     OW10732   6.436   2.777   3.945  0.3445  1.1165  0.1141
 3446SOL    HW110733   6.417   2.706   3.884 -0.0885 -0.9153  2.4589
 3446SOL    HW210734   6.489   2.737   4.013  0.9134  3.3141  1.0532
 3447SOL     OW10735   0.776   5.415   2.053 -0.4672  0.1108  0.6164
 3447SOL    HW110736   0.785   5.342   2.115  1.6235  1.0687  1.5570
 3447SOL    HW210737   0.845   5.400   1.988 -1.0924  0.3875 -0.1256
 3448SOL     OW10738   3.045   5.484   2.908 -0.1500  0.3690  0.2912
 3448SOL    HW110739   3.092   5.406   2.880  0.9498  1.0298  0.2523
 3448SOL    HW210740   3.041   5.477   3.003  0.0874  0.3481  0.2990
 3449SOL     OW10741   1.065   6.000   4.463  0.1003 -0.2814  0.3020
 3449SOL    HW110742   1.136   5.957   4.415 -0.7850 -0.9251 -0.4457
 3449SOL    HW210743   1.024   6.057   4.399 -0.7503 -0.7435  0.4249
 3450SOL     OW10744   0.088   1.960   2.382  0.3386 -0.4450 -0.0586
 3450SOL    HW110745   0.089   2.034   2.442  0.0975 -0.6891  0.2553
 3450SOL    HW210746   0.180   1.938   2.369  0.3895 -0.4560  0.3113
 3451SOL     OW10747   4.825   3.306   3.815  0.1296  0.7534 -0.8048
 3451SOL    HW110748   4.904   3.297   3.868  0.8834  0.7605 -1.8894
 3451SOL    HW210749   4.764   3.243   3.853  0.3037  1.4167  0.6347
 3452SOL     OW10750   2.729   3.606   6.499 -0.0186  0.1440 -0.0955
 3452SOL    HW110751   2.641   3.590   6.533  0.3349  0.5989  1.0990
 3452SOL    HW210752   2.784   3.610   6.577  1.3981 -2.0314 -0.8813
 3453SOL     OW10753   2.879   2.818   1.255 -0.2433 -0.0619 -0.0464
 3453SOL    HW110754   2.822   2.748   1.223  1.1470 -1.4818  0.4397
 3453SOL    HW210755   2.950   2.772   1.301 -1.2744  1.7677  3.7678
 3454SOL     OW10756   2.532   0.919   5.553 -0.2081 -0.1669 -0.2943
 3454SOL    HW110757   2.573   0.950   5.472 -0.4705  1.7050  0.2287
 3454SOL    HW210758   2.507   0.829   5.535  1.4324 -0.3980 -1.6403
 3455SOL     OW10759   1.495   3.383   6.388 -0.1892  0.6054  0.4576
 3455SOL    HW110760   1.436   3.408   6.316 -0.9123 -1.1043  0.3957
 3455SOL    HW210761   1.441   3.389   6.466 -0.0867  0.2109  0.5583
 3456SOL     OW10762   5.564   4.264   3.544 -1.0275  0.0495  0.1914
 3456SOL    HW110763   5.544   4.170   3.536  0.3323 -0.2937  0.7111
 3456SOL    HW210764   5.643   4.276   3.492  0.8931  0.1725  2.9486
 3457SOL     OW10765   3.257   0.001   6.897 -0.0681  1.4176 -0.6047
 3457SOL    HW110766   3.334   0.005   6.840 -0.0576  2.2062 -0.5494
 3457SOL    HW210767   3.263  -0.084   6.941  0.6313  1.3708 -0.7883
 3458SOL     OW10768   3.988   6.173   0.014  0.3138 -0.2781 -0.0970
 3458SOL    HW110769   3.995   6.208  -0.074  0.1418 -0.6447 -0.2602
 3458SOL    HW210770   3.925   6.102   0.006 -0.5022  0.3617  0.5282
 3459SOL     OW10771   0.011   5.907   3.392 -0.1198 -0.3491 -0.0546
 3459SOL    HW110772  -0.025   5.854   3.463  0.7328 -1.8387 -0.6732
 3459SOL    HW210773   0.102   5.924   3.417 -0.1405  0.1037 -0.2643
 3460SOL     OW10774   5.295   0.531   2.396  0.1086 -0.4037 -0.3992
 3460SOL    HW110775   5.387   0.509   2.412  1.1499  1.9468 -2.4986
 3460SOL    HW210776   5.281   0.510   2.303 -1.6308 -1.0914 -0.0221
 3461SOL     OW10777   5.461   5.128   2.346  0.0330  0.5154  0.0304
 3461SOL    HW110778   5.495   5.066   2.281 -0.0778 -0.1169  0.5576
 3461SOL    HW210779   5.499   5.099   2.429 -0.9323  0.4335  0.4656
 3462SOL     OW10780   2.481   5.815   2.635 -0.8426  0.5714  0.3499
 3462SOL    HW110781   2.406   5.840   2.579 -1.0726  1.0064  0.8408
 3462SOL    HW210782   2.446   5.818   2.724 -1.3375 -3.0880  0.4092
 3463SOL     OW10783   3.458   1.001   0.729  0.0339  0.2198  0.0607
 3463SOL    HW110784   3.504   1.082   0.711  1.4013  0.1098  2.5643
 3463SOL    HW210785   3.399   1.023   0.802 -1.8043 -0.3539 -1.1911
 3464SOL     OW10786   1.733   2.029   0.366  1.1157  0.4101 -0.1476
 3464SOL    HW110787   1.726   1.934   0.372  1.3713  0.3997  0.0308
 3464SOL    HW210788   1.777   2.045   0.282 -0.6404  0.4622 -1.1024
 3465SOL     OW10789   2.566   3.632   3.220 -0.1707 -0.2017  0.3653
 3465SOL    HW110790   2.571   3.559   3.158 -0.4930 -1.1843  1.4561
 3465SOL    HW210791   2.473   3.639   3.241 -0.0232 -0.1352  1.0129
 3466SOL     OW10792   2.366   2.147   5.126 -0.4955  0.1926 -0.0426
 3466SOL    HW110793   2.277   2.158   5.160 -0.5761 -1.5479  0.3994
 3466SOL    HW210794   2.413   2.101   5.196  0.7504  1.0229 -0.2959
 3467SOL     OW10795   3.595   2.327   1.474  0.2912 -0.5012 -0.2348
 3467SOL    HW110796   3.625   2.397   1.416 -0.9904  2.2990  2.2083
 3467SOL    HW210797   3.524   2.367   1.524 -1.1978 -3.9319  0.6346
 3468SOL     OW10798   1.936   5.786   4.892  0.4053  0.1738  0.0089
 3468SOL    HW110799   2.009   5.732   4.860  0.4301  1.3020 -1.9707
 3468SOL    HW210800   1.864   5.765   4.833  0.1007  1.4888 -0.1018
 3469SOL     OW10801   6.791   6.241   3.982 -0.1388 -0.1079  0.0779
 3469SOL    HW110802   6.700   6.247   4.013  0.0366 -0.7014  0.7249
 3469SOL    HW210803   6.799   6.313   3.919 -0.7123  0.7043  0.9005
 3470SOL     OW10804   2.111   2.165   3.990  0.5858  0.1339  0.1187
 3470SOL    HW110805   2.100   2.090   3.931  0.1967 -0.0130  0.3754
 3470SOL    HW210806   2.162   2.228   3.940 -0.5761  0.4147 -0.7321
 3471SOL     OW10807   6.700   0.718   3.843  0.6237 -0.0245 -0.2776
 3471SOL    HW110808   6.761   0.791   3.832 -0.8920  1.1529 -1.3437
 3471SOL    HW210809   6.734   0.649   3.786  1.4292  0.2908 -0.1862
 3472SOL     OW10810   4.088   6.536   0.002  0.2571 -0.5139  0.8613
 3472SOL    HW110811   4.056   6.470  -0.060 -0.6622 -0.3248  1.1217
 3472SOL    HW210812   4.074   6.620  -0.043 -1.6364 -0.2729  1.8012
 3473SOL     OW10813   1.765   3.356   4.645 -0.0625  0.3774  0.0395
 3473SOL    HW110814   1.788   3.449   4.634 -0.0727  0.3070 -0.5847
 3473SOL    HW210815   1.751   3.324   4.556  2.4407 -0.8744  0.0033
 3474SOL     OW10816   0.252   4.912   4.816 -0.2765 -0.4125  0.0394
 3474SOL    HW110817   0.249   4.896   4.911  1.0157 -1.8502 -0.1207
 3474SOL    HW210818   0.163   4.940   4.794  0.2988  3.9447  2.2546
 3475SOL     OW10819   0.361   1.069   0.541 -0.0835 -0.0136  0.0467
 3475SOL    HW110820   0.283   1.124   0.548 -0.4220 -0.1340 -2.0706
 3475SOL    HW210821   0.387   1.077   0.450  2.6853  0.3707  0.7934
 3476SOL     OW10822   0.590   3.436   1.560 -0.1056 -0.1823 -0.4933
 3476SOL    HW110823   0.625   3.404   1.477  0.4378 -0.3490 -0.2084
 3476SOL    HW210824   0.645   3.511   1.582 -0.5898  0.1975 -0.5426
 3477SOL     OW10825   5.374   0.766   5.705 -0.1521 -0.1434  0.1076
 3477SOL    HW110826   5.446   0.705   5.696  0.2142  0.2527  0.2948
 3477SOL    HW210827   5.357   0.769   5.799 -0.1080  0.1021  0.1094
 3478SOL     OW10828   5.281   4.732   5.557  0.2689  0.2912  0.5063
 3478SOL    HW110829   5.364   4.691   5.531  0.4938  1.6137 -1.0691
 3478SOL    HW210830   5.232   4.740   5.475 -0.0930  2.3621  0.8711
 3479SOL     OW10831   4.068   1.988   2.350  0.3709 -0.2372 -0.1925
 3479SOL    HW110832   4.082   1.905   2.304  1.4163  0.4435 -1.1589
 3479SOL    HW210833   4.118   1.979   2.431  2.4680  0.3036 -1.3730
 3480SOL     OW10834   4.612   6.639   4.442  0.1890  0.2766 -0.2830
 3480SOL    HW110835   4.522   6.628   4.413 -0.3144  2.0604  0.4991
 3480SOL    HW210836   4.633   6.730   4.421  0.6756  0.8854  2.5083
 3481SOL     OW10837   4.932   1.497   1.945 -0.4780  0.3281 -0.3552
 3481SOL    HW110838   4.875   1.500   1.867 -0.7432 -0.9860 -0.2298
 3481SOL    HW210839   5.019   1.479   1.910  0.0420  2.8701 -0.5986
 3482SOL     OW10840   5.407   5.613   1.954  0.0867 -0.0251  0.0220
 3482SOL    HW110841   5.347   5.635   1.883  0.1013 -1.2447 -0.3778
 3482SOL    HW210842   5.377   5.668   2.027  0.3706  1.5960 -1.0283
 3483SOL     OW10843   6.539   2.480   5.351  0.3949 -0.1983  0.0020
 3483SOL    HW110844   6.528   2.386   5.337  1.0956 -0.1994 -0.5914
 3483SOL    HW210845   6.631   2.496   5.333  0.2093  0.6583 -0.2132
 3484SOL     OW10846   4.915   5.559   2.889 -0.3772  0.8549 -0.2407
 3484SOL    HW110847   4.874   5.488   2.939  0.3065  1.4554  1.2175
 3484SOL    HW210848   4.980   5.515   2.834  1.3821  0.4504  2.0169
 3485SOL     OW10849   1.537   3.399   1.087  0.7447  0.1824  0.5317
 3485SOL    HW110850   1.629   3.395   1.059  0.8798  0.7738  0.8691
 3485SOL    HW210851   1.487   3.388   1.007  1.1228  1.4582  0.0852
 3486SOL     OW10852   4.550   5.177   3.569  0.0516 -0.0680 -0.3919
 3486SOL    HW110853   4.607   5.124   3.513  1.3323 -0.6718  1.4067
 3486SOL    HW210854   4.609   5.240   3.611 -0.7700  0.0098  0.6823
 3487SOL     OW10855   3.939   2.194   5.421 -0.5600 -0.0007  0.1453
 3487SOL    HW110856   3.844   2.197   5.431 -0.4302  0.4699  1.3631
 3487SOL    HW210857   3.968   2.284   5.435  0.1966 -0.4084  1.3145
 3488SOL     OW10858   3.237   0.467   1.035 -0.0558  0.1767  0.0576
 3488SOL    HW110859   3.178   0.457   0.960 -1.2234  0.6216  0.8851
 3488SOL    HW210860   3.179   0.467   1.111  1.1254 -0.5069  0.9888
 3489SOL     OW10861   2.141   0.998   2.333 -0.1206  0.8801  0.2797
 3489SOL    HW110862   2.197   1.022   2.407  0.4174  3.0362 -0.7314
 3489SOL    HW210863   2.166   1.060   2.264 -1.9770  0.2219 -1.0569
 3490SOL     OW10864   4.100   5.028   3.921  0.3192 -0.3119  0.2977
 3490SOL    HW110865   4.024   5.042   3.865  1.1294  0.9487 -0.5176
 3490SOL    HW210866   4.163   4.980   3.867  0.7704  0.1511  0.4050
 3491SOL     OW10867   6.376   6.693   4.751 -0.0911 -0.3280  0.6543
 3491SOL    HW110868   6.444   6.737   4.699  0.9357  1.0544  3.0185
 3491SOL    HW210869   6.399   6.600   4.746  1.1035 -0.0316  0.2015
 3492SOL     OW10870   4.369   0.284   2.670  0.6171 -0.1509  0.6122
 3492SOL    HW110871   4.448   0.266   2.619  0.3159  0.2350 -0.0056
 3492SOL    HW210872   4.346   0.374   2.647  0.7926  0.2432  1.8764
 3493SOL     OW10873   2.748   4.508   5.312 -0.7049  0.3424  0.8397
 3493SOL    HW110874   2.732   4.555   5.394  0.5776 -0.5687  1.6558
 3493SOL    HW210875   2.839   4.479   5.319 -0.6954 -0.0815 -0.7533
 3494SOL     OW10876   0.682   5.286   5.244  0.3295 -0.4050  0.5736
 3494SOL    HW110877   0.643   5.318   5.325 -0.4439 -0.7020  0.3240
 3494SOL    HW210878   0.616   5.229   5.206  0.6083 -0.1243 -0.3639
 3495SOL     OW10879   2.488   3.716   4.866 -0.1966  0.0004  0.2161
 3495SOL    HW110880   2.454   3.729   4.778  1.4951 -0.7163 -0.5906
 3495SOL    HW210881   2.512   3.804   4.895 -0.3725  0.1903 -0.2048
 3496SOL     OW10882   0.978   5.202   2.903  0.6466 -0.2129  0.5993
 3496SOL    HW110883   0.968   5.296   2.914  0.7790 -0.1983  0.5953
 3496SOL    HW210884   1.007   5.171   2.989  3.0357  0.0857 -0.0446
 3497SOL     OW10885   5.281   3.419   5.920  0.2008 -0.2168  0.3187
 3497SOL    HW110886   5.306   3.462   5.838  1.8095 -0.2972  0.7217
 3497SOL    HW210887   5.288   3.326   5.901 -1.0535 -0.2811  0.0965
 3498SOL     OW10888   5.978   3.165   1.863  0.3951  0.0319  0.2330
 3498SOL    HW110889   5.905   3.157   1.924 -0.2226  0.7061 -0.3993
 3498SOL    HW210890   5.984   3.078   1.822  0.5456 -0.2976  0.9486
 3499SOL     OW10891   5.787   5.220   6.395 -0.1058  0.0029 -0.6162
 3499SOL    HW110892   5.811   5.129   6.412  2.5883  0.3512 -1.9970
 3499SOL    HW210893   5.762   5.255   6.481 -2.8640 -2.3593 -0.3028
 3500SOL     OW10894   2.146   0.102   0.978  0.9979 -0.0004 -0.3947
 3500SOL    HW110895   2.147   0.113   0.883 -0.9853 -0.5475 -0.5353
 3500SOL    HW210896   2.212   0.163   1.011  0.6808  1.2745 -2.0201
 3501SOL     OW10897   1.975   1.643   1.786  0.6782 -0.0004  0.0348
 3501SOL    HW110898   1.998   1.672   1.874  1.5428 -0.5368  0.0054
 3501SOL    HW210899   1.967   1.548   1.793  0.9454 -0.0707 -0.4936
 3502SOL     OW10900   6.868   3.362   5.070  0.6541  0.2196 -0.2172
 3502SOL    HW110901   6.800   3.428   5.057 -0.2422 -0.7181 -0.4215
 3502SOL    HW210902   6.825   3.291   5.117  1.7189 -0.0439  0.4070
 3503SOL     OW10903   0.485   6.729   3.174  0.0516 -0.6818  0.2819
 3503SOL    HW110904   0.395   6.753   3.153  0.6478  0.2024 -1.5191
 3503SOL    HW210905   0.496   6.641   3.139  0.0925 -0.4863 -0.2081
 3504SOL     OW10906   6.805   0.525   6.672 -0.1105 -0.0626 -0.1984
 3504SOL    HW110907   6.875   0.477   6.717 -0.2005 -0.3996 -0.4144
 3504SOL    HW210908   6.849   0.598   6.629 -0.0512  0.3861  0.6080
 3505SOL     OW10909   4.100   6.571   6.093 -0.2918 -0.0920  0.4330
 3505SOL    HW110910   4.139   6.559   6.007  0.5106  0.1374  0.7530
 3505SOL    HW210911   4.047   6.650   6.084  0.0141  0.0921  0.2261
 3506SOL     OW10912   3.597   0.441   5.792  0.2887  0.1090  0.0213
 3506SOL    HW110913   3.647   0.396   5.860 -1.6770  0.6189  1.9216
 3506SOL    HW210914   3.619   0.395   5.711  1.3744 -1.6692  1.2588
 3507SOL     OW10915   5.534   0.544   2.025  0.6220  0.0752  0.3661
 3507SOL    HW110916   5.465   0.597   1.985 -0.9220 -0.1964  2.5014
 3507SOL    HW210917   5.518   0.455   1.993  0.8656  0.2509 -0.2489
 3508SOL     OW10918   1.544   4.468   2.865  0.7093 -0.0331  0.4505
 3508SOL    HW110919   1.462   4.487   2.820  1.6862  2.0393 -0.5713
 3508SOL    HW210920   1.524   4.484   2.958 -0.2204 -0.2581  0.3009
 3509SOL     OW10921   2.090   6.786   5.100  0.3367  0.5832 -0.4127
 3509SOL    HW110922   2.184   6.780   5.117  0.1566  0.4893  0.6353
 3509SOL    HW210923   2.082   6.854   5.033  1.2246 -0.1644 -1.2928
 3510SOL     OW10924   5.732   0.699   0.401  0.2952  0.5337  0.5291
 3510SOL    HW110925   5.812   0.720   0.354  0.5460 -1.5131 -0.0275
 3510SOL    HW210926   5.735   0.604   0.415 -0.6986  0.7686  2.9767
 3511SOL     OW10927   1.190   2.815   2.469  0.4432  0.4161 -0.4547
 3511SOL    HW110928   1.192   2.834   2.563 -0.5560 -2.7747  0.3394
 3511SOL    HW210929   1.099   2.826   2.444 -0.0397 -2.1973 -0.1118
 3512SOL     OW10930   0.110   3.534   2.996 -0.2177  0.1350  0.1719
 3512SOL    HW110931   0.171   3.465   2.973  0.7169  0.4200  1.6458
 3512SOL    HW210932   0.108   3.592   2.920 -0.4674 -1.0977 -0.7943
 3513SOL     OW10933   0.170   6.770   1.392  0.5276 -0.0576  0.2713
 3513SOL    HW110934   0.225   6.739   1.320 -0.4453 -1.0284 -0.0793
 3513SOL    HW210935   0.140   6.690   1.435 -0.4762  0.4638  0.5590
 3514SOL     OW10936   6.586   3.888   3.367 -0.4683 -0.2573  0.3880
 3514SOL    HW110937   6.499   3.849   3.358  0.1355 -1.4110 -0.8438
 3514SOL    HW210938   6.577   3.950   3.439 -2.9328  1.4816 -1.2630
 3515SOL     OW10939   5.253   6.093   2.209  0.1591 -0.6018 -0.2883
 3515SOL    HW110940   5.195   6.152   2.258 -0.1774 -0.4273 -0.8888
 3515SOL    HW210941   5.332   6.146   2.192  0.5167 -0.8479  0.5501
 3516SOL     OW10942   4.173   3.843   4.790  0.4280 -0.3198 -0.0698
 3516SOL    HW110943   4.203   3.897   4.864  2.6563 -0.9970 -0.3812
 3516SOL    HW210944   4.174   3.753   4.825 -1.5305 -0.3720 -0.0652
 3517SOL     OW10945   6.166   5.911   1.965 -0.3200 -0.2460  0.3742
 3517SOL    HW110946   6.226   5.980   1.938 -1.0456 -0.1745 -1.1695
 3517SOL    HW210947   6.093   5.958   2.005 -0.9219 -0.0679 -0.8870
 3518SOL     OW10948   2.807   5.622   5.901  0.0703 -0.0215  0.0769
 3518SOL    HW110949   2.744   5.591   5.836 -1.1384  1.1249  0.6674
 3518SOL    HW210950   2.842   5.541   5.939 -2.2195 -0.7383  0.8320
 3519SOL     OW10951   0.474   6.670   2.760  0.2384  0.3319  0.3391
 3519SOL    HW110952   0.484   6.622   2.842 -0.3258  0.4489  0.4844
 3519SOL    HW210953   0.418   6.744   2.783 -1.4676 -0.6215 -0.5189
 3520SOL     OW10954   2.054   1.813   3.104  0.0797 -0.1279  0.2253
 3520SOL    HW110955   2.057   1.887   3.165 -2.3771  0.4681 -0.2650
 3520SOL    HW210956   2.025   1.739   3.157 -1.1429  0.1732  0.0036
 3521SOL     OW10957   4.631   1.283   6.737 -0.0781 -0.2822  0.3656
 3521SOL    HW110958   4.671   1.354   6.786 -0.9470 -0.5715  1.5399
 3521SOL    HW210959   4.686   1.274   6.659  0.9795  0.5967  0.9735
 3522SOL     OW10960   5.137   0.887   2.416  0.2741 -0.3027  0.1230
 3522SOL    HW110961   5.099   0.905   2.502  1.2084 -1.4499  0.8006
 3522SOL    HW210962   5.215   0.943   2.412  0.3837 -0.4516  0.1490
 3523SOL     OW10963   0.792   3.887   0.514  0.0963 -0.0931  0.7605
 3523SOL    HW110964   0.699   3.904   0.499  0.3942  0.5064 -0.4977
 3523SOL    HW210965   0.804   3.901   0.608 -1.2724 -1.1406  1.1268
 3524SOL     OW10966   3.713   3.014   6.000  0.0280  0.0905  0.5436
 3524SOL    HW110967   3.705   2.929   5.957 -3.1093  0.4876  0.1450
 3524SOL    HW210968   3.741   3.073   5.930 -2.4860  0.2280 -0.4531
 3525SOL     OW10969   5.520   3.025   4.667 -0.1970  0.5886  0.2724
 3525SOL    HW110970   5.532   2.930   4.671 -0.1611  0.5814  0.0096
 3525SOL    HW210971   5.608   3.061   4.683  0.1991  0.5369 -1.5889
 3526SOL     OW10972   1.938   2.159   0.485 -0.2790 -0.3676  0.0999
 3526SOL    HW110973   1.858   2.112   0.463  0.0863 -1.1408  0.4018
 3526SOL    HW210974   2.008   2.095   0.476  0.2631  0.1883  0.2502
 3527SOL     OW10975   6.821   2.816   5.448 -0.4354  0.8524  0.1963
 3527SOL    HW110976   6.819   2.768   5.366  3.8607  0.0509  0.2933
 3527SOL    HW210977   6.830   2.908   5.422 -0.1809  0.7076 -0.2421
 3528SOL     OW10978   4.080   3.055   1.432  0.5858  0.2511  0.3201
 3528SOL    HW110979   4.020   2.985   1.455 -1.2276  1.7179  0.3252
 3528SOL    HW210980   4.087   3.050   1.336  0.3502  0.1408  0.3069
 3529SOL     OW10981   1.855   6.423   6.344  0.0138 -0.0000 -0.3153
 3529SOL    HW110982   1.881   6.455   6.257 -0.4631 -0.0909 -0.4953
 3529SOL    HW210983   1.903   6.478   6.405 -0.2053  0.5558 -0.6326
 3530SOL     OW10984   3.950   4.614   3.251 -0.1317  0.3101  0.1510
 3530SOL    HW110985   3.967   4.538   3.196  0.3167 -1.5533  2.7035
 3530SOL    HW210986   4.033   4.662   3.253 -0.1718  0.4433 -0.7750
 3531SOL     OW10987   0.795   3.528   2.862 -0.1015 -0.2448 -0.2345
 3531SOL    HW110988   0.869   3.588   2.873 -0.6046  0.2107  0.7491
 3531SOL    HW210989   0.818   3.476   2.785  0.8070  0.5269 -0.5015
 3532SOL     OW10990   3.511   6.718   5.298  0.2005 -0.5831 -0.1553
 3532SOL    HW110991   3.582   6.695   5.238  1.0989 -0.2095  0.7386
 3532SOL    HW210992   3.540   6.686   5.383 -0.0893  0.7303  0.4732
 3533SOL     OW10993   5.213   2.500   2.757 -0.7187 -0.4250  0.6033
 3533SOL    HW110994   5.211   2.452   2.840 -0.1810  0.4475  1.1348
 3533SOL    HW210995   5.170   2.442   2.694  1.1876 -2.2699  0.8769
 3534SOL     OW10996   6.266   6.393   5.149  0.7163 -0.0451 -0.0831
 3534SOL    HW110997   6.293   6.303   5.168  1.1750  0.0097 -0.4388
 3534SOL    HW210998   6.348   6.440   5.139  0.5814  1.0839  2.9637
 3535SOL     OW10999   6.933   5.164   5.828  0.2279  0.0529 -0.3257
 3535SOL    HW111000   7.026   5.156   5.808  0.8645  2.4176  1.2632
 3535SOL    HW211001   6.894   5.198   5.747  1.2591  1.5509 -0.2310
 3536SOL     OW11002   1.685   5.124   3.530  0.6052 -0.2319 -0.0029
 3536SOL    HW111003   1.759   5.139   3.471  0.4947 -1.3953 -0.4437
 3536SOL    HW211004   1.617   5.183   3.498  2.4269  3.7498  2.6267
 3537SOL     OW11005   6.204   5.100   1.756 -0.0042 -0.0023  0.5209
 3537SOL    HW111006   6.234   5.012   1.734  1.3431  0.4489  0.4875
 3537SOL    HW211007   6.250   5.122   1.837 -0.7942  0.4460  0.8600
 3538SOL     OW11008   1.657   3.275   3.717  0.1588  0.1943  0.3604
 3538SOL    HW111009   1.609   3.248   3.795 -0.0505  1.4129  0.6748
 3538SOL    HW211010   1.593   3.324   3.665  0.1760 -0.9545 -0.7956
 3539SOL     OW11011   6.102   1.433   2.078  0.4346 -0.0425 -0.0007
 3539SOL    HW111012   6.067   1.357   2.125  0.2111 -0.9135 -1.4954
 3539SOL    HW211013   6.178   1.460   2.129 -0.7016  0.0709  1.7193
 3540SOL     OW11014   4.535   4.944   5.123  0.3123  0.7514  0.1825
 3540SOL    HW111015   4.584   4.983   5.050  0.1517  1.3853  0.4017
 3540SOL    HW211016   4.486   4.872   5.084 -0.5885  1.7377 -0.5526
 3541SOL     OW11017   1.144   6.850   6.578  0.1387 -0.7366  0.4031
 3541SOL    HW111018   1.070   6.791   6.564  0.6785 -1.1642 -0.8242
 3541SOL    HW211019   1.217   6.792   6.599  0.2469 -0.3573  1.0936
 3542SOL     OW11020   4.869   0.531   4.107  0.0803 -0.1961 -0.1337
 3542SOL    HW111021   4.801   0.556   4.170 -0.2860  0.3466 -0.7271
 3542SOL    HW211022   4.934   0.601   4.113 -0.1873  0.1060 -0.6900
 3543SOL     OW11023   3.291   4.430   4.219  0.2509  0.1952  0.2362
 3543SOL    HW111024   3.273   4.495   4.150  2.1381 -0.8062 -1.3072
 3543SOL    HW211025   3.221   4.365   4.209 -0.9708  1.3410  1.0181
 3544SOL     OW11026   3.632   1.875   5.614  0.7121  0.0635 -0.1667
 3544SOL    HW111027   3.681   1.889   5.695 -0.7983  1.4160  0.5610
 3544SOL    HW211028   3.583   1.794   5.629  0.4203  0.3239  0.2970
 3545SOL     OW11029   3.686   4.567   2.427 -0.3669  0.2416 -0.0404
 3545SOL    HW111030   3.674   4.475   2.405  0.3225 -0.2187  1.3645
 3545SOL    HW211031   3.634   4.579   2.507  0.1448  0.8820  0.2033
 3546SOL     OW11032   5.080   5.532   0.365  0.3092  0.2516  0.2272
 3546SOL    HW111033   5.091   5.460   0.302  0.3709  1.3676 -1.1049
 3546SOL    HW211034   5.153   5.591   0.346 -1.5760  2.3326 -1.0865
 3547SOL     OW11035   4.547   3.325   3.983 -0.0637  0.0674  0.0073
 3547SOL    HW111036   4.550   3.231   4.002 -1.6305 -0.0932 -0.3511
 3547SOL    HW211037   4.509   3.330   3.895  0.8592  1.0181 -0.3587
 3548SOL     OW11038   0.351   6.895   1.050 -0.2898  0.6776 -0.5306
 3548SOL    HW111039   0.274   6.939   1.086  0.2770  1.5930 -0.4057
 3548SOL    HW211040   0.349   6.917   0.956 -0.8382 -0.3113 -0.7658
 3549SOL     OW11041   4.763   0.884   0.398  0.3549  0.4380  0.2897
 3549SOL    HW111042   4.836   0.944   0.381  0.3192  0.3138 -0.3299
 3549SOL    HW211043   4.713   0.926   0.468  0.4062  1.0757 -0.0477
 3550SOL     OW11044   3.033   1.280   4.377  0.0157  0.4567 -0.2725
 3550SOL    HW111045   3.108   1.326   4.340 -0.0109  2.9062  2.4650
 3550SOL    HW211046   3.070   1.199   4.412  1.1113  0.9489 -0.2527
 3551SOL     OW11047   1.670   4.023   0.113  0.1511 -0.5218 -0.1782
 3551SOL    HW111048   1.582   3.990   0.130 -0.7928  0.7689 -2.1831
 3551SOL    HW211049   1.661   4.118   0.112  1.6951 -0.3484  0.1746
 3552SOL     OW11050   6.566   6.210   3.120  0.1360  0.1050 -0.0291
 3552SOL    HW111051   6.589   6.138   3.179  0.4739 -0.7515 -1.1668
 3552SOL    HW211052   6.471   6.211   3.121  0.1322 -0.0821  0.3161
 3553SOL     OW11053   0.142   3.711   0.967 -0.3471  0.2845 -0.0726
 3553SOL    HW111054   0.049   3.727   0.950 -0.6566 -0.3590  0.9399
 3553SOL    HW211055   0.171   3.787   1.017 -0.3291  0.4733 -0.3660
 3554SOL     OW11056   1.299   1.216   4.016 -0.0901 -0.0331 -0.0625
 3554SOL    HW111057   1.319   1.206   4.109  0.3617 -1.3584 -0.2851
 3554SOL    HW211058   1.213   1.176   4.005  0.3106 -0.8180 -0.3942
 3555SOL     OW11059   2.109   5.876   6.189  0.3703 -0.1850 -0.3899
 3555SOL    HW111060   2.109   5.863   6.284 -0.7908 -0.8357 -0.4568
 3555SOL    HW211061   2.022   5.847   6.162 -0.0614  1.9100 -1.3933
 3556SOL     OW11062   0.485   3.653   1.835  0.2641  0.6858 -0.2582
 3556SOL    HW111063   0.429   3.652   1.913 -0.7541  0.4203 -0.9808
 3556SOL    HW211064   0.433   3.698   1.768  0.6661 -0.0980 -1.1173
 3557SOL     OW11065   3.434   3.336   2.458  0.2082 -0.4169  0.6368
 3557SOL    HW111066   3.466   3.418   2.422 -0.6604  0.7359  2.3513
 3557SOL    HW211067   3.435   3.349   2.553  0.0779 -2.4044  0.9547
 3558SOL     OW11068   3.945   3.648   0.711 -0.1518  0.4050 -0.4890
 3558SOL    HW111069   3.857   3.624   0.682 -1.1296  2.2023  0.8163
 3558SOL    HW211070   3.948   3.623   0.803  1.0835 -0.4996 -0.7430
 3559SOL     OW11071   6.009   2.941   1.123 -0.5851 -0.1301 -0.5575
 3559SOL    HW111072   5.923   2.980   1.108 -2.0713 -3.4100 -1.5602
 3559SOL    HW211073   6.007   2.914   1.215 -0.6813 -0.3265 -0.6173
 3560SOL     OW11074   0.448   4.641   1.863 -0.3799  0.1317 -0.1494
 3560SOL    HW111075   0.524   4.685   1.902  0.0116 -0.0923 -0.6466
 3560SOL    HW211076   0.466   4.548   1.872  0.7376  0.0029 -2.6620
 3561SOL     OW11077   3.177   1.151   6.400 -0.2029 -0.0603 -0.1942
 3561SOL    HW111078   3.198   1.182   6.488  2.2097 -1.8947 -0.0428
 3561SOL    HW211079   3.230   1.206   6.342  1.0042 -1.2026 -0.2054
 3562SOL     OW11080   1.055   1.698   1.714 -0.1697 -0.3078  0.4026
 3562SOL    HW111081   1.098   1.762   1.771 -1.2424  1.4398 -0.6549
 3562SOL    HW211082   1.125   1.667   1.656  0.2146  0.4459  0.4532
 3563SOL     OW11083   4.552   2.949   2.103 -0.2814 -0.0838  0.3146
 3563SOL    HW111084   4.631   2.960   2.049 -0.7990 -0.5220 -0.5554
 3563SOL    HW211085   4.528   3.038   2.129  0.1498  0.1088  0.0656
 3564SOL     OW11086   3.227   0.020   2.602 -0.2180  0.0213 -0.3961
 3564SOL    HW111087   3.189   0.068   2.674  0.1904  1.0918 -0.8789
 3564SOL    HW211088   3.181   0.052   2.524  1.7432  1.5333 -1.0290
 3565SOL     OW11089   0.389   1.712   5.530 -0.3720  0.2642 -0.1686
 3565SOL    HW111090   0.337   1.773   5.583 -0.0300  0.6956 -0.3200
 3565SOL    HW211091   0.363   1.730   5.440 -0.0511  0.4000 -0.2369
 3566SOL     OW11092   4.515   5.356   0.923  0.1240  0.6144 -0.0825
 3566SOL    HW111093   4.524   5.273   0.875  0.7956 -1.0977  2.7616
 3566SOL    HW211094   4.595   5.404   0.901 -0.5873  0.8997 -2.3155
 3567SOL     OW11095   5.377   0.356   5.323 -0.0324 -0.1525 -0.1803
 3567SOL    HW111096   5.292   0.328   5.357 -0.2576 -1.3052 -1.5674
 3567SOL    HW211097   5.371   0.451   5.317 -1.0325 -0.1814  0.2246
 3568SOL     OW11098   2.151   3.804   4.762  0.5610  0.4100 -0.7754
 3568SOL    HW111099   2.189   3.852   4.836  0.8758 -1.7538  0.5786
 3568SOL    HW211100   2.057   3.806   4.777  0.5635  0.7299 -0.8051
 3569SOL     OW11101   1.428   5.890   5.385  0.1106 -0.5349  0.3361
 3569SOL    HW111102   1.509   5.919   5.343 -0.7779  0.2390 -0.9410
 3569SOL    HW211103   1.427   5.795   5.372  0.7852 -0.5455  0.3286
 3570SOL     OW11104   3.251   4.257   0.686  0.1331 -0.1059  0.1099
 3570SOL    HW111105   3.285   4.333   0.733  1.7912 -0.9430  0.3373
 3570SOL    HW211106   3.191   4.215   0.747  1.1202 -0.3435  0.9392
 3571SOL     OW11107   6.746   4.103   6.918 -0.3402  0.0418  0.1261
 3571SOL    HW111108   6.656   4.073   6.910  0.3191 -2.5794  1.3761
 3571SOL    HW211109   6.789   4.075   6.837 -0.3702  0.2314  0.0435
 3572SOL     OW11110   5.451   0.259   4.919 -0.2811  0.1641 -0.2066
 3572SOL    HW111111   5.481   0.205   4.992  1.1133 -0.3157 -1.0845
 3572SOL    HW211112   5.375   0.305   4.952 -1.6320 -2.4480  0.5572
 3573SOL     OW11113   2.227   0.180   3.747 -0.1521  0.2050 -0.1331
 3573SOL    HW111114   2.296   0.160   3.684  0.6005  1.3646  0.3084
 3573SOL    HW211115   2.202   0.094   3.782  2.1513 -0.1391  0.8421
 3574SOL     OW11116   5.585   0.870   5.948 -0.5863 -0.1282 -0.4096
 3574SOL    HW111117   5.668   0.916   5.961 -0.5267 -0.5399  0.7722
 3574SOL    HW211118   5.606   0.802   5.883 -0.6051  1.2603 -1.9261
 3575SOL     OW11119   1.487   0.860   1.361  0.3012 -0.3134  0.2834
 3575SOL    HW111120   1.499   0.945   1.404  1.7462  0.4446 -1.4814
 3575SOL    HW211121   1.429   0.879   1.287 -0.1363 -1.0685  0.4257
 3576SOL     OW11122   0.629   5.792   5.862  0.2614 -0.1416  0.2105
 3576SOL    HW111123   0.542   5.759   5.882  0.1853  0.9253  1.7653
 3576SOL    HW211124   0.689   5.732   5.906  0.3207 -0.6579 -0.5483
 3577SOL     OW11125   3.576   4.112   5.116  0.0338  0.1023 -0.0270
 3577SOL    HW111126   3.643   4.140   5.054  0.6702 -2.3067 -0.5582
 3577SOL    HW211127   3.614   4.036   5.160 -0.8474  1.0252  2.5658
 3578SOL     OW11128   2.234   2.604   3.345 -0.1798  0.4536 -0.0954
 3578SOL    HW111129   2.290   2.529   3.324 -1.1953 -0.1871 -0.5951
 3578SOL    HW211130   2.193   2.628   3.262 -0.1221  1.3637  0.1239
 3579SOL     OW11131   2.918   4.404   2.697  0.4207 -0.5587  0.0864
 3579SOL    HW111132   2.983   4.349   2.652 -0.0641 -1.6644  0.6824
 3579SOL    HW211133   2.970   4.464   2.750  1.0238  1.1132 -2.2545
 3580SOL     OW11134   3.618   3.205   6.181 -0.8432 -0.4021 -0.3750
 3580SOL    HW111135   3.662   3.147   6.119  1.2209  0.2758  0.3564
 3580SOL    HW211136   3.655   3.182   6.266  1.0300  2.6771 -0.1708
 3581SOL     OW11137   5.790   1.545   6.896 -0.1298 -0.9039  0.1767
 3581SOL    HW111138   5.732   1.618   6.880  2.7675  1.5603 -0.0036
 3581SOL    HW211139   5.795   1.498   6.813 -0.0021  0.2820 -0.4936
 3582SOL     OW11140   5.721   6.139   3.796  0.1878  0.0743 -0.1381
 3582SOL    HW111141   5.807   6.177   3.811 -0.5986  1.2737  1.5709
 3582SOL    HW211142   5.660   6.213   3.800 -1.1280 -1.0110  0.8144
 3583SOL     OW11143   5.980   6.306   1.972 -0.4400  0.3283  0.3800
 3583SOL    HW111144   5.918   6.378   1.967 -0.4772  0.3508  1.0097
 3583SOL    HW211145   6.059   6.339   1.930 -0.8704  0.2769 -0.4765
 3584SOL     OW11146   2.027   4.372   6.820  0.2797  0.1956 -0.3200
 3584SOL    HW111147   1.989   4.376   6.908 -0.0785  3.3244 -0.5131
 3584SOL    HW211148   1.952   4.354   6.763  0.3650 -0.9026 -0.1187
 3585SOL     OW11149   3.486   6.942   2.177  0.0610  0.1582  0.2834
 3585SOL    HW111150   3.430   7.020   2.170 -0.9485 -0.6571 -1.2227
 3585SOL    HW211151   3.453   6.883   2.109 -0.0017 -2.0839  2.1417
 3586SOL     OW11152   4.275   2.259   1.725 -0.3090 -0.1506 -0.1142
 3586SOL    HW111153   4.250   2.204   1.651 -0.3363 -1.7784  1.0445
 3586SOL    HW211154   4.192   2.291   1.760 -0.2672  1.2207 -1.1646
 3587SOL     OW11155   0.318   5.217   3.246 -0.2828  0.2288 -0.5638
 3587SOL    HW111156   0.407   5.202   3.276 -0.4314 -0.6422 -0.5373
 3587SOL    HW211157   0.324   5.215   3.151 -0.4329 -0.9245 -0.5678
 3588SOL     OW11158   0.355   0.827   5.211 -0.2794  0.7476  0.0558
 3588SOL    HW111159   0.426   0.839   5.148  1.3764 -0.3154  1.6093
 3588SOL    HW211160   0.397   0.837   5.297 -1.1112 -3.5898  1.1824
 3589SOL     OW11161   1.471   5.610   1.501 -0.2958 -0.2804 -0.3482
 3589SOL    HW111162   1.457   5.697   1.463 -0.8421  0.1986  0.8930
 3589SOL    HW211163   1.566   5.600   1.504 -0.0463  1.7594  2.6384
 3590SOL     OW11164   5.501   0.022   6.912  0.0221 -0.1371 -0.0668
 3590SOL    HW111165   5.430   0.014   6.975 -0.0570  0.1885 -0.1135
 3590SOL    HW211166   5.536   0.109   6.926  1.7136 -0.9930  1.3126
 3591SOL     OW11167   4.825   2.740   2.596  0.3406 -0.2974  0.2863
 3591SOL    HW111168   4.799   2.830   2.575  1.4656 -0.5370 -2.6056
 3591SOL    HW211169   4.912   2.749   2.635 -0.6757 -0.0305  2.6751
 3592SOL     OW11170   3.671   5.986   1.413 -0.5428 -0.0188 -0.3074
 3592SOL    HW111171   3.746   6.010   1.467 -1.0066  1.9286 -0.4455
 3592SOL    HW211172   3.684   5.893   1.393  1.1867 -0.0218  0.6553
 3593SOL     OW11173   0.246   1.633   3.022  0.3046  0.1488 -0.4874
 3593SOL    HW111174   0.234   1.571   2.950 -2.8952 -0.5390  0.4890
 3593SOL    HW211175   0.244   1.719   2.979 -0.1243 -0.2944 -1.3952
 3594SOL     OW11176   0.210   4.936   0.827  0.3498 -0.9035 -0.2869
 3594SOL    HW111177   0.194   4.956   0.919 -0.5245  0.2528 -0.6613
 3594SOL    HW211178   0.236   5.019   0.788  0.3077 -1.2881 -1.1706
 3595SOL     OW11179   3.337   4.733   3.540  0.0535  0.2511 -0.0167
 3595SOL    HW111180   3.376   4.660   3.493  0.5854  0.2640  0.3997
 3595SOL    HW211181   3.281   4.692   3.607 -0.0730  0.2280 -0.1369
 3596SOL     OW11182   3.441   6.382   6.913  0.3879  0.1516  0.4574
 3596SOL    HW111183   3.449   6.330   6.992  1.4857 -2.5038 -1.2821
 3596SOL    HW211184   3.509   6.449   6.921  1.7655 -1.2621  0.9501
 3597SOL     OW11185   4.584   5.105   0.832  0.0168  0.1508  0.2543
 3597SOL    HW111186   4.663   5.125   0.781  0.0683 -0.3590  0.1205
 3597SOL    HW211187   4.523   5.070   0.768 -0.1474  0.1028  0.4363
 3598SOL     OW11188   5.748   1.906   1.326  0.1713  0.5462  0.4281
 3598SOL    HW111189   5.770   1.816   1.301 -1.3377  0.0941  0.6492
 3598SOL    HW211190   5.679   1.931   1.266 -0.0226  1.2513  0.9379
 3599SOL     OW11191   3.648   0.458   3.318 -0.1179 -0.0516 -0.1650
 3599SOL    HW111192   3.617   0.391   3.378  0.2937 -0.2430 -0.1633
 3599SOL    HW211193   3.569   0.503   3.289 -0.5975 -1.6718 -1.5288
 3600SOL     OW11194   4.174   6.674   1.419 -0.1719  0.0185  0.0630
 3600SOL    HW111195   4.127   6.735   1.476 -0.3401 -0.0915  0.0424
 3600SOL    HW211196   4.213   6.729   1.351  0.4739  0.2164  0.5786
 3601SOL     OW11197   6.840   0.218   1.146  0.2285  0.2511 -0.1604
 3601SOL    HW111198   6.933   0.205   1.124  0.0879 -0.9099 -0.1255
 3601SOL    HW211199   6.842   0.260   1.232  0.7382 -1.0315  0.4923
 3602SOL     OW11200   1.911   3.785   5.734  0.2417 -0.0047  0.1652
 3602SOL    HW111201   1.872   3.849   5.675  1.6163  2.0920  1.4239
 3602SOL    HW211202   2.001   3.814   5.746  0.7775 -1.8884  1.2289
 3603SOL     OW11203   5.029   0.046   2.509 -0.4061  0.0310  0.0990
 3603SOL    HW111204   5.005   0.089   2.591 -0.6115 -0.2301  0.1779
 3603SOL    HW211205   5.032  -0.047   2.531  2.1572  0.1133  0.4844
 3604SOL     OW11206   2.037   6.790   4.109  0.2236  0.5680 -0.0440
 3604SOL    HW111207   1.948   6.821   4.127 -0.8383 -1.6049 -1.0751
 3604SOL    HW211208   2.059   6.830   4.025  0.4322  1.4563  0.4184
 3605SOL     OW11209   3.633   0.914   4.191 -0.0422  0.2592 -0.0138
 3605SOL    HW111210   3.700   0.948   4.250 -0.8159  3.4131 -0.7460
 3605SOL    HW211211   3.558   0.896   4.247  0.1146  0.6018  0.3133
 3606SOL     OW11212   2.034   0.339   4.235 -0.7108 -0.5868 -0.0933
 3606SOL    HW111213   2.121   0.346   4.275 -0.4774 -0.7227 -0.5683
 3606SOL    HW211214   2.028   0.415   4.177 -1.6419  0.4525  1.2948
 3607SOL     OW11215   6.902   5.186   0.083 -0.1424  0.3911 -0.0782
 3607SOL    HW111216   6.995   5.169   0.096 -0.5199 -1.1344  0.9264
 3607SOL    HW211217   6.892   5.280   0.095  1.1763  0.4903  0.3614
 3608SOL     OW11218   4.146   1.264   3.580 -0.6902 -0.2861 -0.3337
 3608SOL    HW111219   4.158   1.174   3.548  0.2758  0.0763 -1.0692
 3608SOL    HW211220   4.230   1.286   3.620 -1.4433 -0.2451  1.2638
 3609SOL     OW11221   3.757   2.758   2.458 -0.6727 -0.7688 -0.3971
 3609SOL    HW111222   3.710   2.729   2.380  1.0858 -1.2983 -1.3347
 3609SOL    HW211223   3.847   2.727   2.444 -0.0302  0.2226  1.2604
 3610SOL     OW11224   6.671   4.685   2.078 -0.2798 -0.2399  0.1571
 3610SOL    HW111225   6.721   4.628   2.137 -1.6758 -1.5927  0.1162
 3610SOL    HW211226   6.585   4.692   2.120 -0.8556 -0.0690 -1.0114
 3611SOL     OW11227   3.930   4.606   5.670  0.1572  0.1718  0.1049
 3611SOL    HW111228   3.847   4.594   5.625  1.1024 -2.2074 -1.1971
 3611SOL    HW211229   3.931   4.699   5.694 -2.3405  0.5213 -0.8227
 3612SOL     OW11230   0.380   1.492   3.224  0.1411  0.2081  0.2657
 3612SOL    HW111231   0.344   1.541   3.150 -1.0235 -1.3808 -0.2622
 3612SOL    HW211232   0.303   1.462   3.272  0.8506 -0.4956  0.9800
 3613SOL     OW11233   5.883   0.187   0.560 -0.1313 -0.0359  0.1578
 3613SOL    HW111234   5.908   0.275   0.589 -0.7761  0.5183 -0.9333
 3613SOL    HW211235   5.862   0.140   0.641  1.5769  0.3646  0.8717
 3614SOL     OW11236   6.345   3.725   2.490  0.2327  0.6604  0.2888
 3614SOL    HW111237   6.327   3.640   2.530  1.2027  0.2905 -0.0342
 3614SOL    HW211238   6.276   3.736   2.425  0.3272 -0.0760  0.0536
 3615SOL     OW11239   3.374   2.914   5.057  0.3226 -0.0872 -0.2473
 3615SOL    HW111240   3.420   2.998   5.052 -1.7297  1.0376 -1.5945
 3615SOL    HW211241   3.371   2.884   4.966 -0.0670 -0.9928  0.0609
 3616SOL     OW11242   3.003   4.574   2.441  0.1985  0.1132 -0.2559
 3616SOL    HW111243   2.979   4.572   2.533  1.7424  0.3301  0.1825
 3616SOL    HW211244   3.097   4.555   2.440  0.0622 -0.6338 -1.8479
 3617SOL     OW11245   2.184   4.393   3.327 -0.8463  0.1704 -0.4016
 3617SOL    HW111246   2.205   4.416   3.418 -0.6875  2.9706 -1.0454
 3617SOL    HW211247   2.268   4.370   3.288 -0.2769  2.4154 -0.6554
 3618SOL     OW11248   2.557   3.590   1.892  0.0441  0.7237 -0.0198
 3618SOL    HW111249   2.646   3.572   1.861 -0.4216  2.6184 -2.7998
 3618SOL    HW211250   2.520   3.503   1.910  2.7017 -0.0661  2.3167
 3619SOL     OW11251   5.607   5.952   3.953  0.1856  0.3323 -0.2761
 3619SOL    HW111252   5.648   6.005   3.885  2.6849 -0.5727  0.4220
 3619SOL    HW211253   5.625   5.999   4.034  2.5159 -1.5257  0.3617
 3620SOL     OW11254   0.007   0.335   5.066  0.2320 -0.4645 -0.4826
 3620SOL    HW111255   0.050   0.415   5.037 -0.9629  0.7263  0.8791
 3620SOL    HW211256  -0.070   0.326   5.009  1.5463 -1.9456 -2.1340
 3621SOL     OW11257   4.159   0.307   6.039 -0.2579  0.0463  0.2554
 3621SOL    HW111258   4.251   0.323   6.015 -0.1526 -1.9363 -0.8381
 3621SOL    HW211259   4.124   0.395   6.057  2.1311  0.7619  1.9344
 3622SOL     OW11260   5.409   0.300   1.037  0.1669  0.2271  0.3686
 3622SOL    HW111261   5.399   0.320   1.131 -0.7432 -1.4996  0.6734
 3622SOL    HW211262   5.401   0.385   0.994 -1.3469  0.8459  1.7382
 3623SOL     OW11263   6.033   2.887   5.278  0.7155  0.5595  0.6758
 3623SOL    HW111264   5.996   2.803   5.303 -1.8972  1.1263 -0.8857
 3623SOL    HW211265   6.107   2.866   5.221  1.6730 -0.6239  2.2872
 3624SOL     OW11266   0.390   3.622   4.051 -0.3471  0.3425 -0.6780
 3624SOL    HW111267   0.323   3.667   4.104  0.7103  0.1514  0.8881
 3624SOL    HW211268   0.469   3.675   4.063 -0.0241  0.1647 -1.9184
 3625SOL     OW11269   3.758   2.087   2.729 -0.1410 -0.6915  0.1923
 3625SOL    HW111270   3.829   2.122   2.675 -0.6454 -0.1736 -0.1650
 3625SOL    HW211271   3.789   2.002   2.758  0.6595 -0.4364  0.1225
 3626SOL     OW11272   4.043   2.155   0.141  0.0360  0.6263  0.2375
 3626SOL    HW111273   4.011   2.191   0.058 -1.3211 -1.3375 -0.1494
 3626SOL    HW211274   4.136   2.141   0.127  0.4218  2.9218  0.0680
 3627SOL     OW11275   4.598   3.795   6.678  0.6164  0.1650 -0.0800
 3627SOL    HW111276   4.548   3.714   6.681 -0.6250  0.9286  0.9631
 3627SOL    HW211277   4.689   3.768   6.689  0.0605 -0.9800  2.2216
 3628SOL     OW11278   3.103   6.430   6.641  0.2407  0.3620 -0.3069
 3628SOL    HW111279   3.095   6.525   6.642 -1.9737  0.2313  0.0922
 3628SOL    HW211280   3.152   6.409   6.720 -0.9549  1.0986  0.6682
 3629SOL     OW11281   6.707   0.322   4.558 -0.3449 -0.3340 -0.3604
 3629SOL    HW111282   6.754   0.239   4.564  1.2379  0.6145  1.6090
 3629SOL    HW211283   6.615   0.297   4.559  0.0553 -2.1555 -2.3139
 3630SOL     OW11284   4.549   3.511   0.173 -0.4196  0.2687  0.5774
 3630SOL    HW111285   4.572   3.486   0.263 -0.3836 -0.5150  0.3547
 3630SOL    HW211286   4.558   3.606   0.172 -0.6937  0.3091  1.4808
 3631SOL     OW11287   6.332   2.205   2.654 -0.8392 -0.2243  0.0732
 3631SOL    HW111288   6.351   2.227   2.563 -1.7066  0.5662  0.0643
 3631SOL    HW211289   6.358   2.114   2.663  1.4415  0.3325 -0.3258
 3632SOL     OW11290   1.864   2.955   5.529  0.0719 -0.1685 -0.7430
 3632SOL    HW111291   1.770   2.941   5.541  0.3965 -2.0538 -0.0067
 3632SOL    HW211292   1.901   2.944   5.617  1.1712 -1.5652 -1.3343
 3633SOL     OW11293   5.404   4.099   5.236 -0.1457  0.7029  0.0106
 3633SOL    HW111294   5.407   4.057   5.323 -0.2394  0.2286 -0.2114
 3633SOL    HW211295   5.313   4.089   5.209  0.0415  0.2054 -0.4515
 3634SOL     OW11296   0.885   4.561   2.899 -0.5878 -0.1895  0.2394
 3634SOL    HW111297   0.929   4.490   2.946  1.1717  0.6479 -0.0943
 3634SOL    HW211298   0.913   4.641   2.944  0.6824  0.5916 -1.8087
 3635SOL     OW11299   1.430   1.265   6.246 -0.1628 -0.6499  0.0530
 3635SOL    HW111300   1.487   1.223   6.182  0.9636  1.1092 -0.1767
 3635SOL    HW211301   1.484   1.270   6.326 -1.6349 -3.0729  1.3231
 3636SOL     OW11302   5.164   0.477   0.353 -0.0436 -0.5837 -0.0105
 3636SOL    HW111303   5.087   0.535   0.348 -1.2139 -2.1657 -1.7684
 3636SOL    HW211304   5.142   0.414   0.421  0.1777 -0.4038  0.2295
 3637SOL     OW11305   0.750   4.926   3.265  0.3106 -0.1379 -0.2167
 3637SOL    HW111306   0.833   4.939   3.218 -0.3318 -0.1709 -1.4008
 3637SOL    HW211307   0.775   4.926   3.357  1.5365  0.6113 -0.5134
 3638SOL     OW11308   0.931   6.138   5.131  0.2111  0.4628  0.2865
 3638SOL    HW111309   0.987   6.131   5.208 -0.0533 -0.0469  0.4396
 3638SOL    HW211310   0.971   6.207   5.077  1.2082 -0.1724  0.1960
 3639SOL     OW11311   2.677   5.842   2.976  0.3998 -0.4290  0.3425
 3639SOL    HW111312   2.730   5.899   2.921  1.4779 -1.1542  0.6177
 3639SOL    HW211313   2.589   5.846   2.937  0.3757  1.5784  0.4851
 3640SOL     OW11314   3.870   0.408   1.615 -0.1550  0.4310  0.1927
 3640SOL    HW111315   3.960   0.440   1.619  0.2352 -0.5176 -0.6516
 3640SOL    HW211316   3.837   0.440   1.531 -0.4778  0.4434  0.3222
 3641SOL     OW11317   0.858   2.219   2.210  0.7519 -0.0507  0.0085
 3641SOL    HW111318   0.852   2.124   2.206 -2.0986 -0.0290  1.1643
 3641SOL    HW211319   0.910   2.244   2.133  0.7057 -2.4556 -0.8685
 3642SOL     OW11320   4.792   1.710   0.850  0.1163  0.1072  0.1544
 3642SOL    HW111321   4.698   1.713   0.831 -0.0639 -2.0996  0.4887
 3642SOL    HW211322   4.828   1.650   0.785  0.8857 -0.8441  1.4117
 3643SOL     OW11323   2.613   5.266   0.755 -0.4579  0.3407  0.0139
 3643SOL    HW111324   2.704   5.279   0.728 -0.1753  0.2839  0.9002
 3643SOL    HW211325   2.596   5.338   0.816 -0.5708 -0.4040  0.8920
 3644SOL     OW11326   0.051   2.307   2.039 -0.3255 -0.0496  0.4244
 3644SOL    HW111327   0.102   2.370   2.090 -0.0215  0.0870 -0.0452
 3644SOL    HW211328   0.011   2.359   1.969  0.6903 -0.5241 -0.5380
 3645SOL     OW11329   5.710   6.285   1.753 -0.3108 -0.1869  0.0425
 3645SOL    HW111330   5.719   6.376   1.781 -0.3064  0.2618 -1.3197
 3645SOL    HW211331   5.789   6.268   1.701 -1.9929  0.3262 -2.9634
 3646SOL     OW11332   6.445   4.678   2.225 -0.0326  0.0120 -0.3247
 3646SOL    HW111333   6.357   4.675   2.264  0.3251 -0.6089  0.4642
 3646SOL    HW211334   6.504   4.687   2.300  0.5217  1.6765 -0.9267
 3647SOL     OW11335   4.795   0.823   3.725  0.4812 -0.4218  0.5242
 3647SOL    HW111336   4.707   0.798   3.697  0.8179 -1.1015  0.0492
 3647SOL    HW211337   4.824   0.886   3.659  1.1665 -1.8142 -0.5620
 3648SOL     OW11338   6.777   0.311   3.922 -0.4915  0.4599  0.0906
 3648SOL    HW111339   6.862   0.315   3.966  0.8386 -0.8591 -2.2004
 3648SOL    HW211340   6.737   0.231   3.955 -1.2985  1.4943  1.7937
 3649SOL     OW11341   5.011   5.650   6.681  0.2108 -0.1375 -0.1335
 3649SOL    HW111342   4.943   5.593   6.645 -1.2894  2.4838 -1.7611
 3649SOL    HW211343   5.092   5.619   6.641 -0.5256 -1.2249 -0.8147
 3650SOL     OW11344   5.733   6.208   5.518  0.7067  1.0252 -0.3308
 3650SOL    HW111345   5.802   6.270   5.542  2.2406 -1.4764  2.4872
 3650SOL    HW211346   5.777   6.143   5.464 -0.0441  0.6961 -0.5600
 3651SOL     OW11347   5.251   5.897   4.686  0.3358  0.0111 -0.3350
 3651SOL    HW111348   5.192   5.827   4.657  0.1147 -0.6471  1.5839
 3651SOL    HW211349   5.332   5.881   4.637 -0.8523  0.6359 -2.6402
 3652SOL     OW11350   3.258   0.392   5.514  0.0139 -0.1392 -0.3312
 3652SOL    HW111351   3.319   0.333   5.468 -1.0581 -1.8756  0.3568
 3652SOL    HW211352   3.172   0.368   5.480 -0.8850 -1.7988  2.7554
 3653SOL     OW11353   1.297   2.805   1.891  0.0350 -0.3122  0.1766
 3653SOL    HW111354   1.236   2.863   1.937 -0.5644  0.1263 -1.1194
 3653SOL    HW211355   1.379   2.812   1.940 -0.9840 -1.0703  2.0687
 3654SOL     OW11356   5.897   0.697   6.707  0.0535  0.3395  1.0401
 3654SOL    HW111357   5.953   0.629   6.745  0.1307 -0.5672 -0.5961
 3654SOL    HW211358   5.850   0.652   6.637  0.2838  2.0227 -0.2572
 3655SOL     OW11359   0.957   1.730   3.071  0.0410  0.1387 -0.4806
 3655SOL    HW111360   0.990   1.811   3.110  0.2094  1.0154 -2.3671
 3655SOL    HW211361   0.962   1.744   2.977 -0.2190 -1.9612 -0.8620
 3656SOL     OW11362   4.528   4.217   4.468 -0.3852 -0.4288  0.4077
 3656SOL    HW111363   4.455   4.210   4.407 -1.6071 -1.1795  1.8749
 3656SOL    HW211364   4.507   4.154   4.537  1.8122 -0.8750  0.7364
 3657SOL     OW11365   1.673   5.388   6.910  0.4565  0.3791  0.1608
 3657SOL    HW111366   1.661   5.483   6.903 -1.4564  0.1198 -0.4601
 3657SOL    HW211367   1.670   5.357   6.820 -2.5549 -0.6244  0.5164
 3658SOL     OW11368   6.222   5.203   4.417 -0.9923  0.1746  0.1923
 3658SOL    HW111369   6.299   5.254   4.393 -1.0675  0.4616  0.5477
 3658SOL    HW211370   6.213   5.216   4.512 -0.7638 -0.8456  0.3735
 3659SOL     OW11371   6.811   0.041   3.950  0.1534 -0.3447  0.2582
 3659SOL    HW111372   6.902   0.022   3.975  0.4125  0.2234 -0.2147
 3659SOL    HW211373   6.785  -0.034   3.897  0.2915 -0.5934  0.5399
 3660SOL     OW11374   1.979   6.139   1.610  0.3261 -0.6937 -0.2713
 3660SOL    HW111375   1.898   6.113   1.566 -0.2095 -0.3205  0.4760
 3660SOL    HW211376   2.037   6.064   1.600 -0.4681 -1.3667  0.0658
 3661SOL     OW11377   4.905   0.224   5.881 -0.3104 -0.3978  0.1369
 3661SOL    HW111378   4.937   0.135   5.893  0.2076 -0.2195  0.1376
 3661SOL    HW211379   4.944   0.252   5.798 -0.6137 -0.2367  0.0492
 3662SOL     OW11380   3.981   6.728   5.814 -0.5340  0.1906  0.0603
 3662SOL    HW111381   4.000   6.779   5.893  0.2329  1.3053 -0.8199
 3662SOL    HW211382   4.037   6.651   5.822  2.2690  1.9652 -1.0128
 3663SOL     OW11383   2.764   0.384   4.430  0.1554  0.3008 -0.1160
 3663SOL    HW111384   2.713   0.459   4.461 -0.2779  0.1983 -0.5746
 3663SOL    HW211385   2.742   0.376   4.337 -1.7805 -1.9225  0.4174
 3664SOL     OW11386   3.225   1.045   0.550  0.5934  0.0487  0.0849
 3664SOL    HW111387   3.316   1.024   0.572  0.8598 -0.0723 -1.0694
 3664SOL    HW211388   3.229   1.129   0.504  0.1673 -0.1320 -0.2964
 3665SOL     OW11389   5.900   4.857   2.868 -0.4333  0.3313 -0.2455
 3665SOL    HW111390   5.859   4.772   2.853 -1.3229  0.9107 -1.2499
 3665SOL    HW211391   5.959   4.842   2.942 -1.9258 -0.7165  0.7936
 3666SOL     OW11392   6.350   5.084   1.119  0.6055  0.6201 -0.6271
 3666SOL    HW111393   6.355   5.179   1.128 -0.5705  0.6078  0.4877
 3666SOL    HW211394   6.265   5.069   1.079  0.9807  0.0513 -1.2144
 3667SOL     OW11395   0.693   6.124   3.444  0.3346  0.5013 -0.4889
 3667SOL    HW111396   0.764   6.169   3.490 -0.3903  0.8751  0.2923
 3667SOL    HW211397   0.629   6.193   3.425 -0.1870  0.0392 -0.4538
 3668SOL     OW11398   0.570   0.292   5.083 -0.0076  0.0669  0.1286
 3668SOL    HW111399   0.663   0.271   5.080 -0.3019 -1.5654  1.2612
 3668SOL    HW211400   0.562   0.372   5.031  1.9638  0.0643 -0.2555
 3669SOL     OW11401   5.648   2.551   3.012  0.1513 -0.3473 -0.3064
 3669SOL    HW111402   5.698   2.481   3.054  1.2544  0.1748 -0.7310
 3669SOL    HW211403   5.624   2.609   3.084  0.4628 -0.4135 -0.1475
 3670SOL     OW11404   5.381   1.028   2.362  0.5167  0.2925  0.3024
 3670SOL    HW111405   5.374   1.009   2.268  0.4539 -1.2007  0.5721
 3670SOL    HW211406   5.344   1.115   2.373 -0.7978 -0.0921 -0.8689
 3671SOL     OW11407   5.895   2.796   6.481  0.3215  0.3093  0.0246
 3671SOL    HW111408   5.859   2.732   6.420 -1.2299  1.3380 -0.1813
 3671SOL    HW211409   5.989   2.778   6.480  0.3547  0.1824 -2.5777
 3672SOL     OW11410   3.437   6.591   6.497  0.2033 -0.1165  0.1413
 3672SOL    HW111411   3.429   6.544   6.414 -0.5056 -0.2426  0.2764
 3672SOL    HW211412   3.372   6.660   6.493  1.6173  1.2494 -0.2837
 3673SOL     OW11413   6.420   1.952   5.760 -0.0848 -0.8087 -0.4722
 3673SOL    HW111414   6.398   1.939   5.852  0.0956 -0.4761 -0.3787
 3673SOL    HW211415   6.461   1.870   5.733  4.3139  0.6127  1.0547
 3674SOL     OW11416   5.714   3.299   4.446  0.4951  0.8024 -0.0327
 3674SOL    HW111417   5.706   3.263   4.534  0.2617  0.6378 -0.1212
 3674SOL    HW211418   5.708   3.223   4.388  1.7043  0.7754 -0.1508
 3675SOL     OW11419   5.868   1.556   4.780  0.0950  0.1222  0.0563
 3675SOL    HW111420   5.835   1.631   4.829  1.9547  0.5828  0.6774
 3675SOL    HW211421   5.848   1.481   4.836 -1.2762  0.1834 -0.3159
 3676SOL     OW11422   3.654   4.256   3.299  0.6163 -0.0586 -0.4491
 3676SOL    HW111423   3.633   4.180   3.245 -0.4347  0.0424 -0.1937
 3676SOL    HW211424   3.574   4.308   3.300  0.5499 -0.1414  1.3447
 3677SOL     OW11425   2.585   5.718   0.243  0.8293  0.6535  0.1444
 3677SOL    HW111426   2.568   5.657   0.172 -0.7407  1.8424 -0.5700
 3677SOL    HW211427   2.669   5.690   0.280  0.8502 -1.0156 -1.0665
 3678SOL     OW11428   2.828   3.680   4.927 -0.0602  0.7046  0.5643
 3678SOL    HW111429   2.740   3.645   4.920  0.9132 -1.8784  0.1270
 3678SOL    HW211430   2.850   3.709   4.838 -0.6272  1.8795  0.7891
 3679SOL     OW11431   1.348   0.718   1.602  0.2941  0.0059  0.3124
 3679SOL    HW111432   1.271   0.675   1.565  1.2195 -2.4536  0.9971
 3679SOL    HW211433   1.410   0.723   1.529  0.2819 -0.1269  0.2918
 3680SOL     OW11434   3.963   0.304   4.645  0.0550 -0.2480 -0.0757
 3680SOL    HW111435   3.960   0.345   4.732 -0.7322 -0.2688 -0.0896
 3680SOL    HW211436   3.996   0.216   4.661 -4.4794 -2.0349  0.9399
 3681SOL     OW11437   5.041   6.241   0.725 -0.1286 -0.4808  0.5706
 3681SOL    HW111438   5.075   6.278   0.644 -2.0975 -0.6582 -0.3934
 3681SOL    HW211439   4.988   6.311   0.763 -0.6410 -0.9656  0.7746
 3682SOL     OW11440   0.029   3.583   6.254 -0.7496 -0.0868  0.0034
 3682SOL    HW111441   0.014   3.604   6.346  0.5027 -0.6112  0.3465
 3682SOL    HW211442   0.027   3.668   6.210 -2.4922  0.0777  0.3049
 3683SOL     OW11443   1.288   3.416   1.301  0.4815 -0.1530 -0.5701
 3683SOL    HW111444   1.263   3.397   1.211 -0.3090  0.7340 -0.5650
 3683SOL    HW211445   1.383   3.417   1.301  0.4955 -1.0478 -1.1896
 3684SOL     OW11446   0.375   4.833   3.668 -0.3170 -0.0674  0.0473
 3684SOL    HW111447   0.428   4.767   3.713 -0.1333  0.1391  0.1363
 3684SOL    HW211448   0.438   4.902   3.645 -0.7280  0.6594  1.0616
 3685SOL     OW11449   5.439   4.726   1.916  0.2727 -0.5112  1.0001
 3685SOL    HW111450   5.530   4.699   1.922  0.4277 -0.1587  0.3057
 3685SOL    HW211451   5.411   4.735   2.008  0.1210 -3.1921  1.2997
 3686SOL     OW11452   5.107   0.791   5.756  0.6555 -0.7611 -0.2374
 3686SOL    HW111453   5.053   0.749   5.689 -0.9962 -0.8810  1.0929
 3686SOL    HW211454   5.193   0.752   5.745  0.0838 -1.7538 -1.4346
 3687SOL     OW11455   4.397   5.956   2.729  0.2212  0.0424  0.2218
 3687SOL    HW111456   4.346   6.005   2.665  0.4958 -1.8347 -1.5355
 3687SOL    HW211457   4.351   5.969   2.812 -2.2923 -0.3718 -1.0237
 3688SOL     OW11458   4.242   2.749   4.786 -0.1610 -0.1380 -0.6471
 3688SOL    HW111459   4.296   2.672   4.803 -2.4116 -1.9021 -1.0237
 3688SOL    HW211460   4.247   2.800   4.868  1.1676 -0.7613 -0.3062
 3689SOL     OW11461   2.956   5.833   4.558 -0.4865 -0.6100 -0.3388
 3689SOL    HW111462   2.985   5.764   4.617 -1.3169 -1.1277 -0.5165
 3689SOL    HW211463   3.028   5.844   4.496 -0.0811 -0.8583  0.0849
 3690SOL     OW11464   1.714   4.022   6.798 -0.0509 -0.0761 -0.2375
 3690SOL    HW111465   1.707   4.017   6.893 -0.2962 -0.0617 -0.2546
 3690SOL    HW211466   1.634   3.982   6.765  0.2050 -0.4319 -0.4475
 3691SOL     OW11467   5.939   4.223   6.379  0.3534 -0.2189  0.1222
 3691SOL    HW111468   5.915   4.136   6.347  3.7129 -0.8853 -1.0250
 3691SOL    HW211469   6.001   4.205   6.450  1.1195  1.2051 -0.1603
 3692SOL     OW11470   6.643   0.302   5.546  0.0292  0.0435  0.2743
 3692SOL    HW111471   6.659   0.342   5.460 -1.1494  1.6469  0.7468
 3692SOL    HW211472   6.558   0.337   5.573  0.8488  0.4456  2.5623
 3693SOL     OW11473   3.923   1.214   6.214  0.8232  0.3287 -0.4067
 3693SOL    HW111474   3.936   1.119   6.219 -0.7855  0.1173  0.7907
 3693SOL    HW211475   3.921   1.233   6.121  0.0405 -1.0267 -0.7006
 3694SOL     OW11476   0.878   1.988   4.120  0.4283  0.6915 -0.8784
 3694SOL    HW111477   0.934   2.020   4.191 -0.4437  0.5430 -0.0965
 3694SOL    HW211478   0.900   1.895   4.112 -0.9170  0.1976  0.6482
 3695SOL     OW11479   2.276   2.329   3.062  0.0466 -0.0208 -0.2795
 3695SOL    HW111480   2.192   2.366   3.090 -0.8659 -2.0943 -0.1020
 3695SOL    HW211481   2.339   2.361   3.127 -1.1608 -0.7983  1.3464
 3696SOL     OW11482   0.013   4.142   4.823  0.1200 -0.0816  0.2753
 3696SOL    HW111483  -0.053   4.187   4.876 -2.0295 -1.4742 -1.1219
 3696SOL    HW211484   0.002   4.049   4.844 -0.2262 -0.5861 -1.9503
 3697SOL     OW11485   4.680   6.780   1.242  0.0810 -0.2449  1.0487
 3697SOL    HW111486   4.699   6.868   1.209  1.6599 -0.5672  1.0134
 3697SOL    HW211487   4.676   6.790   1.337  3.0195 -0.5208  1.3042
 3698SOL     OW11488   1.786   2.484   0.070 -0.6631 -0.1703 -0.6144
 3698SOL    HW111489   1.811   2.488   0.162 -0.6543  2.3576 -0.6806
 3698SOL    HW211490   1.690   2.482   0.071 -0.6800  0.5206 -0.5494
 3699SOL     OW11491   6.055   6.151   4.624  0.0651  0.0948  0.7340
 3699SOL    HW111492   6.091   6.079   4.675 -1.2796 -0.5357  0.8357
 3699SOL    HW211493   5.964   6.125   4.606 -0.9709  2.4584  2.1197
 3700SOL     OW11494   2.732   3.118   0.247  0.9646 -0.2003  1.3958
 3700SOL    HW111495   2.827   3.110   0.238  0.9172  0.7179 -0.4211
 3700SOL    HW211496   2.696   3.050   0.191  0.6034  1.4339 -0.4804
 3701SOL     OW11497   0.763   4.379   4.250 -0.8277 -0.3080 -0.0747
 3701SOL    HW111498   0.724   4.292   4.242  1.6816 -1.3492 -2.6484
 3701SOL    HW211499   0.809   4.377   4.334 -2.3226 -0.7169  0.7748
 3702SOL     OW11500   6.641   1.054   3.647  0.0209 -0.2435 -0.0127
 3702SOL    HW111501   6.724   1.012   3.669 -0.0903 -0.1245  0.6763
 3702SOL    HW211502   6.624   1.112   3.721  0.5285  1.5670 -1.2610
 3703SOL     OW11503   0.390   6.188   0.808  0.2994 -0.3420  0.6223
 3703SOL    HW111504   0.369   6.101   0.774  0.5615 -0.2378  0.1881
 3703SOL    HW211505   0.486   6.191   0.808  0.3162 -0.4161  1.5694
 3704SOL     OW11506   3.643   5.100   5.863  0.3333 -0.6118 -0.5413
 3704SOL    HW111507   3.577   5.067   5.923 -0.2574  0.3708 -0.6241
 3704SOL    HW211508   3.708   5.142   5.919  0.2852 -0.5586 -0.5253
 3705SOL     OW11509   5.398   6.578   4.561 -0.3555 -0.8482  0.0181
 3705SOL    HW111510   5.367   6.499   4.605 -1.4639 -0.3964  0.0773
 3705SOL    HW211511   5.493   6.578   4.576 -0.6901 -0.5904  2.6220
 3706SOL     OW11512   5.401   6.168   1.371 -0.3380  0.0203  0.0394
 3706SOL    HW111513   5.436   6.079   1.380  0.1890 -0.0651 -2.3251
 3706SOL    HW211514   5.478   6.224   1.361 -0.7044  0.1726 -2.5059
 3707SOL     OW11515   0.662   3.876   4.728 -0.1867 -0.8087  0.4809
 3707SOL    HW111516   0.754   3.864   4.752 -0.4176 -1.5519  1.0609
 3707SOL    HW211517   0.663   3.937   4.655  0.8568 -1.7755 -0.3397
 3708SOL     OW11518   6.221   2.020   2.375 -0.3497  0.0477  0.1435
 3708SOL    HW111519   6.273   1.995   2.451 -0.9787  0.0014  0.5676
 3708SOL    HW211520   6.133   2.035   2.410 -0.7122 -0.2475 -0.6171
 3709SOL     OW11521   1.450   4.252   0.817 -0.0652 -0.5492 -0.5794
 3709SOL    HW111522   1.396   4.329   0.800  1.9596  0.7392 -1.5917
 3709SOL    HW211523   1.527   4.285   0.863 -0.6893 -2.5378  2.1395
 3710SOL     OW11524   1.201   0.952   0.221  0.0552  0.1205  0.4249
 3710SOL    HW111525   1.245   0.971   0.139 -0.1918  0.6530  0.4069
 3710SOL    HW211526   1.268   0.912   0.276 -0.1820 -1.6998 -0.5662
 3711SOL     OW11527   1.519   5.064   6.424 -0.3614 -0.0998  0.1565
 3711SOL    HW111528   1.435   5.018   6.432 -0.0474 -0.6892  0.1419
 3711SOL    HW211529   1.573   5.027   6.495  0.1437 -0.3085 -0.3263
 3712SOL     OW11530   5.304   2.798   5.145  0.0910  0.0365  0.1066
 3712SOL    HW111531   5.298   2.874   5.202 -3.5951 -0.2145  0.3249
 3712SOL    HW211532   5.350   2.829   5.067 -0.1395  2.1031  0.7405
 3713SOL     OW11533   1.981   5.366   3.043  0.3645  0.3663 -0.0736
 3713SOL    HW111534   2.032   5.446   3.037 -1.1154  1.5650  1.9936
 3713SOL    HW211535   2.029   5.312   3.106 -0.5443  1.2956  1.4983
 3714SOL     OW11536   4.563   2.139   0.808  0.0582 -0.7043 -0.1610
 3714SOL    HW111537   4.629   2.071   0.793  0.3772 -0.4614  0.1095
 3714SOL    HW211538   4.535   2.125   0.899  1.1476  0.3886  0.3660
 3715SOL     OW11539   5.422   4.160   5.735 -0.2746  0.1074  0.0711
 3715SOL    HW111540   5.334   4.175   5.702 -0.3235  1.4079  0.7573
 3715SOL    HW211541   5.479   4.184   5.662 -0.4618 -0.4801 -0.2800
 3716SOL     OW11542   6.883   4.868   4.201  0.6556 -0.1630  0.3741
 3716SOL    HW111543   6.883   4.894   4.293  0.8273  0.5823  0.1673
 3716SOL    HW211544   6.867   4.949   4.153 -2.3393 -0.9665 -0.1508
 3717SOL     OW11545   5.668   1.974   1.603  0.4425  0.2130  0.5450
 3717SOL    HW111546   5.667   2.069   1.617  0.9206  0.0686  1.6782
 3717SOL    HW211547   5.700   1.963   1.514  1.0541  1.1011  0.6404
 3718SOL     OW11548   4.633   4.004   5.154 -0.3704 -0.2742  0.3251
 3718SOL    HW111549   4.584   4.083   5.130  0.5856  0.1257 -0.3786
 3718SOL    HW211550   4.577   3.959   5.217 -2.3188 -0.6067 -1.5342
 3719SOL     OW11551   2.818   5.648   3.109 -0.4133 -0.9889  0.0042
 3719SOL    HW111552   2.780   5.561   3.095 -1.9571 -0.6863  2.0466
 3719SOL    HW211553   2.777   5.703   3.042  0.1997 -1.6792 -0.9753
 3720SOL     OW11554   0.818   4.397   1.914  0.2682 -0.3829 -0.6947
 3720SOL    HW111555   0.833   4.305   1.937 -0.3635 -0.5389 -0.8697
 3720SOL    HW211556   0.880   4.446   1.968 -0.5261 -0.8011  0.6609
 3721SOL     OW11557   3.289   4.467   2.448 -0.3266  0.4825 -0.2266
 3721SOL    HW111558   3.327   4.432   2.367  1.3190 -0.8541  1.0414
 3721SOL    HW211559   3.360   4.462   2.512 -2.3184 -1.1436  2.0327
 3722SOL     OW11560   6.831   4.536   2.250 -0.7110  0.1387 -0.4791
 3722SOL    HW111561   6.854   4.451   2.287 -2.4090  1.1213  3.2311
 3722SOL    HW211562   6.916   4.578   2.233  0.2622 -0.5415  2.2066
 3723SOL     OW11563   5.470   1.232   5.905 -0.1029  0.0525  0.0293
 3723SOL    HW111564   5.522   1.261   5.980  1.4937 -1.8683 -0.2269
 3723SOL    HW211565   5.411   1.165   5.941 -0.8663  0.6578 -0.0755
 3724SOL     OW11566   4.617   4.510   4.496 -0.2055  0.7104 -0.0143
 3724SOL    HW111567   4.633   4.442   4.430  1.0956 -0.1564  1.1253
 3724SOL    HW211568   4.550   4.472   4.553 -0.6314  1.0674 -0.2648
 3725SOL     OW11569   3.611   3.048   1.730 -0.2743  0.3902 -0.0790
 3725SOL    HW111570   3.605   3.116   1.663  1.2758  1.2083  0.5637
 3725SOL    HW211571   3.598   2.966   1.682  0.6377  0.9609 -1.3553
 3726SOL     OW11572   5.835   5.797   5.249  0.0495  0.0196  0.2720
 3726SOL    HW111573   5.840   5.892   5.255  0.1723 -0.0211  0.8640
 3726SOL    HW211574   5.877   5.766   5.329  0.3467 -0.5395 -0.0960
 3727SOL     OW11575   2.210   4.853   1.878  0.6866 -0.1190  0.4503
 3727SOL    HW111576   2.284   4.864   1.938  1.7748 -0.1078 -0.8428
 3727SOL    HW211577   2.133   4.877   1.929  1.7132  1.1284  1.4565
 3728SOL     OW11578   3.231   1.933   5.757 -0.4035 -0.0479 -0.8415
 3728SOL    HW111579   3.294   1.979   5.813  0.4401 -1.0714 -0.9064
 3728SOL    HW211580   3.253   1.961   5.668 -0.7594  0.4228 -0.7857
 3729SOL     OW11581   3.866   0.972   0.271 -0.3273  0.0129 -0.0574
 3729SOL    HW111582   3.813   0.898   0.302  0.8398 -0.7782  0.1325
 3729SOL    HW211583   3.953   0.957   0.310  0.5750  0.2095 -1.8709
 3730SOL     OW11584   0.162   2.947   5.415 -0.0856  0.1461 -0.1938
 3730SOL    HW111585   0.078   2.993   5.422 -0.7331 -0.9573 -0.4612
 3730SOL    HW211586   0.206   2.967   5.498 -1.3523 -0.6704  0.7213
 3731SOL     OW11587   1.589   0.793   0.924 -0.0053  0.5686 -0.1485
 3731SOL    HW111588   1.513   0.774   0.869  0.2669 -1.1674  0.0339
 3731SOL    HW211589   1.593   0.720   0.985  1.2840  1.1077  0.4395
 3732SOL     OW11590   6.165   5.011   6.409 -1.1157 -0.1435 -0.5316
 3732SOL    HW111591   6.182   5.096   6.451 -0.3168 -1.1127  1.2076
 3732SOL    HW211592   6.156   5.032   6.316 -2.0842  1.9839 -0.0217
 3733SOL     OW11593   5.757   2.361   6.807 -0.0917 -0.3319 -0.4403
 3733SOL    HW111594   5.675   2.366   6.856  0.9159 -0.4824  1.3426
 3733SOL    HW211595   5.825   2.354   6.874  1.3412 -0.9075 -1.8822
 3734SOL     OW11596   5.294   1.997   6.807 -0.0284 -0.4258  0.1795
 3734SOL    HW111597   5.207   1.961   6.827  0.0383  0.1281  1.5331
 3734SOL    HW211598   5.278   2.089   6.787  0.3702 -0.0233  1.6290
 3735SOL     OW11599   5.171   4.246   5.660 -0.1019 -0.2228  0.1200
 3735SOL    HW111600   5.132   4.323   5.620 -0.3303  0.0368  0.8223
 3735SOL    HW211601   5.142   4.173   5.605 -0.9965  0.0468  0.2151
 3736SOL     OW11602   1.447   3.285   4.547  0.3821  0.6847 -0.3979
 3736SOL    HW111603   1.521   3.268   4.490  0.4751  2.7983 -0.9591
 3736SOL    HW211604   1.475   3.356   4.604 -0.3668 -0.1447  1.0764
 3737SOL     OW11605   0.320   2.400   4.256  0.2293 -0.3830 -0.3325
 3737SOL    HW111606   0.393   2.353   4.296 -0.2295 -0.2645  0.6546
 3737SOL    HW211607   0.327   2.490   4.288 -1.3814 -0.7732  1.2427
 3738SOL     OW11608   5.995   4.405   0.079  0.4400  0.1828  0.5050
 3738SOL    HW111609   6.036   4.474   0.027 -0.6687  0.4347 -0.0791
 3738SOL    HW211610   6.030   4.417   0.168  2.2289 -0.1467 -0.1210
 3739SOL     OW11611   5.765   2.896   5.186 -0.0324 -0.4052  0.3297
 3739SOL    HW111612   5.859   2.886   5.172  0.2913  1.5255  0.7291
 3739SOL    HW211613   5.755   2.903   5.281 -0.1817  1.8954  0.2235
 3740SOL     OW11614   5.901   5.042   4.678  0.4740  1.0257  0.2263
 3740SOL    HW111615   5.820   5.078   4.714 -1.0436 -1.1686 -0.7799
 3740SOL    HW211616   5.885   5.036   4.584  0.5311 -2.2040  0.3071
 3741SOL     OW11617   2.481   4.828   5.998  0.5013 -0.3768  0.8540
 3741SOL    HW111618   2.431   4.748   6.017  0.2916  0.0103  2.0571
 3741SOL    HW211619   2.560   4.797   5.953 -0.7483 -1.0138 -1.0091
 3742SOL     OW11620   0.823   4.684   2.465  0.0062 -0.3384  0.3880
 3742SOL    HW111621   0.864   4.716   2.544 -0.4303  1.4044 -0.0528
 3742SOL    HW211622   0.729   4.693   2.481 -0.1661 -1.9733  0.4578
 3743SOL     OW11623   2.736   1.298   2.856  0.1815  0.3239  0.4825
 3743SOL    HW111624   2.780   1.300   2.941  1.2421 -1.2066  0.0025
 3743SOL    HW211625   2.699   1.210   2.850 -0.6841  0.7180 -0.2667
 3744SOL     OW11626   6.746   0.813   6.942  0.4940 -0.2976  0.3807
 3744SOL    HW111627   6.699   0.866   7.007  1.0558 -0.9093  1.3150
 3744SOL    HW211628   6.690   0.815   6.865  0.2481  1.2075  0.5711
 3745SOL     OW11629   4.616   1.129   2.331 -0.2358  0.5347  0.1878
 3745SOL    HW111630   4.584   1.210   2.291 -1.5619 -0.5482 -1.0740
 3745SOL    HW211631   4.640   1.074   2.257 -0.3973 -0.6228  0.9682
 3746SOL     OW11632   2.986   0.863   1.975 -0.8891  0.1423  0.2585
 3746SOL    HW111633   2.928   0.926   2.017 -0.9429 -0.1173  0.5844
 3746SOL    HW211634   3.051   0.841   2.042 -0.7004  0.0725  0.0543
 3747SOL     OW11635   1.672   5.985   0.325  0.0029  0.1401 -0.0871
 3747SOL    HW111636   1.682   6.012   0.416  1.6056  0.6807 -0.3940
 3747SOL    HW211637   1.634   5.897   0.330 -2.9107  1.3417  0.9837
 3748SOL     OW11638   4.520   4.645   4.224 -0.3379  0.3025  0.2589
 3748SOL    HW111639   4.484   4.583   4.160  0.1282 -0.5707  0.8180
 3748SOL    HW211640   4.613   4.623   4.230 -0.0091  1.5416 -0.0532
 3749SOL     OW11641   1.472   3.802   2.039  0.1561  0.4039 -0.4713
 3749SOL    HW111642   1.384   3.800   2.078 -0.2363  1.8884 -1.1934
 3749SOL    HW211643   1.468   3.874   1.976  1.8734  0.4282 -0.5864
 3750SOL     OW11644   1.520   1.682   4.237 -0.4032 -0.3118 -0.4164
 3750SOL    HW111645   1.538   1.717   4.150 -2.3868  2.2797  0.0937
 3750SOL    HW211646   1.429   1.652   4.232 -0.2796 -0.8887  0.5399
 3751SOL     OW11647   6.596   3.728   0.788  0.2984  0.1917 -0.2188
 3751SOL    HW111648   6.689   3.742   0.768  0.2561  0.5598 -0.1633
 3751SOL    HW211649   6.596   3.648   0.842  0.5385 -0.0507 -0.5720
 3752SOL     OW11650   1.788   2.662   2.682  0.2788  0.1173  0.2534
 3752SOL    HW111651   1.734   2.724   2.633 -0.4435 -1.1587 -0.6478
 3752SOL    HW211652   1.759   2.671   2.773 -0.1219  0.7830  0.0639
 3753SOL     OW11653   5.754   3.885   5.464 -0.1196 -0.0999  0.2540
 3753SOL    HW111654   5.688   3.866   5.397  0.8590  0.5739 -0.9392
 3753SOL    HW211655   5.796   3.801   5.481  1.2398  0.0939 -1.7891
 3754SOL     OW11656   2.264   4.285   4.525 -0.0614  0.6275  0.2248
 3754SOL    HW111657   2.232   4.206   4.569  2.1110  0.2922  1.3635
 3754SOL    HW211658   2.280   4.257   4.434  0.6957 -0.2899  0.6169
 3755SOL     OW11659   0.887   4.167   0.371  0.1252  0.4935 -0.0870
 3755SOL    HW111660   0.799   4.166   0.408  0.5110 -0.1665  0.8687
 3755SOL    HW211661   0.943   4.193   0.444  0.6929  1.1923 -0.7635
 3756SOL     OW11662   3.689   3.023   3.111  0.0037 -0.6541  0.8121
 3756SOL    HW111663   3.727   3.008   3.024  0.8949  2.8207  0.4727
 3756SOL    HW211664   3.618   2.959   3.117 -0.4717 -0.6868 -2.7145
 3757SOL     OW11665   1.765   4.370   0.393  0.8041 -0.0922 -0.5324
 3757SOL    HW111666   1.843   4.322   0.420  1.2482 -0.0262 -1.6489
 3757SOL    HW211667   1.709   4.371   0.471  1.6192 -0.7290  0.0764
 3758SOL     OW11668   4.372   6.113   4.140  0.8660  0.0150 -0.3748
 3758SOL    HW111669   4.369   6.099   4.046  1.5135 -0.3258 -0.3503
 3758SOL    HW211670   4.349   6.028   4.178 -0.9179  0.5368 -0.2114
 3759SOL     OW11671   2.891   1.824   3.278 -0.1270 -0.2954  0.2082
 3759SOL    HW111672   2.922   1.857   3.363  1.3324  0.6479 -0.6431
 3759SOL    HW211673   2.881   1.902   3.224 -2.7477 -0.6976 -0.0304
 3760SOL     OW11674   0.050   1.810   3.690 -0.4308  0.2598  0.1556
 3760SOL    HW111675   0.080   1.720   3.697 -1.4282  0.0327  1.9612
 3760SOL    HW211676  -0.044   1.803   3.674 -0.2690  0.9977 -1.3055
 3761SOL     OW11677   5.885   5.264   0.161 -0.1513 -0.4190  0.1644
 3761SOL    HW111678   5.846   5.277   0.074  1.4334  0.0790 -0.5114
 3761SOL    HW211679   5.945   5.338   0.171 -0.9211 -0.0092  2.0577
 3762SOL     OW11680   2.653   3.623   1.013  0.6339 -0.0985  0.1532
 3762SOL    HW111681   2.701   3.552   1.056  0.4846  0.7244  1.7813
 3762SOL    HW211682   2.685   3.703   1.056  1.0470  0.8713 -1.8607
 3763SOL     OW11683   2.028   3.974   6.935  0.7648 -0.1277  0.1892
 3763SOL    HW111684   1.999   3.968   7.026  1.5310  1.4231  0.5702
 3763SOL    HW211685   1.953   3.944   6.884 -1.1024  2.4449  1.1900
 3764SOL     OW11686   1.083   2.810   1.316 -0.4856 -0.3537  0.2006
 3764SOL    HW111687   1.164   2.770   1.284  0.2425  0.1341  1.3359
 3764SOL    HW211688   1.015   2.747   1.296  0.4916 -1.7736  1.1219
 3765SOL     OW11689   5.022   2.879   1.920  0.6418  0.3883  0.3203
 3765SOL    HW111690   5.108   2.852   1.954  0.4787  0.1939  0.5818
 3765SOL    HW211691   4.978   2.797   1.898  0.8374  0.5176 -0.6109
 3766SOL     OW11692   1.797   6.840   0.864  0.8427 -0.2913  0.3733
 3766SOL    HW111693   1.754   6.925   0.851  0.4318 -0.5499 -0.0039
 3766SOL    HW211694   1.814   6.836   0.958  0.0272 -0.1744  0.5399
 3767SOL     OW11695   1.212   0.914   1.747  0.0528  0.2875  0.4554
 3767SOL    HW111696   1.248   0.835   1.705  0.2471  0.9381 -0.6334
 3767SOL    HW211697   1.208   0.891   1.840  0.0062 -1.0455  0.1508
 3768SOL     OW11698   6.051   3.149   2.214 -0.1900 -0.6070 -0.0010
 3768SOL    HW111699   5.996   3.210   2.163  0.2377 -0.6515 -0.5281
 3768SOL    HW211700   6.030   3.063   2.179 -0.3353 -0.7010  0.3158
 3769SOL     OW11701   3.162   1.985   0.149 -0.1853  0.1903  0.2075
 3769SOL    HW111702   3.105   1.977   0.225  0.1522  1.2090  0.5965
 3769SOL    HW211703   3.142   2.072   0.114  0.4337  0.1672 -0.2224
 3770SOL     OW11704   0.021   6.752   3.024 -0.2761 -0.3146  0.3840
 3770SOL    HW111705   0.025   6.830   3.080 -0.1224 -0.5232  0.6682
 3770SOL    HW211706  -0.044   6.695   3.066 -0.2828 -0.3997  0.2593
 3771SOL     OW11707   4.768   5.862   1.133  0.5042  0.3455  0.5491
 3771SOL    HW111708   4.685   5.903   1.107  0.0876  0.5286  2.0731
 3771SOL    HW211709   4.811   5.841   1.050 -1.6547 -0.9984 -0.3429
 3772SOL     OW11710   3.791   0.066   1.713  0.2002  0.3223  0.0996
 3772SOL    HW111711   3.835   0.071   1.798 -0.1842 -0.2763  0.3439
 3772SOL    HW211712   3.857   0.029   1.655  0.4126  0.5784  0.1768
 3773SOL     OW11713   4.432   4.449   6.244  0.1866  0.1787 -0.5655
 3773SOL    HW111714   4.404   4.392   6.172 -0.3886 -0.6926  0.3386
 3773SOL    HW211715   4.522   4.422   6.262 -0.1690 -0.6415  0.0312
 3774SOL     OW11716   5.331   5.809   4.960 -0.7659  0.0286  0.0863
 3774SOL    HW111717   5.318   5.854   4.877 -1.3902 -0.4087 -0.0597
 3774SOL    HW211718   5.301   5.719   4.944  0.9951 -0.6228  0.2044
 3775SOL     OW11719   1.722   1.491   4.068 -0.4043  0.6997 -0.1662
 3775SOL    HW111720   1.726   1.581   4.101 -0.4644  0.5974  0.1149
 3775SOL    HW211721   1.708   1.502   3.973 -0.1379  0.9872 -0.1737
 3776SOL     OW11722   2.043   3.789   3.834  0.2674 -0.3799 -0.1127
 3776SOL    HW111723   2.110   3.725   3.856  0.0534 -0.3826  0.5405
 3776SOL    HW211724   1.965   3.759   3.879  0.3175  0.6610  0.7075
 3777SOL     OW11725   0.932   3.443   1.063 -0.1889 -0.3349  0.3611
 3777SOL    HW111726   0.876   3.396   1.001 -1.3650  2.0035 -0.4655
 3777SOL    HW211727   1.013   3.460   1.013 -1.0978  1.4639 -0.6137
 3778SOL     OW11728   3.424   2.101   1.170 -0.1191 -0.0589 -0.1505
 3778SOL    HW111729   3.365   2.076   1.099 -1.6356 -0.2145  1.1044
 3778SOL    HW211730   3.455   2.188   1.147  0.6531 -0.7155 -1.7369
 3779SOL     OW11731   1.274   5.407   2.628 -0.7996  0.3866 -0.0076
 3779SOL    HW111732   1.272   5.447   2.714 -3.6388  0.0267  0.1620
 3779SOL    HW211733   1.305   5.317   2.643 -1.3280  0.3136  0.6507
 3780SOL     OW11734   5.397   0.074   6.683  0.1795 -0.1592  0.0350
 3780SOL    HW111735   5.465   0.052   6.620 -0.6861 -1.8984 -0.3583
 3780SOL    HW211736   5.436   0.052   6.768  0.2775 -0.7241 -0.1514
 3781SOL     OW11737   0.304   0.999   2.951 -0.3042 -0.4107  0.3891
 3781SOL    HW111738   0.361   0.931   2.987  0.4770 -0.2888 -0.5786
 3781SOL    HW211739   0.363   1.074   2.936 -1.1736  0.5554  1.5783
 3782SOL     OW11740   3.685   1.007   6.087  0.5893  0.0718  0.5163
 3782SOL    HW111741   3.770   0.963   6.096  0.5976 -0.1899 -0.7064
 3782SOL    HW211742   3.666   1.004   5.993 -1.0005 -0.2878  0.8138
 3783SOL     OW11743   4.797   0.893   5.775  0.0476 -0.8461  0.7428
 3783SOL    HW111744   4.785   0.987   5.767 -1.0667 -0.9675  0.9422
 3783SOL    HW211745   4.883   0.883   5.817 -0.3265  0.0990  1.7634
 3784SOL     OW11746   5.745   6.848   1.806 -0.3982 -0.2036  0.1631
 3784SOL    HW111747   5.714   6.899   1.731  1.5918  1.3219  0.2805
 3784SOL    HW211748   5.667   6.804   1.839 -1.5446  0.0398 -2.0613
 3785SOL     OW11749   4.877   2.615   3.738  0.0854 -0.3266  0.0577
 3785SOL    HW111750   4.821   2.674   3.687  0.3453  0.0317  0.1758
 3785SOL    HW211751   4.830   2.602   3.820  0.5243  0.6144  0.4810
 3786SOL     OW11752   3.732   5.476   1.913 -0.2361 -0.0000  0.6986
 3786SOL    HW111753   3.806   5.468   1.972 -1.6041  0.0138  2.5068
 3786SOL    HW211754   3.662   5.514   1.967 -1.8353 -0.8276 -0.6816
 3787SOL     OW11755   2.468   6.830   5.119 -0.0990  0.1123  0.2541
 3787SOL    HW111756   2.520   6.808   5.042 -0.4871 -0.5102  0.1705
 3787SOL    HW211757   2.469   6.926   5.122  2.6063  0.1403  1.3161
 3788SOL     OW11758   4.231   6.171   5.660 -0.3576  0.1439 -0.1422
 3788SOL    HW111759   4.261   6.110   5.727 -0.3731  0.0231 -0.2438
 3788SOL    HW211760   4.303   6.174   5.597  0.1305  1.1265  0.4521
 3789SOL     OW11761   2.674   0.852   3.648  0.3687 -0.1240 -0.3208
 3789SOL    HW111762   2.609   0.785   3.631  0.8562 -0.3518 -1.3656
 3789SOL    HW211763   2.677   0.904   3.568  0.0813  1.0888  0.4277
 3790SOL     OW11764   3.793   4.009   4.315  0.4050 -0.1768  0.0295
 3790SOL    HW111765   3.759   3.920   4.321  2.1263 -0.8209  1.0234
 3790SOL    HW211766   3.753   4.056   4.389 -0.8432  0.0294 -0.7509
 3791SOL     OW11767   6.923   5.886   0.327  0.3228 -0.4683 -0.4670
 3791SOL    HW111768   7.002   5.832   0.326 -0.2071 -1.5702  3.0470
 3791SOL    HW211769   6.953   5.973   0.355  0.5413 -0.2305 -1.4027
 3792SOL     OW11770   5.787   0.788   0.046 -0.1525 -0.0498  0.0369
 3792SOL    HW111771   5.851   0.761  -0.020 -0.1354  0.2458 -0.0716
 3792SOL    HW211772   5.840   0.809   0.123 -0.1179  0.1631 -0.0426
 3793SOL     OW11773   3.312   4.092   5.925  0.1233  0.2358 -0.0450
 3793SOL    HW111774   3.285   4.004   5.949 -0.9077  0.3951 -0.5538
 3793SOL    HW211775   3.390   4.109   5.978 -0.4423 -0.4711  1.0388
 3794SOL     OW11776   1.735   4.408   2.082  0.0234  0.3222  0.4816
 3794SOL    HW111777   1.678   4.427   2.007  0.3558 -0.4519  0.0122
 3794SOL    HW211778   1.677   4.365   2.146  0.0841 -0.5545 -0.0334
 3795SOL     OW11779   4.290   1.811   2.021 -0.1225 -0.6040  0.6829
 3795SOL    HW111780   4.256   1.765   1.945  2.2926 -0.0936 -0.8174
 3795SOL    HW211781   4.318   1.742   2.081 -1.0693 -1.0160  0.6554
 3796SOL     OW11782   0.428   1.502   0.147  0.3725 -0.5161  0.0096
 3796SOL    HW111783   0.373   1.580   0.145  0.3754 -0.5059  0.2661
 3796SOL    HW211784   0.450   1.486   0.055  0.2834 -0.2786 -0.0553
 3797SOL     OW11785   1.628   6.641   6.531  0.5811  0.1016  0.1216
 3797SOL    HW111786   1.601   6.660   6.442  0.4586 -0.0353  0.1302
 3797SOL    HW211787   1.698   6.704   6.549 -0.9278  1.6957  0.7284
 3798SOL     OW11788   0.527   0.354   2.981 -0.1029  0.0492 -0.2652
 3798SOL    HW111789   0.503   0.302   3.058 -0.9175 -2.3497 -1.9946
 3798SOL    HW211790   0.447   0.356   2.928  0.9616 -0.0678 -1.9245
 3799SOL     OW11791   1.084   2.896   0.100 -0.1186  0.2554 -0.1822
 3799SOL    HW111792   1.037   2.832   0.154 -1.6995  0.9254 -0.7109
 3799SOL    HW211793   1.162   2.849   0.069 -1.3119 -1.4647 -0.6947
 3800SOL     OW11794   3.779   2.583   5.780 -0.4098 -0.0739 -0.5206
 3800SOL    HW111795   3.795   2.489   5.778 -1.4233 -0.2541 -0.3580
 3800SOL    HW211796   3.825   2.617   5.703  1.0848 -0.5070  0.1403
 3801SOL     OW11797   1.828   1.244   3.796  0.4329  0.4955 -0.3843
 3801SOL    HW111798   1.901   1.276   3.744  1.2481 -0.3375  0.2184
 3801SOL    HW211799   1.750   1.273   3.749  1.1161 -0.8296 -2.4623
 3802SOL     OW11800   2.690   1.279   0.911  0.2032  0.0926  0.0792
 3802SOL    HW111801   2.664   1.350   0.852  0.0263 -1.1065 -1.3538
 3802SOL    HW211802   2.635   1.205   0.885  1.6372 -1.0948  0.3005
 3803SOL     OW11803   2.358   6.173   6.734 -0.1619 -0.0270  0.0943
 3803SOL    HW111804   2.298   6.109   6.695 -0.2688 -0.0059  0.2281
 3803SOL    HW211805   2.436   6.169   6.677 -1.1004  1.5024 -1.3736
 3804SOL     OW11806   4.878   0.436   2.176  0.3581 -0.0324  0.6676
 3804SOL    HW111807   4.873   0.355   2.227 -0.7867 -0.4259 -0.0410
 3804SOL    HW211808   4.899   0.407   2.087  2.2322  0.6426  0.8417
 3805SOL     OW11809   5.348   5.479   6.598  0.2425 -0.2468 -0.6840
 3805SOL    HW111810   5.386   5.566   6.611  0.1696 -0.4634  1.3856
 3805SOL    HW211811   5.369   5.431   6.679  0.1026 -2.0928 -1.6897
 3806SOL     OW11812   2.885   0.816   3.351 -0.6530  0.1544 -0.2665
 3806SOL    HW111813   2.893   0.911   3.343  0.0089  0.3698  2.2742
 3806SOL    HW211814   2.975   0.784   3.357 -0.8936 -0.3194  1.4401
 3807SOL     OW11815   0.466   2.214   6.435 -0.1214 -0.0212  0.5714
 3807SOL    HW111816   0.393   2.159   6.461 -1.2279  0.4158 -1.3854
 3807SOL    HW211817   0.530   2.154   6.398 -0.7349 -0.1616 -0.2951
 3808SOL     OW11818   1.027   5.940   3.031  0.4647 -0.1839 -0.0022
 3808SOL    HW111819   1.080   6.004   2.984 -2.6159  1.4948 -1.4449
 3808SOL    HW211820   0.963   5.992   3.080 -0.2892 -2.1063  1.2051
 3809SOL     OW11821   6.504   4.946   3.674  0.3099  0.8841  0.4358
 3809SOL    HW111822   6.409   4.943   3.681  0.1141  0.6141 -1.7145
 3809SOL    HW211823   6.525   5.039   3.685 -0.5285  1.4046 -1.7859
 3810SOL     OW11824   4.279   5.327   2.231 -0.2253  0.6930  0.1701
 3810SOL    HW111825   4.210   5.261   2.221  0.3186  0.1194  0.1741
 3810SOL    HW211826   4.287   5.339   2.326  1.2626 -0.9458  0.2897
 3811SOL     OW11827   0.780   4.318   4.504 -0.0437 -0.2679  0.2615
 3811SOL    HW111828   0.858   4.325   4.560 -0.2212  1.7117  0.3083
 3811SOL    HW211829   0.707   4.344   4.561 -0.6193 -1.0691 -0.0878
 3812SOL     OW11830   0.119   0.393   5.341  0.3371 -0.0036 -0.4411
 3812SOL    HW111831   0.192   0.453   5.323 -0.0519  0.2281 -1.2948
 3812SOL    HW211832   0.094   0.359   5.254 -0.1006 -0.6333 -0.0773
 3813SOL     OW11833   3.711   4.701   6.271  0.2307 -0.3601 -0.5530
 3813SOL    HW111834   3.725   4.705   6.176 -0.0065 -2.5570 -0.7193
 3813SOL    HW211835   3.798   4.715   6.308  0.4378 -0.1519 -1.1030
 3814SOL     OW11836   0.450   1.288   2.139 -0.0082 -0.3071  0.6246
 3814SOL    HW111837   0.511   1.358   2.116  0.7932 -1.2875 -0.3508
 3814SOL    HW211838   0.468   1.270   2.231  0.2023  0.3534  0.7173
 3815SOL     OW11839   1.254   4.323   2.494  0.0560  0.1844 -0.3466
 3815SOL    HW111840   1.279   4.415   2.480 -0.9894  0.2531 -2.0976
 3815SOL    HW211841   1.184   4.327   2.559 -0.2080  0.6868 -0.6511
 3816SOL     OW11842   2.242   6.409   5.835  0.0879 -0.1207 -0.2822
 3816SOL    HW111843   2.216   6.500   5.820 -2.3477 -0.5620  0.7606
 3816SOL    HW211844   2.324   6.415   5.884  0.1037  1.5005 -0.4580
 3817SOL     OW11845   0.508   0.310   6.761  0.7065  0.1128  0.6015
 3817SOL    HW111846   0.594   0.299   6.802  1.0915 -0.7267 -0.3953
 3817SOL    HW211847   0.524   0.302   6.667 -0.4502 -0.0042  0.3938
 3818SOL     OW11848   0.607   5.079   1.326 -0.3766  0.2545 -0.5767
 3818SOL    HW111849   0.572   5.162   1.294  1.3993  0.8324 -1.1384
 3818SOL    HW211850   0.594   5.082   1.421 -0.2890  1.1954 -0.5859
 3819SOL     OW11851   5.095   5.469   0.630 -0.1821 -0.6545  0.0703
 3819SOL    HW111852   5.080   5.494   0.538 -1.3283  1.3674  0.7432
 3819SOL    HW211853   5.058   5.541   0.681 -0.3226 -2.1068  2.1638
 3820SOL     OW11854   2.923   2.110   3.797 -0.4590 -0.5428 -0.1038
 3820SOL    HW111855   2.994   2.052   3.825 -0.0403 -0.4295 -0.8896
 3820SOL    HW211856   2.877   2.133   3.877  1.1999  0.4431  0.6253
 3821SOL     OW11857   4.884   0.433   3.423  0.2936  0.2074  0.4620
 3821SOL    HW111858   4.916   0.374   3.355  2.8287  1.5149  0.3905
 3821SOL    HW211859   4.793   0.451   3.398  0.8125 -0.1741 -2.0245
 3822SOL     OW11860   6.519   6.242   3.960 -0.4006  0.4201  0.0435
 3822SOL    HW111861   6.471   6.174   4.008  0.4697 -0.7861 -0.7373
 3822SOL    HW211862   6.515   6.215   3.869 -0.3620  1.6436 -0.3418
 3823SOL     OW11863   3.390   5.210   2.315 -0.1964  1.1409  0.2118
 3823SOL    HW111864   3.385   5.116   2.297  0.1197  0.9541  1.0614
 3823SOL    HW211865   3.342   5.222   2.397  0.1687  1.6489  0.3574
 3824SOL     OW11866   2.547   6.368   5.353  0.2321  0.4905 -0.3644
 3824SOL    HW111867   2.502   6.453   5.351 -0.8659  0.0470  1.6947
 3824SOL    HW211868   2.610   6.377   5.425  0.5292 -0.2314 -0.5331
 3825SOL     OW11869   0.580   6.506   2.971 -0.2127  0.3160 -0.3350
 3825SOL    HW111870   0.649   6.570   2.985 -0.5355  0.3626  1.2427
 3825SOL    HW211871   0.623   6.433   2.926  1.0905  0.0094  1.3212
 3826SOL     OW11872   4.483   3.059   1.324  0.1592  0.3755  0.2910
 3826SOL    HW111873   4.434   3.087   1.401  1.2699 -0.7353  1.4475
 3826SOL    HW211874   4.575   3.070   1.349  0.5508 -0.8318 -0.5477
 3827SOL     OW11875   5.419   5.074   0.490 -0.1397 -0.8795  0.2973
 3827SOL    HW111876   5.469   4.992   0.489 -0.4491 -1.0797  0.8268
 3827SOL    HW211877   5.364   5.067   0.568 -2.7435 -1.6982 -1.4914
 3828SOL     OW11878   5.245   3.520   0.157  0.2745 -0.5494  0.1894
 3828SOL    HW111879   5.246   3.432   0.120 -0.6212 -1.2686  1.7806
 3828SOL    HW211880   5.300   3.514   0.235 -1.0762 -0.1583  1.2121
 3829SOL     OW11881   6.770   1.250   6.798 -0.0242 -0.4578  0.5416
 3829SOL    HW111882   6.840   1.187   6.814 -0.2585 -0.8913 -0.1455
 3829SOL    HW211883   6.763   1.298   6.881  0.5512 -0.9331  0.8760
 3830SOL     OW11884   0.420   2.048   5.081 -1.2131 -0.6863 -0.0252
 3830SOL    HW111885   0.345   2.101   5.052 -0.9620 -0.6449 -0.6195
 3830SOL    HW211886   0.384   1.989   5.146 -1.3112  0.9295  1.4691
 3831SOL     OW11887   3.359   4.757   1.973  0.2813  0.0658  0.6960
 3831SOL    HW111888   3.307   4.719   2.044 -1.3921  1.3823  0.2314
 3831SOL    HW211889   3.311   4.734   1.893  0.9106  0.5377  0.1681
 3832SOL     OW11890   1.678   6.470   1.961 -0.4492  0.2826 -0.2766
 3832SOL    HW111891   1.709   6.505   1.877  2.3371 -0.7144  0.2007
 3832SOL    HW211892   1.724   6.522   2.027  0.0866 -1.1428  0.5194
 3833SOL     OW11893   2.533   4.498   3.766  0.0230  0.6558  0.7220
 3833SOL    HW111894   2.450   4.537   3.793 -0.6259  0.2940 -0.6447
 3833SOL    HW211895   2.580   4.569   3.722 -0.1338  0.5232  0.3371
 3834SOL     OW11896   1.195   0.358   6.106 -0.4677 -0.1912 -0.1159
 3834SOL    HW111897   1.214   0.322   6.020 -1.2827 -2.3006  0.5245
 3834SOL    HW211898   1.184   0.452   6.091 -0.8607 -0.5447 -2.3456
 3835SOL     OW11899   4.638   1.624   2.666 -0.2299  0.5706 -0.3608
 3835SOL    HW111900   4.561   1.671   2.698 -0.7406 -0.6285  0.2115
 3835SOL    HW211901   4.676   1.584   2.743  0.0622 -0.1445 -0.8637
 3836SOL     OW11902   5.187   3.786   0.366  0.3800  0.4107  0.6228
 3836SOL    HW111903   5.277   3.816   0.383 -0.2433  1.9541  1.3287
 3836SOL    HW211904   5.153   3.846   0.300  0.2848 -1.0072 -0.6708
 3837SOL     OW11905   4.373   3.316   0.671  0.1917 -0.2884  0.0077
 3837SOL    HW111906   4.313   3.278   0.607 -0.1616 -1.1264  0.8250
 3837SOL    HW211907   4.343   3.407   0.680 -0.2785 -0.3992 -0.3734
 3838SOL     OW11908   2.339   0.656   4.200  0.0492 -0.5930 -0.5893
 3838SOL    HW111909   2.435   0.648   4.197  0.1833 -0.0643  1.0544
 3838SOL    HW211910   2.317   0.702   4.119  1.4666  1.3070 -0.0075
 3839SOL     OW11911   6.217   4.907   0.583  0.0854 -0.2572 -0.6321
 3839SOL    HW111912   6.236   4.973   0.649  2.2007 -1.2535 -0.1867
 3839SOL    HW211913   6.124   4.921   0.562 -0.5898  0.2766  2.3103
 3840SOL     OW11914   2.906   2.605   4.538 -0.0331 -0.7814 -0.2338
 3840SOL    HW111915   2.871   2.693   4.550 -0.2248 -0.9131  0.1931
 3840SOL    HW211916   2.976   2.615   4.473  1.1770 -0.0017  1.1390
 3841SOL     OW11917   5.956   1.295   2.853  0.2849  0.2134 -0.8797
 3841SOL    HW111918   5.973   1.268   2.943 -2.1654  0.3708 -0.2971
 3841SOL    HW211919   5.982   1.220   2.799  0.7439 -0.3106  0.0606
 3842SOL     OW11920   6.026   4.799   2.619  0.4710  0.3078  0.1664
 3842SOL    HW111921   5.988   4.856   2.685 -0.7393  0.4750 -0.6462
 3842SOL    HW211922   5.993   4.711   2.640  0.8969  0.1964  0.3741
 3843SOL     OW11923   1.267   4.556   1.699  0.4437 -0.2756  0.4217
 3843SOL    HW111924   1.176   4.528   1.698  0.7513 -1.4629  1.8025
 3843SOL    HW211925   1.270   4.626   1.765  0.1620  1.3070 -1.1751
 3844SOL     OW11926   1.099   5.941   0.318 -0.2321  0.3343 -0.1751
 3844SOL    HW111927   1.110   5.993   0.239  0.8004  1.0235  0.3934
 3844SOL    HW211928   1.050   5.998   0.378 -0.1294  0.2011  0.0386
 3845SOL     OW11929   0.550   5.911   4.515  0.0287 -1.0368 -0.4186
 3845SOL    HW111930   0.578   5.825   4.544 -1.5470 -1.6476 -0.6175
 3845SOL    HW211931   0.560   5.908   4.419  0.7525 -0.6852 -0.3646
 3846SOL     OW11932   3.143   4.288   2.618  1.0384  0.4564  0.6504
 3846SOL    HW111933   3.185   4.354   2.563 -0.1825  2.8710  2.4389
 3846SOL    HW211934   3.151   4.207   2.567  2.4020  1.9644 -1.7731
 3847SOL     OW11935   0.982   3.080   3.498  0.0054 -0.1673  0.5943
 3847SOL    HW111936   0.899   3.115   3.465  0.0718  0.3592  0.9691
 3847SOL    HW211937   1.035   3.158   3.516  0.7418 -0.5077 -0.0403
 3848SOL     OW11938   6.478   6.748   5.640  0.0977  0.1443  0.4218
 3848SOL    HW111939   6.414   6.817   5.626 -0.9634 -0.8098  0.3701
 3848SOL    HW211940   6.539   6.757   5.568 -1.6999 -0.7596 -1.3170
 3849SOL     OW11941   4.205   5.165   2.807 -0.4163 -0.1308  0.1058
 3849SOL    HW111942   4.135   5.223   2.776  0.0188  0.8657  0.9144
 3849SOL    HW211943   4.234   5.204   2.890  0.1645 -1.2964  0.4757
 3850SOL     OW11944   5.961   1.979   3.166 -0.4043  0.0252  0.7478
 3850SOL    HW111945   5.878   2.026   3.160  0.9475  2.5723  0.1174
 3850SOL    HW211946   5.964   1.943   3.254 -0.1285  4.2823  2.7097
 3851SOL     OW11947   4.001   1.607   1.268 -0.7128  0.3281  0.0045
 3851SOL    HW111948   3.940   1.664   1.316 -1.5160 -0.8447  0.4129
 3851SOL    HW211949   3.945   1.551   1.214  0.1102  0.5311 -1.0965
 3852SOL     OW11950   5.338   6.665   5.781 -0.1268  0.6338 -0.1032
 3852SOL    HW111951   5.250   6.628   5.790 -0.5196  1.2095 -1.4053
 3852SOL    HW211952   5.323   6.755   5.752  0.9098  0.3438 -1.6319
 3853SOL     OW11953   3.065   1.583   3.815 -0.4981  0.1741 -0.5441
 3853SOL    HW111954   3.047   1.623   3.729  0.2042 -1.0883 -1.3083
 3853SOL    HW211955   3.100   1.496   3.794  0.7956  0.2776  1.0096
 3854SOL     OW11956   1.532   6.724   3.615  0.1752 -0.3492 -0.0182
 3854SOL    HW111957   1.601   6.746   3.552  0.2079 -0.4907 -0.0301
 3854SOL    HW211958   1.451   6.729   3.565  0.2838 -1.4277 -0.3063
 3855SOL     OW11959   4.597   6.364   2.296 -0.3715  0.3411 -0.3965
 3855SOL    HW111960   4.671   6.304   2.286 -0.8285 -0.0880 -1.3712
 3855SOL    HW211961   4.563   6.345   2.384 -0.4413 -0.7616 -0.6418
 3856SOL     OW11962   4.440   5.639   1.932 -0.0125  0.2552  0.3657
 3856SOL    HW111963   4.480   5.680   1.856  0.4545 -0.8386 -0.0027
 3856SOL    HW211964   4.349   5.626   1.907 -0.0326  0.5664  0.2760
 3857SOL     OW11965   6.593   4.379   4.701 -0.2514  0.8652  0.7711
 3857SOL    HW111966   6.535   4.390   4.626  1.1611  1.5086 -0.2680
 3857SOL    HW211967   6.590   4.286   4.721  0.0332  0.5414 -0.6500
 3858SOL     OW11968   0.512   5.486   1.693 -0.0690 -0.1038  0.0402
 3858SOL    HW111969   0.561   5.405   1.704  1.0899  0.5961  0.2086
 3858SOL    HW211970   0.435   5.475   1.748 -0.0562 -1.1869 -0.1341
 3859SOL     OW11971   5.531   6.705   3.917  0.7325 -0.6225  0.1930
 3859SOL    HW111972   5.576   6.662   3.844  0.8365  2.8617 -2.0640
 3859SOL    HW211973   5.597   6.766   3.952 -0.2732 -0.0505  1.1405
 3860SOL     OW11974   4.951   1.324   4.792 -0.0569  0.3180  0.1051
 3860SOL    HW111975   4.909   1.264   4.731  0.0898 -0.1216  0.4268
 3860SOL    HW211976   5.001   1.267   4.850  0.1258  0.7592  0.3844
 3861SOL     OW11977   3.106   2.345   0.443 -0.2155 -0.1338  0.6002
 3861SOL    HW111978   3.189   2.299   0.455 -0.0922  0.1378  0.7975
 3861SOL    HW211979   3.128   2.419   0.385 -0.3280 -0.0859  0.6182
 3862SOL     OW11980   2.027   0.199   3.574 -0.0645  0.0944  0.3901
 3862SOL    HW111981   2.103   0.244   3.609 -0.5906 -0.1559  1.9473
 3862SOL    HW211982   1.995   0.146   3.647 -1.6791  0.1352 -0.2430
 3863SOL     OW11983   0.208   4.239   4.619 -0.3398  0.1008  0.4016
 3863SOL    HW111984   0.275   4.189   4.666 -0.5708  0.2739  0.9191
 3863SOL    HW211985   0.131   4.234   4.674 -0.4733  0.7277  0.2822
 3864SOL     OW11986   0.457   0.102   4.115  0.4405  0.4043 -0.0354
 3864SOL    HW111987   0.412   0.050   4.049 -0.1141  1.3365 -0.4126
 3864SOL    HW211988   0.388   0.130   4.175  0.5119  1.7351 -0.5425
 3865SOL     OW11989   3.042   2.625   4.281  0.2375 -0.3201  0.4250
 3865SOL    HW111990   3.057   2.715   4.253 -0.6758 -0.1759  0.3566
 3865SOL    HW211991   2.992   2.586   4.209 -0.3630 -0.5393  0.9510
 3866SOL     OW11992   0.672   5.430   2.422 -0.2996  0.2689  0.3095
 3866SOL    HW111993   0.712   5.344   2.409  1.6829  0.8739  1.8379
 3866SOL    HW211994   0.595   5.430   2.365  0.1073 -2.1874 -0.3490
 3867SOL     OW11995   5.368   0.308   6.039 -0.1981  0.2558  0.4932
 3867SOL    HW111996   5.411   0.325   5.955 -0.9998  1.0241  0.2164
 3867SOL    HW211997   5.279   0.342   6.028 -0.5885 -0.4280  1.3683
 3868SOL     OW11998   4.036   1.723   0.263 -0.0104 -0.3104  0.9667
 3868SOL    HW111999   4.089   1.796   0.295  0.3568 -0.3260  0.4113
 3868SOL    HW212000   4.086   1.687   0.190 -0.7507 -0.3723  0.4749
 3869SOL     OW12001   6.919   6.305   5.157 -0.1503  0.3996  0.2679
 3869SOL    HW112002   6.910   6.383   5.102  1.8625  1.2916  1.1236
 3869SOL    HW212003   6.904   6.337   5.246 -0.3845 -0.4293  0.5347
 3870SOL     OW12004   2.240   0.011   6.436 -0.4935  0.4665 -0.1307
 3870SOL    HW112005   2.193  -0.014   6.515 -0.7166  1.7686  0.1766
 3870SOL    HW212006   2.253   0.106   6.445  0.6981  0.4081 -1.0032
 3871SOL     OW12007   2.285   4.859   5.237  0.5383 -0.1831 -0.6371
 3871SOL    HW112008   2.324   4.874   5.151  1.0268 -0.8994 -0.5442
 3871SOL    HW212009   2.353   4.812   5.286  0.2944  0.2862  0.1662
 3872SOL     OW12010   4.943   4.670   1.228  0.1179  0.0490  0.4005
 3872SOL    HW112011   4.998   4.593   1.211  0.0718 -0.1747  1.2200
 3872SOL    HW212012   4.914   4.698   1.142  0.3643 -0.6850  0.0693
 3873SOL     OW12013   4.199   4.375   6.521 -0.4821 -0.5921  0.1932
 3873SOL    HW112014   4.200   4.440   6.590 -2.0565  0.7915 -1.0131
 3873SOL    HW212015   4.254   4.412   6.452 -0.3448 -1.1495 -0.0019
 3874SOL     OW12016   6.524   5.921   3.177  0.1478 -0.5850  0.3688
 3874SOL    HW112017   6.430   5.925   3.198  0.1292 -1.6210  0.5675
 3874SOL    HW212018   6.563   5.880   3.254  1.0752  1.6017  1.1187
 3875SOL     OW12019   4.098   3.046   3.167  0.1412 -0.0904  0.1762
 3875SOL    HW112020   4.099   2.990   3.090 -0.7515 -0.8880  0.7179
 3875SOL    HW212021   4.080   3.134   3.132 -0.0194 -0.4025 -0.5442
 3876SOL     OW12022   1.402   6.888   2.755 -0.2089 -0.4033  0.2647
 3876SOL    HW112023   1.490   6.892   2.718 -0.4576  2.1281 -0.2216
 3876SOL    HW212024   1.348   6.855   2.684 -0.2333  1.8132 -0.8264
 3877SOL     OW12025   0.662   4.520   3.985  0.2535  0.0674  0.5438
 3877SOL    HW112026   0.695   4.450   3.929 -2.0560 -0.4403 -0.2763
 3877SOL    HW212027   0.591   4.481   4.036 -0.1690  1.4549  1.0962
 3878SOL     OW12028   5.562   2.351   3.746  0.0680 -0.7045  0.1922
 3878SOL    HW112029   5.501   2.281   3.767 -0.0617 -0.5375  0.3722
 3878SOL    HW212030   5.612   2.365   3.826  1.2565 -1.7415 -0.3305
 3879SOL     OW12031   0.070   3.391   4.271  0.3182  0.1091  0.4360
 3879SOL    HW112032   0.143   3.427   4.321  0.1845 -0.0509  0.7535
 3879SOL    HW212033   0.010   3.464   4.261  0.7806  0.3858 -0.3191
 3880SOL     OW12034   1.051   1.389   4.862  0.3327  0.4020 -0.1991
 3880SOL    HW112035   1.091   1.417   4.944  0.4973  0.9130 -0.4525
 3880SOL    HW212036   0.958   1.384   4.881  0.4151  0.0835  0.1413
 3881SOL     OW12037   6.556   1.152   0.558 -0.4155 -0.3808  0.6643
 3881SOL    HW112038   6.524   1.203   0.484  0.6684 -0.1339  0.3404
 3881SOL    HW212039   6.541   1.061   0.533 -0.1694 -0.2957  0.1881
 3882SOL     OW12040   0.862   6.442   4.811  0.7009  0.8422 -0.1359
 3882SOL    HW112041   0.915   6.492   4.873 -0.4085  0.9509  0.7459
 3882SOL    HW212042   0.805   6.507   4.770  0.1600  0.4946  0.0599
 3883SOL     OW12043   6.435   2.555   0.432 -0.0770 -0.0670 -0.6225
 3883SOL    HW112044   6.341   2.564   0.441 -0.2580 -0.7271 -1.6892
 3883SOL    HW212045   6.448   2.519   0.344  1.2678  1.5477 -1.1477
 3884SOL     OW12046   4.357   1.655   1.780 -1.0415 -0.0970  0.0919
 3884SOL    HW112047   4.308   1.690   1.706 -0.7410  1.2084  0.4753
 3884SOL    HW212048   4.379   1.566   1.755  0.3401  0.7620 -2.0458
 3885SOL     OW12049   6.911   4.280   2.368  0.0717 -0.2233  0.0260
 3885SOL    HW112050   6.958   4.267   2.451  2.7858 -0.3393 -1.4275
 3885SOL    HW212051   6.852   4.204   2.362  0.9418 -1.0148  1.1451
 3886SOL     OW12052   5.856   1.446   6.645 -0.0083  0.1774 -0.0736
 3886SOL    HW112053   5.897   1.360   6.654  0.8125  0.7181  1.6969
 3886SOL    HW212054   5.777   1.430   6.593  0.6626 -1.4522 -0.6448
 3887SOL     OW12055   2.730   4.419   4.431 -0.0312  0.1752  0.3829
 3887SOL    HW112056   2.755   4.396   4.341 -0.0159  1.2671  0.0933
 3887SOL    HW212057   2.675   4.497   4.421 -2.5633 -1.4334  1.1058
 3888SOL     OW12058   5.628   6.166   6.025 -0.1184 -0.4191 -0.4525
 3888SOL    HW112059   5.544   6.150   5.982 -0.0721 -0.3808 -0.5549
 3888SOL    HW212060   5.616   6.132   6.114 -0.6884  0.8037 -0.0457
 3889SOL     OW12061   0.273   2.597   3.300  0.1103  0.1233 -0.1726
 3889SOL    HW112062   0.325   2.517   3.308 -0.8723 -0.4608  0.5371
 3889SOL    HW212063   0.338   2.667   3.291  1.0293 -0.9478 -3.4815
 3890SOL     OW12064   0.348   6.525   5.671 -0.2340  0.0712  0.1755
 3890SOL    HW112065   0.387   6.438   5.663  0.0465  0.0726  1.3621
 3890SOL    HW212066   0.280   6.514   5.738  0.8641  1.0822  1.5284
 3891SOL     OW12067   2.184   6.596   3.246 -0.1432  0.0146 -0.3135
 3891SOL    HW112068   2.091   6.606   3.226  0.1048  0.3387 -1.3464
 3891SOL    HW212069   2.188   6.594   3.341 -0.9876  2.2056 -0.1908
 3892SOL     OW12070   1.155   3.401   4.668  0.3803 -0.3370  0.2817
 3892SOL    HW112071   1.239   3.356   4.678 -0.0158 -1.8481 -2.2662
 3892SOL    HW212072   1.103   3.343   4.613 -1.7438  1.3557  0.3535
 3893SOL     OW12073   5.912   6.232   2.742  0.2782 -0.3686  0.6348
 3893SOL    HW112074   5.867   6.316   2.747 -0.9001 -1.0108  1.3308
 3893SOL    HW212075   5.932   6.210   2.833 -2.0009 -2.1253  0.8311
 3894SOL     OW12076   3.767   6.690   1.942 -0.3410 -0.0542 -0.1265
 3894SOL    HW112077   3.783   6.673   1.849 -1.0214 -1.0605 -0.0742
 3894SOL    HW212078   3.839   6.748   1.968  0.2485 -0.3104 -1.1074
 3895SOL     OW12079   5.022   3.832   0.587 -0.2512 -0.2044  0.4426
 3895SOL    HW112080   5.049   3.773   0.657  0.2929 -0.3046  0.1555
 3895SOL    HW212081   5.084   3.816   0.516 -1.3444 -0.7689 -0.4216
 3896SOL     OW12082   2.171   0.542   1.474 -0.0727 -0.1436  0.6728
 3896SOL    HW112083   2.143   0.464   1.523 -1.2891  0.9565  1.8118
 3896SOL    HW212084   2.213   0.598   1.539 -1.7366  1.3637  0.5439
 3897SOL     OW12085   3.671   5.998   0.780 -0.4006  0.5087 -0.1317
 3897SOL    HW112086   3.682   6.092   0.763  1.1426  0.2727 -0.6069
 3897SOL    HW212087   3.584   5.977   0.746 -0.0868  1.4276 -1.5774
 3898SOL     OW12088   1.184   5.274   6.059 -0.0987 -0.1478  0.2386
 3898SOL    HW112089   1.196   5.328   5.981 -0.3766  1.6272  1.3713
 3898SOL    HW212090   1.173   5.185   6.026  0.1584  0.5146 -1.7093
 3899SOL     OW12091   3.586   6.324   1.537 -0.6415  0.2636 -0.2879
 3899SOL    HW112092   3.515   6.344   1.476 -0.4230  0.9278 -0.3329
 3899SOL    HW212093   3.633   6.407   1.548  0.3896 -0.2474 -0.6013
 3900SOL     OW12094   5.762   5.127   0.391 -0.0336  0.4613  0.5611
 3900SOL    HW112095   5.781   5.210   0.436  0.6091  0.9071 -0.4831
 3900SOL    HW212096   5.784   5.144   0.299  1.1506 -1.1836  0.4948
 3901SOL     OW12097   4.236   6.344   0.482  0.4085  0.1106  0.7288
 3901SOL    HW112098   4.184   6.328   0.561 -0.3545  0.2597  0.2644
 3901SOL    HW212099   4.174   6.380   0.419  0.6487 -1.5246 -0.4981
 3902SOL     OW12100   4.237   0.152   0.766  0.6884 -0.2992 -0.6434
 3902SOL    HW112101   4.257   0.059   0.758 -2.4821 -1.0737 -0.6531
 3902SOL    HW212102   4.212   0.179   0.677  0.0277  0.1367 -0.3318
 3903SOL     OW12103   1.232   6.696   4.475 -0.4740 -0.3207 -0.7957
 3903SOL    HW112104   1.227   6.785   4.439 -0.5336 -0.4299 -1.0596
 3903SOL    HW212105   1.147   6.681   4.516  0.6343  1.0018  2.2556
 3904SOL     OW12106   0.248   1.930   4.637  0.3302 -0.2103 -0.9567
 3904SOL    HW112107   0.261   2.024   4.623 -0.1833  0.1384  0.6663
 3904SOL    HW212108   0.156   1.915   4.613 -0.0490  0.0418  0.2766
 3905SOL     OW12109   3.908   1.336   5.606 -0.1988 -0.0094  0.3758
 3905SOL    HW112110   3.840   1.355   5.670 -1.1880  0.3528 -0.7515
 3905SOL    HW212111   3.885   1.249   5.572 -0.3507  0.3044 -0.3239
 3906SOL     OW12112   6.286   6.157   3.131  0.3847 -0.2358 -0.9106
 3906SOL    HW112113   6.291   6.070   3.093  1.7922 -0.9681  0.7937
 3906SOL    HW212114   6.200   6.160   3.173  0.3582 -0.8340 -0.9162
 3907SOL     OW12115   0.084   3.071   6.704  0.4907  0.4119  0.4445
 3907SOL    HW112116   0.038   3.117   6.634  1.7999  0.2982 -0.5261
 3907SOL    HW212117   0.111   3.140   6.765  2.0580  0.9309 -0.7735
 3908SOL     OW12118   1.070   5.185   2.624 -0.0563  0.0887 -0.6580
 3908SOL    HW112119   1.048   5.184   2.717 -0.0970  1.6569 -0.6368
 3908SOL    HW212120   1.164   5.164   2.622  0.2390  1.2972 -0.1550
 3909SOL     OW12121   1.142   1.149   1.482  0.3433 -0.7553 -0.1490
 3909SOL    HW112122   1.229   1.185   1.466  0.9055 -0.9756  2.1687
 3909SOL    HW212123   1.109   1.198   1.557 -1.3841 -0.9680 -0.7285
 3910SOL     OW12124   3.232   1.026   1.942  0.3475 -0.4249  0.0622
 3910SOL    HW112125   3.294   0.967   1.899  0.3895 -1.1063  1.0234
 3910SOL    HW212126   3.283   1.065   2.013 -0.2052 -0.7004  0.6191
 3911SOL     OW12127   1.104   0.158   0.403  0.1760 -0.2796  0.0100
 3911SOL    HW112128   1.056   0.077   0.414  0.9539 -0.7132  0.2897
 3911SOL    HW212129   1.196   0.134   0.418  0.3379  0.7984  0.9136
 3912SOL     OW12130   5.395   2.324   1.742 -0.2643  0.4422  0.1958
 3912SOL    HW112131   5.409   2.333   1.836  0.6233 -1.5022  0.2985
 3912SOL    HW212132   5.348   2.242   1.732 -0.1808  0.5207 -1.0758
 3913SOL     OW12133   2.705   3.048   3.719 -0.1631 -0.5250 -0.0112
 3913SOL    HW112134   2.666   3.009   3.796  1.0565 -3.2238 -0.6477
 3913SOL    HW212135   2.706   3.142   3.738 -1.4795 -0.9132  2.4532
 3914SOL     OW12136   5.231   1.574   4.766  0.5681 -0.4270 -0.2950
 3914SOL    HW112137   5.284   1.498   4.742 -1.0489 -1.2128 -1.5394
 3914SOL    HW212138   5.206   1.557   4.857  1.4248 -0.6418 -0.0915
 3915SOL     OW12139   1.029   4.530   2.034  0.1355  0.2761 -0.2653
 3915SOL    HW112140   1.036   4.501   2.125 -2.8479  1.7451  0.5689
 3915SOL    HW212141   1.105   4.586   2.020  1.0883 -0.6363  1.0049
 3916SOL     OW12142   4.520   1.891   5.096 -0.1450 -0.1002 -0.5492
 3916SOL    HW112143   4.432   1.923   5.120 -0.1116 -1.2915  1.3566
 3916SOL    HW212144   4.504   1.831   5.023 -1.1371 -1.3124  0.6063
 3917SOL     OW12145   5.858   1.360   4.966  0.1351  0.0207  0.6494
 3917SOL    HW112146   5.794   1.370   5.036 -0.6778  0.3290 -0.1160
 3917SOL    HW212147   5.828   1.284   4.916  1.2515 -0.7923  1.1862
 3918SOL     OW12148   3.250   0.822   5.129 -0.4077 -0.4260 -0.0230
 3918SOL    HW112149   3.244   0.906   5.083  0.1950  0.4285  1.4062
 3918SOL    HW212150   3.265   0.758   5.059  0.6010  0.8257 -1.0045
 3919SOL     OW12151   6.295   3.462   5.855  0.3460  0.0963 -0.1969
 3919SOL    HW112152   6.200   3.459   5.844  0.3869 -0.1338 -0.4944
 3919SOL    HW212153   6.314   3.399   5.924  0.1442  1.1448  0.8575
 3920SOL     OW12154   0.203   3.932   4.626  0.4847  0.6731 -0.1557
 3920SOL    HW112155   0.198   3.857   4.567 -0.5223  0.8896 -0.3643
 3920SOL    HW212156   0.160   4.003   4.579 -1.0868  0.6416  1.1399
 3921SOL     OW12157   6.449   0.884   1.613 -0.5588  0.5979  0.0689
 3921SOL    HW112158   6.354   0.882   1.623 -0.3226 -0.5941  2.8850
 3921SOL    HW212159   6.479   0.947   1.678  0.6459 -0.0951  0.2087
 3922SOL     OW12160   4.646   2.629   5.323 -0.1218 -0.4073  0.1238
 3922SOL    HW112161   4.692   2.597   5.401 -0.1246 -0.8896 -0.0705
 3922SOL    HW212162   4.691   2.588   5.250 -0.0670  0.1113 -0.1363
 3923SOL     OW12163   6.737   1.130   1.932 -0.3861 -0.6761  0.2720
 3923SOL    HW112164   6.654   1.115   1.887 -1.3824 -0.8335  2.0775
 3923SOL    HW212165   6.749   1.225   1.928 -2.2640 -0.2611  2.5941
 3924SOL     OW12166   5.300   5.253   0.010  0.3687 -0.5303 -0.9297
 3924SOL    HW112167   5.208   5.271  -0.010  0.1112 -0.5789  0.1466
 3924SOL    HW212168   5.342   5.339   0.007 -0.1468 -0.1844  0.6395
 3925SOL     OW12169   5.485   1.005   6.609  0.3271 -0.1083  0.0982
 3925SOL    HW112170   5.425   1.044   6.673 -0.3879  0.8892 -1.1363
 3925SOL    HW212171   5.520   0.928   6.653 -2.2845 -1.0535  0.6794
 3926SOL     OW12172   5.687   5.417   0.012 -0.4315 -0.4572  0.4290
 3926SOL    HW112173   5.682   5.452  -0.077  1.4538 -0.8427  0.1212
 3926SOL    HW212174   5.656   5.488   0.068 -0.0375  0.4230 -0.4382
 3927SOL     OW12175   3.015   6.819   5.976 -0.0597 -0.4288  0.1973
 3927SOL    HW112176   3.022   6.914   5.980 -1.2436 -0.2763 -0.8071
 3927SOL    HW212177   3.039   6.797   5.886 -3.7048 -0.6128 -0.9158
 3928SOL     OW12178   6.293   6.468   0.444 -0.0318 -0.8513 -0.1968
 3928SOL    HW112179   6.204   6.443   0.470  0.1661 -1.1778  0.1624
 3928SOL    HW212180   6.338   6.487   0.526  0.1498 -0.4068 -0.3955
 3929SOL     OW12181   3.324   1.974   3.578 -0.2362 -0.2665  0.3833
 3929SOL    HW112182   3.366   1.955   3.494 -0.7681 -0.1266  0.0777
 3929SOL    HW212183   3.378   1.929   3.643  1.5910  1.6032  0.2514
 3930SOL     OW12184   0.212   2.071   2.093  0.1369  0.6343 -0.2999
 3930SOL    HW112185   0.168   1.994   2.059 -1.6488  0.3681  2.3389
 3930SOL    HW212186   0.145   2.139   2.095 -0.0227  0.5527  2.7091
 3931SOL     OW12187   6.003   2.320   5.724 -0.3918 -0.1476 -0.1564
 3931SOL    HW112188   5.971   2.347   5.810 -0.4692 -1.6106  0.3061
 3931SOL    HW212189   6.042   2.234   5.739  3.3472  1.2548 -0.7721
 3932SOL     OW12190   3.852   1.212   6.734  0.1208  0.1887 -0.4790
 3932SOL    HW112191   3.881   1.276   6.669 -0.3373  0.6810 -0.2112
 3932SOL    HW212192   3.822   1.266   6.808 -0.8906 -0.3240 -0.5095
 3933SOL     OW12193   3.018   2.248   0.676  0.1921 -0.3619  0.1952
 3933SOL    HW112194   3.007   2.268   0.583  0.2083 -0.0418  0.2594
 3933SOL    HW212195   3.111   2.264   0.694 -0.1326  1.2004  0.6336
 3934SOL     OW12196   4.586   4.690   6.030  0.3391  0.0918 -0.4986
 3934SOL    HW112197   4.673   4.661   6.058  0.0704  0.2131  0.5276
 3934SOL    HW212198   4.532   4.679   6.109 -0.3204  1.0513 -0.8074
 3935SOL     OW12199   6.461   2.448   3.416 -0.4472  0.0868 -0.2381
 3935SOL    HW112200   6.537   2.460   3.358 -0.5683  1.3626 -0.1724
 3935SOL    HW212201   6.450   2.533   3.458 -0.7487 -0.6384  1.2119
 3936SOL     OW12202   2.933   3.966   5.970 -0.1363  0.2373 -0.2558
 3936SOL    HW112203   2.971   3.886   5.934  1.6163  1.0163 -0.2242
 3936SOL    HW212204   2.841   3.944   5.984  0.2489 -1.6956 -0.4458
 3937SOL     OW12205   1.509   1.728   5.079  0.4858 -0.2623  0.2140
 3937SOL    HW112206   1.486   1.821   5.071 -1.8708 -0.7447  0.7696
 3937SOL    HW212207   1.462   1.685   5.007 -0.2818 -1.2819  1.2790
 3938SOL     OW12208   5.838   6.590   0.724 -0.5250 -0.5401  0.0585
 3938SOL    HW112209   5.889   6.647   0.781 -0.4866 -1.8456  1.3945
 3938SOL    HW212210   5.818   6.514   0.778 -1.0671 -1.5393 -1.4770
 3939SOL     OW12211   5.247   1.731   2.332  0.1886 -0.4135 -0.3397
 3939SOL    HW112212   5.261   1.637   2.327 -1.4282 -0.6573 -0.7321
 3939SOL    HW212213   5.202   1.753   2.250 -1.0517  0.3823  0.5133
 3940SOL     OW12214   4.384   6.813   5.448 -0.3569 -0.0269  0.1439
 3940SOL    HW112215   4.389   6.882   5.381 -2.2099 -0.0952 -0.1234
 3940SOL    HW212216   4.392   6.860   5.531 -0.4503  0.3747 -0.0707
 3941SOL     OW12217   2.573   4.280   4.894 -0.1531 -0.4498  0.2348
 3941SOL    HW112218   2.552   4.191   4.868  1.7601 -0.9697  0.2886
 3941SOL    HW212219   2.651   4.272   4.949  1.0292  1.3398 -1.0290
 3942SOL     OW12220   5.004   3.891   1.460 -0.8278  0.0603 -0.2836
 3942SOL    HW112221   5.090   3.912   1.423 -1.1419  1.5627 -0.2361
 3942SOL    HW212222   5.008   3.925   1.549 -1.3801 -0.1180 -0.1896
 3943SOL     OW12223   2.002   5.548   3.848 -0.3592 -0.2924  0.0347
 3943SOL    HW112224   2.068   5.617   3.862  0.8972 -1.1472 -1.3170
 3943SOL    HW212225   1.937   5.590   3.792  0.5353 -0.2378 -1.0070
 3944SOL     OW12226   2.924   1.348   5.075  0.7107 -0.1377  0.2798
 3944SOL    HW112227   2.910   1.422   5.017 -3.6173  1.1139  2.4814
 3944SOL    HW212228   2.911   1.271   5.020  4.2774  0.5575 -1.8256
 3945SOL     OW12229   5.860   5.154   6.771  0.1057 -0.2315  0.4696
 3945SOL    HW112230   5.805   5.093   6.820 -1.4124  1.0724  0.4524
 3945SOL    HW212231   5.862   5.118   6.682 -0.8735 -0.2218  0.4342
 3946SOL     OW12232   3.771   1.215   2.712  0.5805 -0.5728 -0.1286
 3946SOL    HW112233   3.864   1.197   2.727  0.4502 -0.9028  0.2896
 3946SOL    HW212234   3.738   1.245   2.797  0.3192 -0.3896 -0.2927
 3947SOL     OW12235   4.701   0.548   0.168 -0.1186 -0.1221 -0.2792
 3947SOL    HW112236   4.641   0.622   0.173  0.1399  0.2131 -1.5539
 3947SOL    HW212237   4.649   0.477   0.130 -0.0558 -0.2188 -0.1843
 3948SOL     OW12238   5.979   3.463   2.598 -0.1462  0.6242 -0.6152
 3948SOL    HW112239   5.935   3.378   2.604  1.8345 -0.4311 -0.1346
 3948SOL    HW212240   5.955   3.496   2.512 -0.0509 -0.9629 -1.2852
 3949SOL     OW12241   5.932   4.827   0.000 -1.3756  0.2669 -0.0625
 3949SOL    HW112242   5.868   4.894  -0.022 -0.6941  1.3511  1.0869
 3949SOL    HW212243   6.017   4.870  -0.010 -0.8931 -0.5933  0.1805
 3950SOL     OW12244   2.508   1.095   0.876 -0.1156 -0.1644 -0.3956
 3950SOL    HW112245   2.427   1.065   0.916 -1.2215  0.9343 -1.6914
 3950SOL    HW212246   2.557   1.015   0.858 -0.6826 -0.8204  0.8305
 3951SOL     OW12247   0.312   1.402   4.556  0.0776  0.1176 -0.3201
 3951SOL    HW112248   0.283   1.489   4.583 -0.4557  0.1049 -0.8299
 3951SOL    HW212249   0.293   1.346   4.632 -0.2072  0.3191 -0.2385
 3952SOL     OW12250   3.380   4.164   4.605  0.3729 -0.6632  0.1307
 3952SOL    HW112251   3.396   4.206   4.690  2.4243  0.2611 -0.6460
 3952SOL    HW212252   3.292   4.192   4.580  0.5260  0.7182  1.0395
 3953SOL     OW12253   4.805   6.567   1.121 -0.5729 -1.0216 -0.2984
 3953SOL    HW112254   4.894   6.564   1.155 -0.7896 -3.4186  0.2527
 3953SOL    HW212255   4.759   6.629   1.177 -0.0195 -2.1897  1.5281
 3954SOL     OW12256   3.987   0.785   4.523 -0.3529  0.1630 -0.0498
 3954SOL    HW112257   3.938   0.741   4.592  1.9838 -0.3033  1.4512
 3954SOL    HW212258   4.017   0.866   4.563  1.9490 -0.6053 -0.0762
 3955SOL     OW12259   2.480   6.368   2.492  0.0892 -0.0692  0.6487
 3955SOL    HW112260   2.509   6.277   2.480  0.3190  0.1674 -0.7713
 3955SOL    HW212261   2.387   6.367   2.470 -0.2806 -0.2299  2.1304
 3956SOL     OW12262   4.406   3.800   0.343 -0.2018 -0.3928 -0.8958
 3956SOL    HW112263   4.359   3.740   0.401 -1.8853  1.7505  0.0768
 3956SOL    HW212264   4.343   3.825   0.276  0.3763  0.4490 -1.1486
 3957SOL     OW12265   4.792   1.671   6.939 -0.4170 -0.1066 -0.0188
 3957SOL    HW112266   4.814   1.588   6.981 -2.1558 -0.4926  0.2202
 3957SOL    HW212267   4.776   1.731   7.011  0.0162  0.2064 -0.1808
 3958SOL     OW12268   6.740   4.106   0.709  0.1372 -0.1014  0.6947
 3958SOL    HW112269   6.736   4.185   0.761 -1.1175  0.0900  0.3408
 3958SOL    HW212270   6.827   4.107   0.670  0.7996  0.1560  2.1177
 3959SOL     OW12271   6.189   2.089   2.090  0.3621  0.4420  0.3977
 3959SOL    HW112272   6.123   2.152   2.064 -1.3632 -0.9295  1.2176
 3959SOL    HW212273   6.174   2.076   2.184  1.0458 -0.7142  0.3699
 3960SOL     OW12274   0.333   3.846   3.035 -0.0740  0.5573  0.1878
 3960SOL    HW112275   0.270   3.858   2.964  2.0249  1.6224 -1.6324
 3960SOL    HW212276   0.347   3.934   3.069  1.7805  0.6896 -0.7649
 3961SOL     OW12277   5.728   1.075   0.921  0.1243 -0.0577 -0.1509
 3961SOL    HW112278   5.637   1.075   0.950 -0.0709 -1.6560 -0.6746
 3961SOL    HW212279   5.741   1.163   0.886 -1.3294  0.1071 -0.3737
 3962SOL     OW12280   1.679   1.993   2.429  0.0255  0.4446  0.2237
 3962SOL    HW112281   1.589   2.004   2.398  0.3001  2.2101 -0.0387
 3962SOL    HW212282   1.681   1.905   2.467 -1.6035  0.0931 -0.4308
 3963SOL     OW12283   6.124   6.749   5.482 -0.3701  0.2516 -0.2611
 3963SOL    HW112284   6.211   6.780   5.454 -0.1298  1.1420  1.3125
 3963SOL    HW212285   6.068   6.827   5.477 -0.3761  0.3860  1.3573
 3964SOL     OW12286   2.200   5.961   0.292 -0.7113 -0.1422 -0.2761
 3964SOL    HW112287   2.186   5.949   0.198  0.4025 -0.8756 -0.3644
 3964SOL    HW212288   2.168   6.049   0.310  1.3504  0.9955 -1.8391
 3965SOL     OW12289   5.026   6.658   4.820 -0.5995 -0.4089  0.0131
 3965SOL    HW112290   5.097   6.691   4.765 -0.6974  0.4979  0.4062
 3965SOL    HW212291   5.051   6.568   4.840  1.0002  0.2135  1.0320
 3966SOL     OW12292   5.708   5.514   4.109 -0.6012  0.5685  0.0017
 3966SOL    HW112293   5.759   5.536   4.188 -1.7001  0.1108  0.8702
 3966SOL    HW212294   5.703   5.596   4.060  1.1981  0.5533 -0.2567
 3967SOL     OW12295   0.836   3.578   1.546  0.1009 -0.3045 -0.0444
 3967SOL    HW112296   0.772   3.647   1.530 -0.7002 -0.9641  0.1871
 3967SOL    HW212297   0.921   3.622   1.545 -0.5463  1.4704  3.9470
 3968SOL     OW12298   0.323   2.960   2.713  0.3583 -0.0950  0.4041
 3968SOL    HW112299   0.395   3.009   2.674 -0.2105  0.3522 -0.0887
 3968SOL    HW212300   0.295   3.013   2.787  0.5934 -0.3244  0.6654
 3969SOL     OW12301   4.666   3.569   3.102  0.1399  0.0630  0.5475
 3969SOL    HW112302   4.692   3.486   3.063  2.0811  0.8130  0.1383
 3969SOL    HW212303   4.643   3.547   3.192  0.9392 -0.8757  0.5334
 3970SOL     OW12304   3.405   5.756   2.154 -0.0971 -0.3765 -0.7535
 3970SOL    HW112305   3.486   5.775   2.203  0.2581  0.6908 -1.7299
 3970SOL    HW212306   3.400   5.824   2.088 -2.4732  0.3248  0.0586
 3971SOL     OW12307   6.449   0.177   2.201 -0.6021  0.5631  0.2924
 3971SOL    HW112308   6.522   0.155   2.142  0.1671  3.2945  0.0902
 3971SOL    HW212309   6.383   0.110   2.182 -0.2739  1.0533 -3.5128
 3972SOL     OW12310   6.497   2.753   1.708  0.2657 -0.5043 -0.3861
 3972SOL    HW112311   6.544   2.784   1.785  0.3284 -1.5997  0.0265
 3972SOL    HW212312   6.489   2.831   1.652  2.2623 -0.1992 -0.3329
 3973SOL     OW12313   0.999   1.488   4.415  0.5252 -0.6688 -0.2122
 3973SOL    HW112314   1.017   1.581   4.397  0.7543 -0.6708 -0.0167
 3973SOL    HW212315   1.030   1.442   4.337 -1.0580 -0.4536 -0.9890
 3974SOL     OW12316   0.270   1.405   2.873  0.1357  1.0149 -0.0282
 3974SOL    HW112317   0.195   1.356   2.905  0.4043  1.6291  1.6552
 3974SOL    HW212318   0.311   1.348   2.809 -0.7721 -0.0547  0.3147
 3975SOL     OW12319   0.627   1.884   3.326  0.2911  0.2783 -0.6540
 3975SOL    HW112320   0.651   1.976   3.312 -1.3332  0.5990 -1.6363
 3975SOL    HW212321   0.676   1.836   3.261  1.5207  0.3661  0.1769
 3976SOL     OW12322   1.284   4.644   2.090  0.1123  0.7672 -0.2764
 3976SOL    HW112323   1.250   4.697   2.162  1.3973  0.1944  0.8079
 3976SOL    HW212324   1.379   4.658   2.093  0.8188 -3.0441  1.3992
 3977SOL     OW12325   3.318   3.308   5.220 -0.1524  0.0402  0.5293
 3977SOL    HW112326   3.392   3.364   5.197  0.5012 -0.8858  0.3090
 3977SOL    HW212327   3.349   3.219   5.202 -2.5036 -0.2745 -3.0503
 3978SOL     OW12328   5.771   1.156   4.722  0.2180  0.2700 -0.3877
 3978SOL    HW112329   5.677   1.173   4.734  0.1063 -0.6794  0.1229
 3978SOL    HW212330   5.775   1.080   4.664  0.6567 -0.1486  0.1818
 3979SOL     OW12331   5.368   3.848   3.393  0.5285 -0.5303 -0.1397
 3979SOL    HW112332   5.278   3.819   3.403  0.1357  0.7838  0.3767
 3979SOL    HW212333   5.402   3.796   3.320 -0.5115 -1.3210 -0.0881
 3980SOL     OW12334   2.810   3.857   4.242 -0.0297 -0.3464  0.6222
 3980SOL    HW112335   2.857   3.793   4.189 -0.2909 -0.6987  0.8162
 3980SOL    HW212336   2.874   3.926   4.259  0.7948 -1.3930  1.9197
 3981SOL     OW12337   1.291   3.804   3.635 -0.4014  0.0988  0.0062
 3981SOL    HW112338   1.348   3.822   3.560  0.0418 -0.5529  0.1714
 3981SOL    HW212339   1.342   3.833   3.711 -0.2026 -0.6524  0.1698
 3982SOL     OW12340   6.064   5.788   0.030 -0.1057 -0.0440  0.7613
 3982SOL    HW112341   6.128   5.857   0.051  0.5222 -0.5776  0.6587
 3982SOL    HW212342   5.990   5.835  -0.007  0.7182  0.5020 -0.2586
 3983SOL     OW12343   6.643   5.038   3.451  0.6410  0.2686 -0.3204
 3983SOL    HW112344   6.599   4.966   3.497 -0.0383 -0.4821 -2.0405
 3983SOL    HW212345   6.694   4.995   3.383  1.7795  1.3285 -0.1655
 3984SOL     OW12346   2.767   0.048   6.598  0.2658 -0.3521 -0.3253
 3984SOL    HW112347   2.678   0.078   6.614  0.1465 -0.6038 -0.4948
 3984SOL    HW212348   2.756  -0.039   6.559  0.6265 -1.2050  1.4045
 3985SOL     OW12349   1.545   2.996   2.249  0.6648  0.0897 -0.0844
 3985SOL    HW112350   1.466   2.985   2.302  1.1540 -3.5368  0.1921
 3985SOL    HW212351   1.565   3.089   2.253 -2.1427  0.7160  1.9417
 3986SOL     OW12352   1.395   5.423   4.339  0.0286  0.0020  0.1093
 3986SOL    HW112353   1.355   5.368   4.272  1.2942  0.6485 -1.2574
 3986SOL    HW212354   1.483   5.388   4.350  0.5450  1.1733 -0.1190
 3987SOL     OW12355   0.649   3.776   5.835 -0.3434 -0.2130  0.0231
 3987SOL    HW112356   0.563   3.803   5.802  0.0313 -0.5248 -1.2773
 3987SOL    HW212357   0.691   3.734   5.760 -0.4656 -3.4191  1.5736
 3988SOL     OW12358   0.945   5.899   2.022 -0.3691  0.0700 -0.2730
 3988SOL    HW112359   0.978   5.934   1.939 -0.4655  0.7254 -0.0390
 3988SOL    HW212360   0.855   5.872   2.004  0.4202 -2.2576 -1.0701
 3989SOL     OW12361   4.050   6.748   1.975 -0.4454  0.7156  0.1135
 3989SOL    HW112362   4.138   6.771   1.943 -0.1277 -0.2860  0.2344
 3989SOL    HW212363   4.043   6.654   1.961 -0.8020  0.4613  1.7755
 3990SOL     OW12364   5.051   2.157   5.345 -0.2449  0.7180 -0.2238
 3990SOL    HW112365   5.091   2.235   5.384  0.9118  0.0780 -0.1049
 3990SOL    HW212366   5.125   2.107   5.310 -0.3306 -2.6516  3.7339
 3991SOL     OW12367   3.500   3.903   1.532  0.1727  0.5921 -0.2522
 3991SOL    HW112368   3.415   3.914   1.574  0.4635 -0.3976  0.6328
 3991SOL    HW212369   3.509   3.809   1.520  1.5472  0.5866  0.5415
 3992SOL     OW12370   2.429   0.183   5.637  0.0913  0.0630  0.6944
 3992SOL    HW112371   2.442   0.113   5.573 -0.9283 -0.5718  1.1604
 3992SOL    HW212372   2.503   0.242   5.622  1.5046 -1.5600  0.8845
 3993SOL     OW12373   4.567   6.763   0.781 -0.1379  0.2755  0.5122
 3993SOL    HW112374   4.596   6.784   0.869  1.9291 -0.0006 -0.0483
 3993SOL    HW212375   4.474   6.785   0.780  0.2604  2.3516  2.1185
 3994SOL     OW12376   1.845   1.076   6.894  0.4417  0.3457  0.4718
 3994SOL    HW112377   1.837   1.097   6.987 -0.8755  0.3848  0.3584
 3994SOL    HW212378   1.816   0.985   6.887  0.0907  0.4892  0.0305
 3995SOL     OW12379   0.302   5.132   3.862  0.1040  0.1660 -0.4133
 3995SOL    HW112380   0.248   5.193   3.912  2.1983  1.9001 -0.0883
 3995SOL    HW212381   0.321   5.061   3.924 -1.3291 -0.2352 -0.3912
 3996SOL     OW12382   3.708   5.437   2.586  0.0650 -0.0035 -0.0224
 3996SOL    HW112383   3.626   5.394   2.564  0.4079 -0.5909 -0.1665
 3996SOL    HW212384   3.735   5.398   2.669  0.6261 -0.4349 -0.3967
 3997SOL     OW12385   1.930   1.450   2.104 -0.1887  0.7253  0.0916
 3997SOL    HW112386   1.924   1.544   2.085 -4.0592  0.1883 -2.7415
 3997SOL    HW212387   1.840   1.424   2.123  0.7422 -2.4461  0.7590
 3998SOL     OW12388   2.501   2.861   1.066  0.5659 -0.3452  0.3030
 3998SOL    HW112389   2.529   2.950   1.047 -0.4615  0.1902  1.1782
 3998SOL    HW212390   2.447   2.869   1.145  1.2252 -1.8790  0.9402
 3999SOL     OW12391   5.012   1.553   3.093  0.4179 -0.5704  0.4551
 3999SOL    HW112392   5.052   1.616   3.033  0.3943 -1.1021 -0.1334
 3999SOL    HW212393   4.989   1.479   3.037 -2.4614  0.1549  0.5078
 4000SOL     OW12394   6.330   1.845   3.935  0.2537  0.0673  0.6464
 4000SOL    HW112395   6.346   1.867   3.843 -2.5398 -0.4559 -0.0526
 4000SOL    HW212396   6.266   1.774   3.932 -1.4903  1.4065  3.0014
 4001SOL     OW12397   5.592   5.280   2.949  0.9433  0.1417 -0.4703
 4001SOL    HW112398   5.636   5.362   2.972  1.6732  0.7920 -3.7508
 4001SOL    HW212399   5.657   5.212   2.969  2.0164  0.7696 -1.6832
 4002SOL     OW12400   3.780   4.732   0.884 -0.1892  0.1255 -0.5203
 4002SOL    HW112401   3.755   4.686   0.964 -2.2399  1.1446 -0.5021
 4002SOL    HW212402   3.845   4.797   0.913 -0.6432  0.2477  0.2760
 4003SOL     OW12403   1.072   1.463   0.685  0.0869 -0.0504  0.0579
 4003SOL    HW112404   1.130   1.390   0.666 -0.5343 -1.0159  1.6359
 4003SOL    HW212405   1.130   1.538   0.696  0.8211 -0.5131 -0.5917
 4004SOL     OW12406   2.989   5.186   4.673  0.2039 -0.3843 -0.1848
 4004SOL    HW112407   3.048   5.113   4.657  2.3220  1.3745 -0.8127
 4004SOL    HW212408   3.007   5.213   4.763  0.5122  0.2794 -0.4396
 4005SOL     OW12409   0.206   3.704   4.509 -0.2024  0.2889  0.3144
 4005SOL    HW112410   0.227   3.614   4.486  1.4091  0.9980 -1.2637
 4005SOL    HW212411   0.148   3.733   4.439  1.1473  1.1209 -0.5170
 4006SOL     OW12412   5.874   3.246   0.648  0.0116  0.1549  0.9456
 4006SOL    HW112413   5.840   3.335   0.660 -0.5593 -0.0342  0.7675
 4006SOL    HW212414   5.916   3.248   0.562 -1.7981 -0.2751 -0.0007
 4007SOL     OW12415   5.408   4.585   3.281 -0.1050 -0.1909 -0.4880
 4007SOL    HW112416   5.386   4.502   3.324 -0.2286 -0.1067 -0.3880
 4007SOL    HW212417   5.486   4.617   3.328 -0.8171  0.3961  0.3428
 4008SOL     OW12418   0.995   6.536   3.476 -0.5323 -0.2883 -0.3274
 4008SOL    HW112419   1.059   6.571   3.414 -1.8094  0.8905 -1.0272
 4008SOL    HW212420   0.997   6.596   3.550  0.3749 -1.2214  0.4392
 4009SOL     OW12421   2.749   4.813   0.428 -0.3838  0.5665 -0.3214
 4009SOL    HW112422   2.827   4.760   0.414 -0.7148  0.3162 -1.3313
 4009SOL    HW212423   2.769   4.866   0.505  0.3227 -0.3344  0.1329
 4010SOL     OW12424   6.132   2.578   3.239 -0.0782 -0.0547 -0.1431
 4010SOL    HW112425   6.136   2.539   3.327 -0.1139 -1.9891 -0.9552
 4010SOL    HW212426   6.045   2.618   3.236 -0.1844 -0.1995  0.6171
 4011SOL     OW12427   6.282   4.166   2.379  0.0743  0.4511  0.0561
 4011SOL    HW112428   6.306   4.215   2.301 -1.0318 -1.0406 -1.2821
 4011SOL    HW212429   6.358   4.111   2.398  1.1768  2.3100  1.3476
 4012SOL     OW12430   1.162   5.060   4.093  0.2414  0.1407 -0.4102
 4012SOL    HW112431   1.087   5.072   4.034 -0.8748  0.7367  1.0804
 4012SOL    HW212432   1.167   4.965   4.105  1.2442 -0.1101 -2.3546
 4013SOL     OW12433   6.629   5.036   2.125 -0.4924  0.6296 -0.0980
 4013SOL    HW112434   6.588   5.093   2.190  0.8916  1.6644 -0.0657
 4013SOL    HW212435   6.679   4.972   2.177 -0.2218  0.8124 -0.1295
 4014SOL     OW12436   5.812   5.053   1.412 -0.2732 -0.1194 -0.5942
 4014SOL    HW112437   5.719   5.032   1.420 -0.6359  1.2217 -0.9997
 4014SOL    HW212438   5.856   4.968   1.403 -1.4636 -0.7560 -0.5320
 4015SOL     OW12439   1.252   0.084   3.339  0.1247 -0.5554  0.4074
 4015SOL    HW112440   1.197   0.032   3.397 -0.2430  1.1836  1.7094
 4015SOL    HW212441   1.338   0.044   3.345 -0.4207 -1.7793  0.3327
 4016SOL     OW12442   6.564   5.833   5.574  0.1756 -0.0304  0.1770
 4016SOL    HW112443   6.470   5.842   5.584  0.1071  0.1688 -0.5615
 4016SOL    HW212444   6.601   5.870   5.654 -0.3199  1.3313 -0.2112
 4017SOL     OW12445   5.475   4.311   6.584 -0.0631 -0.5588 -0.2104
 4017SOL    HW112446   5.538   4.240   6.569  1.0427  0.4379 -0.4349
 4017SOL    HW212447   5.446   4.336   6.496  0.0669 -0.2855 -0.1763
 4018SOL     OW12448   3.175   6.381   1.173 -0.2911 -0.1749  0.6530
 4018SOL    HW112449   3.105   6.391   1.238 -0.7592  3.0755 -0.1817
 4018SOL    HW212450   3.255   6.404   1.220 -0.1954 -0.7874  0.8019
 4019SOL     OW12451   2.535   5.270   1.191 -0.2173 -0.0013 -0.0256
 4019SOL    HW112452   2.521   5.222   1.110  0.9040 -2.4525  1.1389
 4019SOL    HW212453   2.447   5.280   1.229 -0.6717  0.6195 -1.2093
 4020SOL     OW12454   0.729   6.293   1.246  0.1106  0.3778 -0.2855
 4020SOL    HW112455   0.702   6.382   1.226 -2.0382 -0.0756  0.2967
 4020SOL    HW212456   0.652   6.239   1.225  0.3638 -0.9943  1.8919
 4021SOL     OW12457   5.698   5.325   3.619  0.2354 -0.5631  0.2175
 4021SOL    HW112458   5.634   5.255   3.634 -0.3892 -0.2168 -0.6947
 4021SOL    HW212459   5.719   5.318   3.526  1.0489 -0.2666  0.3740
 4022SOL     OW12460   3.807   4.346   4.674  0.1129  0.0510 -0.0881
 4022SOL    HW112461   3.890   4.382   4.644  0.0676 -0.3815 -0.7616
 4022SOL    HW212462   3.746   4.419   4.670  0.2760  0.1750 -0.3781
 4023SOL     OW12463   5.300   6.273   4.408 -0.1634  0.4785 -0.0922
 4023SOL    HW112464   5.390   6.272   4.376 -0.2047  0.8209 -0.2120
 4023SOL    HW212465   5.263   6.355   4.376 -0.3161  0.6503  0.5114
 4024SOL     OW12466   3.955   3.627   0.989  0.3847  0.2582 -0.5063
 4024SOL    HW112467   3.911   3.570   1.052 -0.4286 -0.0375 -1.3237
 4024SOL    HW212468   3.999   3.692   1.043  2.4802 -1.8734  0.5576
 4025SOL     OW12469   5.599   6.862   0.441 -0.2913  1.4764  0.0681
 4025SOL    HW112470   5.636   6.790   0.492  1.2368  1.0290 -1.5517
 4025SOL    HW212471   5.560   6.819   0.365 -0.1163  2.2982 -0.4905
 4026SOL     OW12472   3.358   0.998   0.164  0.0825 -0.0394  0.3857
 4026SOL    HW112473   3.407   0.924   0.198 -3.4364 -2.5196  0.5953
 4026SOL    HW212474   3.368   0.992   0.069 -1.2313 -1.7236  0.3071
 4027SOL     OW12475   0.610   1.022   4.269  0.2968  0.2601  0.0158
 4027SOL    HW112476   0.664   1.012   4.348 -2.0682 -0.1307  1.7061
 4027SOL    HW212477   0.601   1.117   4.258  0.4560  0.3220  0.3902
 4028SOL     OW12478   1.605   0.220   2.875  0.1909  0.1118  0.7310
 4028SOL    HW112479   1.610   0.275   2.797 -0.2434 -2.6242 -1.3471
 4028SOL    HW212480   1.511   0.204   2.887  0.3838 -1.6266  0.1542
 4029SOL     OW12481   0.306   0.348   3.186 -0.6762  0.1420  0.7095
 4029SOL    HW112482   0.236   0.284   3.193 -0.2884 -0.4969 -0.9124
 4029SOL    HW212483   0.262   0.430   3.164 -0.8509 -0.5593 -1.7653
 4030SOL     OW12484   5.620   5.594   3.009  0.3403 -0.1390  0.1164
 4030SOL    HW112485   5.525   5.606   3.013  0.2215 -1.1095  0.3806
 4030SOL    HW212486   5.655   5.683   3.002 -0.5596  0.2669  0.5878
 4031SOL     OW12487   3.716   2.455   1.253 -0.0591  0.7910  0.2905
 4031SOL    HW112488   3.746   2.537   1.214 -0.3135  0.6683 -0.1751
 4031SOL    HW212489   3.766   2.388   1.207  1.8287  0.7673  2.2168
 4032SOL     OW12490   3.809   5.373   4.925 -0.1718  0.2618 -0.3068
 4032SOL    HW112491   3.745   5.302   4.916  0.0109 -0.0067  0.4058
 4032SOL    HW212492   3.861   5.369   4.845 -0.6806  0.1160 -0.6384
 4033SOL     OW12493   4.625   1.299   3.863 -0.0902  0.7467  0.3364
 4033SOL    HW112494   4.582   1.377   3.897 -0.0930  0.4887  0.9427
 4033SOL    HW212495   4.624   1.237   3.937 -0.4899  0.0166 -0.2629
 4034SOL     OW12496   4.818   6.773   2.530  0.2311 -0.2515 -0.2024
 4034SOL    HW112497   4.782   6.686   2.550 -0.0122 -0.1465 -0.1782
 4034SOL    HW212498   4.873   6.794   2.605  0.2786 -0.3798 -0.2010
 4035SOL     OW12499   5.986   0.856   2.109  0.1064  0.1477 -0.4170
 4035SOL    HW112500   5.987   0.951   2.097 -1.5231  0.3500  0.7172
 4035SOL    HW212501   6.027   0.822   2.030  0.2273  1.7678 -1.1032
 4036SOL     OW12502   2.374   0.678   6.712 -0.1742 -0.1782  0.0714
 4036SOL    HW112503   2.370   0.693   6.806 -1.0804 -1.7500  0.3297
 4036SOL    HW212504   2.451   0.727   6.682  0.9209 -0.7384  1.8429
 4037SOL     OW12505   0.382   0.083   5.788 -0.4437  0.3820  0.5575
 4037SOL    HW112506   0.471   0.106   5.759 -0.2219 -0.7099  0.3314
 4037SOL    HW212507   0.328   0.157   5.760  0.2547  0.6777 -0.0569
 4038SOL     OW12508   3.610   1.928   4.307  0.2929 -0.5495  0.5075
 4038SOL    HW112509   3.554   1.961   4.237  0.3815  0.6708  0.9814
 4038SOL    HW212510   3.641   1.844   4.275  0.1399 -0.1316 -0.8206
 4039SOL     OW12511   5.860   0.187   4.500  0.0166 -0.1065  0.3783
 4039SOL    HW112512   5.773   0.226   4.501 -0.2187 -0.6035  1.7830
 4039SOL    HW212513   5.898   0.214   4.416 -1.7247 -0.4263 -0.5644
 4040SOL     OW12514   6.227   1.043   5.848  0.6771  0.5125  0.0771
 4040SOL    HW112515   6.196   1.091   5.771  1.1864 -1.3934 -1.3844
 4040SOL    HW212516   6.155   1.050   5.912 -0.5702  0.5298 -1.2884
 4041SOL     OW12517   2.630   3.232   1.237 -0.2526 -0.5913  0.0285
 4041SOL    HW112518   2.673   3.195   1.160  0.6218  0.8209 -0.1824
 4041SOL    HW212519   2.670   3.186   1.311 -0.4493 -1.3068 -0.2968
 4042SOL     OW12520   4.859   4.395   0.031  0.0974  0.0462 -0.8236
 4042SOL    HW112521   4.808   4.458  -0.022  0.5270 -0.4020 -1.8030
 4042SOL    HW212522   4.950   4.418   0.014  0.2537  0.4865  0.4895
 4043SOL     OW12523   6.232   0.765   5.228  0.1474 -0.1681  0.2772
 4043SOL    HW112524   6.245   0.786   5.135 -2.0893 -2.9201 -0.8124
 4043SOL    HW212525   6.163   0.823   5.257 -0.0928 -0.2161 -0.1951
 4044SOL     OW12526   0.258   4.602   6.345  0.0185  0.4562 -0.1729
 4044SOL    HW112527   0.241   4.621   6.438  0.0781  2.1151 -0.4790
 4044SOL    HW212528   0.333   4.541   6.347 -0.7487 -0.5071  0.8874
 4045SOL     OW12529   1.220   5.199   1.771  0.1075 -0.6454 -0.5300
 4045SOL    HW112530   1.236   5.191   1.865  0.1814 -0.0525 -0.4886
 4045SOL    HW212531   1.125   5.190   1.762 -0.0514  0.6030 -0.2482
 4046SOL     OW12532   2.647   3.208   2.627 -0.3795 -0.7124 -0.2904
 4046SOL    HW112533   2.694   3.240   2.550 -1.0068  0.6737 -0.1325
 4046SOL    HW212534   2.568   3.166   2.592 -0.2412 -0.8492 -0.4380
 4047SOL     OW12535   2.067   4.512   3.628  0.2853 -0.5029 -0.0654
 4047SOL    HW112536   2.111   4.431   3.653  0.5071 -0.8607 -1.5271
 4047SOL    HW212537   1.985   4.484   3.589 -0.0973  0.0330  0.3433
 4048SOL     OW12538   2.150   2.114   4.871  0.3331 -0.3916 -0.2634
 4048SOL    HW112539   2.176   2.081   4.785  0.7048 -2.0258  0.4395
 4048SOL    HW212540   2.230   2.111   4.924 -0.2633 -1.0884  0.6293
 4049SOL     OW12541   2.210   3.179   3.835  0.2451  0.1644 -0.4983
 4049SOL    HW112542   2.214   3.113   3.766  1.4502 -0.1018 -0.2022
 4049SOL    HW212543   2.244   3.259   3.795 -0.1944  0.3244 -0.5530
 4050SOL     OW12544   0.730   0.398   4.373 -0.3237 -0.1413  0.4401
 4050SOL    HW112545   0.703   0.458   4.443  0.8213  1.9770 -0.8465
 4050SOL    HW212546   0.824   0.413   4.364 -0.4011 -0.5867 -1.3467
 4051SOL     OW12547   0.611   6.207   2.352 -0.2291 -0.2161  0.5436
 4051SOL    HW112548   0.686   6.242   2.304 -0.1254 -0.8284  0.2552
 4051SOL    HW212549   0.639   6.119   2.379  1.1055  1.2591  4.7344
 4052SOL     OW12550   6.840   2.412   4.269 -0.1250  0.4076 -0.2300
 4052SOL    HW112551   6.808   2.501   4.285 -0.4256  0.1695  0.5601
 4052SOL    HW212552   6.898   2.421   4.193 -1.3538  1.0038 -1.1246
 4053SOL     OW12553   4.558   0.782   0.216 -0.7343 -0.0824  0.0514
 4053SOL    HW112554   4.605   0.819   0.290 -0.6579 -0.4079  0.1705
 4053SOL    HW212555   4.497   0.851   0.188  0.3702  0.6455 -0.6312
 4054SOL     OW12556   0.672   5.958   2.958 -0.0591 -0.0533  0.4861
 4054SOL    HW112557   0.614   5.954   3.034 -0.4952  0.3113  0.1804
 4054SOL    HW212558   0.665   5.872   2.918 -0.8444  0.1621  0.1301
 4055SOL     OW12559   3.676   5.130   4.888 -0.1564 -0.1967 -0.5635
 4055SOL    HW112560   3.717   5.098   4.807  0.2312 -1.5829  0.1521
 4055SOL    HW212561   3.598   5.075   4.898 -0.1970 -0.0350  0.0064
 4056SOL     OW12562   0.253   3.169   4.589  0.0188  0.3701 -0.6321
 4056SOL    HW112563   0.269   3.112   4.664  1.6621  1.8011  0.1777
 4056SOL    HW212564   0.268   3.112   4.513  1.2269 -0.4051  0.1461
 4057SOL     OW12565   1.169   0.324   4.527 -0.4096 -0.0513 -0.0482
 4057SOL    HW112566   1.243   0.384   4.520 -1.3222  1.2426  1.1411
 4057SOL    HW212567   1.109   0.353   4.459  0.1623 -1.1663 -1.0819
 4058SOL     OW12568   1.218   3.596   2.652 -0.3614  0.3663 -0.3288
 4058SOL    HW112569   1.254   3.680   2.623 -0.7230  0.6983  0.1860
 4058SOL    HW212570   1.129   3.595   2.617 -0.5242  0.4142  0.0842
 4059SOL     OW12571   4.747   5.476   0.935  0.1985 -0.3439  0.0625
 4059SOL    HW112572   4.749   5.544   0.868  2.3236 -1.8708 -1.5599
 4059SOL    HW212573   4.776   5.521   1.015  2.1211  0.5956 -1.0938
 4060SOL     OW12574   3.663   0.661   5.996 -0.3118 -0.8802 -0.1709
 4060SOL    HW112575   3.644   0.747   5.959 -0.6582 -1.6152 -1.8028
 4060SOL    HW212576   3.576   0.624   6.017 -0.1681 -0.8549  0.5007
 4061SOL     OW12577   0.649   2.988   4.814  0.2586  0.2477  0.4888
 4061SOL    HW112578   0.637   2.991   4.909 -0.0391 -1.7742  0.5433
 4061SOL    HW212579   0.688   2.903   4.796  0.5717  0.6990 -1.1969
 4062SOL     OW12580   5.378   0.072   3.680  0.4108 -0.1506  0.0389
 4062SOL    HW112581   5.351   0.133   3.749 -0.2644  1.4756 -1.5638
 4062SOL    HW212582   5.308   0.007   3.678 -0.8278  1.1404 -0.6535
 4063SOL     OW12583   4.170   2.082   4.486  0.4153  0.0695 -0.7802
 4063SOL    HW112584   4.182   2.164   4.438  0.7560  0.5453  0.0911
 4063SOL    HW212585   4.219   2.095   4.567 -1.1673 -0.2155  0.2602
 4064SOL     OW12586   1.166   2.985   2.063 -0.5727  0.3611  0.7601
 4064SOL    HW112587   1.203   3.064   2.102 -0.4742 -0.0297  1.4987
 4064SOL    HW212588   1.115   3.015   1.989 -0.7561  1.1436  1.1960
 4065SOL     OW12589   4.730   5.040   1.724  0.0079  0.5841  0.0377
 4065SOL    HW112590   4.649   5.086   1.747 -0.7509 -1.2845  1.3110
 4065SOL    HW212591   4.706   4.948   1.723  1.7651  0.0825 -1.2429
 4066SOL     OW12592   0.037   6.124   0.424 -0.2035 -0.4322  0.7191
 4066SOL    HW112593  -0.010   6.207   0.430  0.4921 -0.0882  1.9490
 4066SOL    HW212594   0.124   6.144   0.460  0.8624 -1.0726 -1.3347
 4067SOL     OW12595   0.889   3.198   5.095 -0.1136 -0.0778 -0.0348
 4067SOL    HW112596   0.899   3.206   5.000  1.0923 -0.2360  0.0554
 4067SOL    HW212597   0.942   3.270   5.130  1.0653 -1.1769  0.5404
 4068SOL     OW12598   2.405   0.309   4.120 -0.0826  0.6925 -0.1607
 4068SOL    HW112599   2.390   0.356   4.038 -1.0282 -0.9449 -0.9981
 4068SOL    HW212600   2.454   0.231   4.094 -0.0542  0.3469  0.8889
 4069SOL     OW12601   3.511   5.889   2.694 -0.3965 -0.1742  0.4450
 4069SOL    HW112602   3.504   5.869   2.601  0.1768 -1.3636  0.6374
 4069SOL    HW212603   3.441   5.952   2.711  1.4500  2.5928 -1.4380
 4070SOL     OW12604   4.891   2.796   1.613 -0.0597  0.2181  0.0126
 4070SOL    HW112605   4.934   2.731   1.670  0.0936  1.0548  0.8685
 4070SOL    HW212606   4.858   2.744   1.540  2.0350 -0.5372 -0.4854
 4071SOL     OW12607   5.827   5.269   2.050 -0.1635  0.4538 -0.2510
 4071SOL    HW112608   5.805   5.254   2.141  1.1329 -0.4546 -0.0542
 4071SOL    HW212609   5.747   5.304   2.011 -0.6300  1.2004  1.2956
 4072SOL     OW12610   4.061   1.792   1.811 -0.3587 -0.0217 -0.2430
 4072SOL    HW112611   4.149   1.824   1.789 -0.1751 -0.2624  0.1277
 4072SOL    HW212612   4.002   1.859   1.778 -0.1537 -0.7666 -2.2441
 4073SOL     OW12613   1.792   2.885   1.915  0.5293 -0.1252 -0.3442
 4073SOL    HW112614   1.851   2.812   1.936  0.9093  0.2565 -0.0759
 4073SOL    HW212615   1.828   2.960   1.961  0.6822  0.4642 -1.3815
 4074SOL     OW12616   1.199   2.814   5.159 -0.1164  0.3856  0.1996
 4074SOL    HW112617   1.150   2.741   5.198 -0.1854  0.4664  0.2670
 4074SOL    HW212618   1.236   2.860   5.234 -0.2830  0.5652  0.1723
 4075SOL     OW12619   3.407   4.088   6.890 -0.0665 -0.0600 -0.1438
 4075SOL    HW112620   3.318   4.053   6.884 -0.7908  1.8268 -1.3861
 4075SOL    HW212621   3.401   4.160   6.952  0.5866  0.0960 -0.2520
 4076SOL     OW12622   4.699   4.362   3.251 -0.1993 -0.3025 -0.0210
 4076SOL    HW112623   4.776   4.406   3.215 -0.4982 -0.2552 -0.5960
 4076SOL    HW212624   4.713   4.365   3.346 -0.4538  1.4512 -0.0225
 4077SOL     OW12625   2.924   5.150   1.608  0.0280 -0.3937  0.2249
 4077SOL    HW112626   2.924   5.221   1.544 -1.1214 -0.2155  0.3963
 4077SOL    HW212627   3.002   5.164   1.661  1.7597 -1.2980 -1.9386
 4078SOL     OW12628   4.663   5.630   5.812 -0.4316 -0.1738  0.6092
 4078SOL    HW112629   4.690   5.593   5.728 -1.0107  2.1977 -0.7091
 4078SOL    HW212630   4.573   5.660   5.798 -0.4038  0.6245  1.9397
 4079SOL     OW12631   4.566   1.974   4.677 -0.1639 -0.0710 -0.4932
 4079SOL    HW112632   4.486   1.922   4.684 -0.6868  0.8178  0.3634
 4079SOL    HW212633   4.592   1.967   4.585  0.4248 -2.7727 -0.1942
 4080SOL     OW12634   4.181   5.147   4.734  0.5590  0.1995  0.1296
 4080SOL    HW112635   4.191   5.127   4.827  2.4339 -0.7867 -0.2385
 4080SOL    HW212636   4.204   5.066   4.690  3.6429  1.7270 -1.2910
 4081SOL     OW12637   2.278   3.092   5.012  0.0749 -0.4025 -0.1587
 4081SOL    HW112638   2.275   3.025   5.080  0.1884  1.1766  1.4789
 4081SOL    HW212639   2.187   3.119   5.002 -0.4150 -2.6787 -2.8698
 4082SOL     OW12640   2.980   1.261   0.554  0.4250 -0.1911 -0.5333
 4082SOL    HW112641   3.032   1.282   0.632 -2.2576 -1.7029  1.8526
 4082SOL    HW212642   2.923   1.337   0.543  1.8552  0.7100 -2.0813
 4083SOL     OW12643   0.229   1.946   3.531  0.0991 -0.4131 -0.7836
 4083SOL    HW112644   0.172   1.915   3.602 -1.7578 -1.7796 -2.7397
 4083SOL    HW212645   0.260   1.866   3.489  3.5494  0.2682  0.1058
 4084SOL     OW12646   0.308   3.402   1.750 -0.2548  0.1424 -0.3246
 4084SOL    HW112647   0.328   3.338   1.682 -0.8868 -0.8809  0.4216
 4084SOL    HW212648   0.391   3.448   1.765  0.4171 -1.0281 -0.3388
 4085SOL     OW12649   1.803   0.743   4.029 -0.5756  0.3944  0.1941
 4085SOL    HW112650   1.807   0.830   3.989  0.7719  0.3320  0.1430
 4085SOL    HW212651   1.775   0.684   3.959 -0.0578  0.5687 -0.1593
 4086SOL     OW12652   0.306   6.073   4.036 -0.7338 -0.1007  0.5752
 4086SOL    HW112653   0.346   6.116   4.112  2.1558 -2.4673  0.5785
 4086SOL    HW212654   0.299   6.142   3.970  0.1798  1.1967  1.7881
 4087SOL     OW12655   1.630   0.509   6.671  0.0072 -0.4634 -0.4403
 4087SOL    HW112656   1.719   0.485   6.697  0.8097 -0.2083 -2.6541
 4087SOL    HW212657   1.609   0.448   6.600 -1.8746 -0.9452  0.4865
 4088SOL     OW12658   3.027   0.584   1.925  0.0261  0.0015 -0.6640
 4088SOL    HW112659   3.069   0.640   1.860 -0.4420  0.5209 -0.5272
 4088SOL    HW212660   2.984   0.645   1.985  1.0233 -0.4464  0.5358
 4089SOL     OW12661   3.027   3.336   2.547  0.2312 -0.0067  0.9999
 4089SOL    HW112662   3.017   3.379   2.462  1.8324 -1.5325 -0.0425
 4089SOL    HW212663   3.005   3.403   2.611  0.7965  1.7602 -0.5664
 4090SOL     OW12664   3.087   0.337   4.654  0.5962 -0.6679  0.0876
 4090SOL    HW112665   3.137   0.266   4.614 -0.4365 -0.3837 -1.8351
 4090SOL    HW212666   3.153   0.396   4.689  1.6762 -0.2728 -2.4295
 4091SOL     OW12667   3.280   5.686   5.572 -0.4024  0.6017  0.4161
 4091SOL    HW112668   3.228   5.764   5.590  1.5543  1.6631  1.9004
 4091SOL    HW212669   3.320   5.703   5.487 -2.7309 -0.4433 -0.9785
 4092SOL     OW12670   2.859   1.863   1.368  0.2084  0.2297  0.1472
 4092SOL    HW112671   2.773   1.822   1.381 -0.0024  0.9966  1.3516
 4092SOL    HW212672   2.884   1.895   1.454  1.5621  0.3259 -0.2565
 4093SOL     OW12673   1.767   3.839   0.440  0.5796 -0.1748 -0.0627
 4093SOL    HW112674   1.850   3.815   0.481  1.0895  1.5237 -0.0506
 4093SOL    HW212675   1.749   3.927   0.471  0.1689  0.5515 -2.1694
 4094SOL     OW12676   1.549   4.516   4.660 -0.2008 -0.1516 -0.1606
 4094SOL    HW112677   1.604   4.570   4.603  0.9630 -1.0426  0.0870
 4094SOL    HW212678   1.557   4.557   4.746  0.4307 -0.5332 -0.0360
 4095SOL     OW12679   5.067   3.319   1.899 -0.0262 -0.1929  0.0880
 4095SOL    HW112680   5.101   3.300   1.986 -0.6780  1.3475  0.7297
 4095SOL    HW212681   5.136   3.370   1.856 -0.1754  0.0720  0.1576
 4096SOL     OW12682   0.864   2.702   6.791  0.3456 -0.4142  0.4881
 4096SOL    HW112683   0.900   2.669   6.709  0.3551 -2.1682  1.1533
 4096SOL    HW212684   0.841   2.623   6.840 -0.2998  0.6092  1.8887
 4097SOL     OW12685   5.468   1.544   1.853  0.3360 -0.3327 -0.4509
 4097SOL    HW112686   5.560   1.560   1.832  0.8118  0.0728  1.6854
 4097SOL    HW212687   5.443   1.471   1.796  1.5250  0.5057 -2.1151
 4098SOL     OW12688   2.976   5.656   5.582  0.2400 -0.5417 -0.2968
 4098SOL    HW112689   2.956   5.571   5.619 -0.9395  0.0832  0.5807
 4098SOL    HW212690   3.047   5.690   5.636 -1.4661  0.3619  1.5340
 4099SOL     OW12691   0.629   1.909   2.803  0.3641  0.1260 -0.2333
 4099SOL    HW112692   0.617   1.975   2.871  2.4553 -1.8550  2.3008
 4099SOL    HW212693   0.545   1.908   2.756 -2.1375  0.2089  3.7055
 4100SOL     OW12694   2.387   2.184   2.862 -0.3456 -0.2114 -0.0462
 4100SOL    HW112695   2.323   2.213   2.927 -0.6271  0.5821 -0.6645
 4100SOL    HW212696   2.463   2.240   2.877  0.4284 -1.4613  1.0001
 4101SOL     OW12697   5.114   5.976   0.711  0.6272 -0.5310  0.5474
 4101SOL    HW112698   5.092   5.980   0.618 -1.7620  0.3587  1.0797
 4101SOL    HW212699   5.113   6.067   0.740  2.2261 -0.7157  1.3126
 4102SOL     OW12700   2.832   0.691   5.831 -0.2420  0.2476  0.0321
 4102SOL    HW112701   2.821   0.675   5.924  0.6151  1.2273  0.3224
 4102SOL    HW212702   2.873   0.611   5.797 -1.0759 -0.3372  0.3655
 4103SOL     OW12703   5.484   5.826   4.568  0.3649  0.3015 -0.8109
 4103SOL    HW112704   5.463   5.797   4.479 -1.0874  1.9333 -1.0632
 4103SOL    HW212705   5.550   5.764   4.599 -1.0612 -1.9722 -2.0270
 4104SOL     OW12706   2.642   4.407   3.516 -0.1579  0.1055 -0.0941
 4104SOL    HW112707   2.698   4.464   3.569  0.6852 -0.1300 -0.7118
 4104SOL    HW212708   2.658   4.319   3.551 -0.4068  0.0749 -0.0522
 4105SOL     OW12709   3.462   1.466   2.021 -0.0684  0.1736 -0.1593
 4105SOL    HW112710   3.517   1.388   2.009  0.4778  0.3356  1.0885
 4105SOL    HW212711   3.374   1.432   2.035  0.1250 -0.2179  0.1276
 4106SOL     OW12712   1.367   5.532   0.260 -0.4991  0.6289 -0.2885
 4106SOL    HW112713   1.312   5.454   0.272  1.1689 -0.6616 -0.5544
 4106SOL    HW212714   1.316   5.588   0.202 -1.8630 -0.1517  0.1102
 4107SOL     OW12715   5.068   4.356   1.522 -0.3704 -0.1780 -0.2691
 4107SOL    HW112716   5.039   4.446   1.518  0.6577  0.2749  1.2709
 4107SOL    HW212717   5.038   4.325   1.608 -0.9438 -1.3938 -0.8840
 4108SOL     OW12718   6.111   2.013   4.389  0.3134  0.4812  0.1088
 4108SOL    HW112719   6.126   2.013   4.295  1.7638 -0.4495  0.3042
 4108SOL    HW212720   6.196   1.994   4.427 -0.2865  0.6244  1.6172
 4109SOL     OW12721   4.448   2.941   6.944  0.4158 -0.3790  0.1085
 4109SOL    HW112722   4.496   2.994   7.008  0.6688  1.9308 -1.8608
 4109SOL    HW212723   4.364   2.986   6.933  0.3337 -0.7882 -1.0950
 4110SOL     OW12724   5.819   1.189   3.318 -0.1945 -0.8251 -0.3804
 4110SOL    HW112725   5.852   1.114   3.367  0.6669 -0.9888 -1.1943
 4110SOL    HW212726   5.874   1.194   3.241 -0.9429 -0.0097 -0.8849
 4111SOL     OW12727   2.807   1.277   1.621  0.8831  0.7167  0.2814
 4111SOL    HW112728   2.842   1.192   1.647  1.7425  0.0986 -2.4910
 4111SOL    HW212729   2.741   1.256   1.554  0.6767  2.1954 -0.0144
 4112SOL     OW12730   5.793   5.442   1.105  0.0351  0.9138  0.0351
 4112SOL    HW112731   5.781   5.448   1.199 -3.6756  0.0549 -0.2404
 4112SOL    HW212732   5.743   5.516   1.069 -0.6758 -0.1585 -1.2840
 4113SOL     OW12733   1.032   0.022   3.542 -0.3596  0.4905  0.3244
 4113SOL    HW112734   1.021   0.115   3.521 -0.4679  0.5075  0.4510
 4113SOL    HW212735   1.075   0.021   3.627  1.0078  0.4213 -0.3408
 4114SOL     OW12736   3.287   5.072   0.899 -0.2405 -0.1686  0.3220
 4114SOL    HW112737   3.211   5.131   0.905  0.5307  0.8325  0.5951
 4114SOL    HW212738   3.362   5.127   0.922  0.7012 -0.8744 -0.9094
 4115SOL     OW12739   1.574   1.582   3.797  0.0618  0.0022 -0.2089
 4115SOL    HW112740   1.513   1.512   3.816 -1.4213  0.9222 -1.3440
 4115SOL    HW212741   1.621   1.553   3.719  0.2117 -0.1864 -0.0480
 4116SOL     OW12742   6.810   3.559   0.600  0.0799  0.2353 -0.0501
 4116SOL    HW112743   6.857   3.642   0.587  1.6237 -0.7694 -1.3159
 4116SOL    HW212744   6.811   3.545   0.694  0.1264  1.4599  0.1487
 4117SOL     OW12745   4.959   1.237   3.706  0.1790 -0.3027  0.1212
 4117SOL    HW112746   4.957   1.327   3.675 -0.7274 -0.7517 -1.2140
 4117SOL    HW212747   4.976   1.244   3.800 -2.0276  1.3905  0.4760
 4118SOL     OW12748   4.972   0.886   0.813  0.0361  0.0611  0.0790
 4118SOL    HW112749   5.067   0.888   0.804 -0.0504  0.4618 -0.9012
 4118SOL    HW212750   4.944   0.813   0.758 -0.2180 -0.1804  0.5189
 4119SOL     OW12751   2.686   3.408   2.447 -0.5143  0.2915  0.1430
 4119SOL    HW112752   2.618   3.455   2.496 -0.6512 -0.0828  0.3155
 4119SOL    HW212753   2.769   3.444   2.481 -0.5715 -0.6876  1.4141
 4120SOL     OW12754   3.192   4.011   3.774 -0.6439 -0.3246  0.1743
 4120SOL    HW112755   3.204   3.917   3.790 -0.7985 -0.4791 -0.5855
 4120SOL    HW212756   3.114   4.016   3.717 -1.8280  0.3886  1.7728
 4121SOL     OW12757   6.623   1.732   5.844 -0.5093  0.3375 -0.3416
 4121SOL    HW112758   6.658   1.784   5.773 -0.0159 -0.0059 -0.3599
 4121SOL    HW212759   6.637   1.785   5.923  1.4567 -0.3913 -0.1384
 4122SOL     OW12760   3.835   5.898   6.449  0.0688 -0.0321  0.0892
 4122SOL    HW112761   3.917   5.915   6.403 -0.3284  0.4987 -0.4455
 4122SOL    HW212762   3.790   5.982   6.450 -1.2124 -0.6594 -1.1243
 4123SOL     OW12763   2.609   3.996   4.784 -0.0935 -0.8506  0.3061
 4123SOL    HW112764   2.613   4.050   4.705 -0.2258 -0.3833  0.6097
 4123SOL    HW212765   2.687   3.941   4.779  0.4852 -0.0567  0.3861
 4124SOL     OW12766   1.653   4.406   0.921 -0.9229  0.1283  0.1792
 4124SOL    HW112767   1.685   4.357   0.997  1.2904 -1.7193 -1.8166
 4124SOL    HW212768   1.703   4.487   0.921 -0.8433  0.0813  0.5916
 4125SOL     OW12769   5.347   0.122   4.698 -0.1994  0.3166  0.1024
 4125SOL    HW112770   5.269   0.133   4.643 -0.4546  0.6484  0.5232
 4125SOL    HW212771   5.372   0.211   4.723 -0.6861  0.1303  1.3389
 4126SOL     OW12772   0.307   2.392   3.709  0.6257 -0.0729  0.3132
 4126SOL    HW112773   0.319   2.387   3.803 -2.3765  2.1323  0.9555
 4126SOL    HW212774   0.373   2.455   3.679 -0.1242  1.2857  1.4160
 4127SOL     OW12775   5.112   5.499   6.200  0.7505 -0.4313  0.8699
 4127SOL    HW112776   5.119   5.407   6.227  0.8399 -0.3947  0.9693
 4127SOL    HW212777   5.161   5.504   6.118 -0.7345 -0.8752 -0.0991
 4128SOL     OW12778   0.921   2.961   4.454  0.0845 -0.3896 -0.1311
 4128SOL    HW112779   0.845   2.937   4.402 -0.3050 -0.0895  0.2908
 4128SOL    HW212780   0.923   2.897   4.526  1.0779 -1.2929 -0.9295
 4129SOL     OW12781   6.755   3.270   4.428 -0.0099  0.2148 -0.6361
 4129SOL    HW112782   6.821   3.237   4.367  0.0559 -0.4437 -0.2126
 4129SOL    HW212783   6.727   3.354   4.390  0.2312 -0.0534 -1.4200
 4130SOL     OW12784   1.336   4.109   4.920  0.4650  0.5402 -0.2243
 4130SOL    HW112785   1.324   4.204   4.921 -1.4587  0.3322 -0.9709
 4130SOL    HW212786   1.259   4.075   4.876  1.2531 -1.3759 -0.2179
 4131SOL     OW12787   5.623   3.138   5.219 -0.3079 -0.0528  0.4399
 4131SOL    HW112788   5.698   3.079   5.229 -1.0005 -0.9667  0.4256
 4131SOL    HW212789   5.564   3.114   5.290 -0.9701  0.0411 -0.0592
 4132SOL     OW12790   1.893   4.900   0.224  0.3943  0.1925 -0.1468
 4132SOL    HW112791   1.874   4.885   0.131 -0.1625  1.6220 -0.2942
 4132SOL    HW212792   1.839   4.836   0.270  0.2478 -0.1602 -0.7907
 4133SOL     OW12793   4.363   3.437   2.771 -0.3076 -0.0251  0.5325
 4133SOL    HW112794   4.348   3.444   2.677  0.1471  3.4756  0.5909
 4133SOL    HW212795   4.423   3.363   2.780  0.0928 -0.1077 -1.9861
 4134SOL     OW12796   4.408   5.304   1.179  0.0648  0.5923 -0.5702
 4134SOL    HW112797   4.437   5.311   1.089  0.3367 -0.4365 -0.5707
 4134SOL    HW212798   4.432   5.215   1.206 -2.2719 -0.0165 -0.2911
 4135SOL     OW12799   2.152   2.597   0.166  0.3778 -0.2758  0.1771
 4135SOL    HW112800   2.114   2.583   0.079  1.6270 -0.4066 -0.3755
 4135SOL    HW212801   2.099   2.543   0.224  0.3548 -1.2726 -0.7255
 4136SOL     OW12802   2.495   6.637   5.796  0.4336 -0.5779 -0.2585
 4136SOL    HW112803   2.511   6.724   5.832  0.6706 -0.6697 -0.1351
 4136SOL    HW212804   2.419   6.647   5.739  0.5291 -0.2678 -0.3285
 4137SOL     OW12805   3.036   3.137   5.898 -0.8733 -0.1494  0.0507
 4137SOL    HW112806   2.959   3.184   5.866  0.6546  0.3704 -3.2908
 4137SOL    HW212807   3.022   3.047   5.870  0.3137  0.2392 -2.0072
 4138SOL     OW12808   6.829   1.245   6.261  0.0376 -0.0648  0.2770
 4138SOL    HW112809   6.843   1.161   6.216 -1.1141 -0.2159  0.1644
 4138SOL    HW212810   6.830   1.223   6.354 -1.4173 -0.4259  0.2299
 4139SOL     OW12811   0.144   2.650   0.421  0.6497  0.1316  0.1202
 4139SOL    HW112812   0.160   2.560   0.394 -0.1146 -0.1769  0.6754
 4139SOL    HW212813   0.068   2.645   0.478 -0.8277  1.4083 -1.6152
 4140SOL     OW12814   4.655   5.266   4.996 -0.1579 -0.0638  0.3001
 4140SOL    HW112815   4.680   5.215   4.920  0.4197 -0.9769  1.0782
 4140SOL    HW212816   4.739   5.298   5.032 -0.4717  0.9761  0.1351
 4141SOL     OW12817   4.361   5.629   6.385 -0.7717 -0.1341 -0.8454
 4141SOL    HW112818   4.453   5.653   6.375 -1.3369  2.6430 -0.4166
 4141SOL    HW212819   4.319   5.662   6.305 -1.4200 -1.4431 -1.0786
 4142SOL     OW12820   6.136   0.115   1.113  0.2060 -0.0783 -0.2585
 4142SOL    HW112821   6.147   0.063   1.033 -3.5663 -0.9368 -0.3762
 4142SOL    HW212822   6.102   0.199   1.083 -0.6487 -0.1887  0.3650
 4143SOL     OW12823   2.498   4.704   4.764  0.1214 -0.0467 -0.0304
 4143SOL    HW112824   2.568   4.685   4.827  1.0042 -0.7396 -1.1772
 4143SOL    HW212825   2.480   4.619   4.723  0.3932  0.6004 -1.5344
 4144SOL     OW12826   3.392   0.500   4.147 -0.1594  0.4695  0.7416
 4144SOL    HW112827   3.433   0.530   4.228  2.0316 -2.3173  0.8019
 4144SOL    HW212828   3.432   0.553   4.078  0.1334  0.8564  1.2031
 4145SOL     OW12829   0.755   5.554   6.494 -0.1359  0.2939  0.6331
 4145SOL    HW112830   0.735   5.579   6.584  0.2529 -0.8582  1.0487
 4145SOL    HW212831   0.712   5.470   6.482 -0.2909  0.4931 -0.3125
 4146SOL     OW12832   6.491   1.743   2.045  0.3295 -0.2518 -0.4500
 4146SOL    HW112833   6.405   1.782   2.030  0.2799 -0.1052  0.2023
 4146SOL    HW212834   6.493   1.724   2.139  1.1839  0.1594 -0.3771
 4147SOL     OW12835   1.147   3.940   6.774 -0.6118 -0.1315  0.6387
 4147SOL    HW112836   1.241   3.949   6.757 -0.2863 -0.0200  2.3027
 4147SOL    HW212837   1.114   4.029   6.777 -1.1429 -0.1976 -1.6071
 4148SOL     OW12838   6.698   4.225   1.179 -0.4577  0.1587 -0.5813
 4148SOL    HW112839   6.653   4.309   1.168 -0.4002  0.2330 -0.2671
 4148SOL    HW212840   6.770   4.244   1.239 -1.3080 -0.4186  0.6619
 4149SOL     OW12841   6.761   1.832   2.069 -0.0125  0.1845  0.1496
 4149SOL    HW112842   6.672   1.804   2.045  0.5000 -0.7140 -0.8168
 4149SOL    HW212843   6.767   1.921   2.035 -0.4637  0.1520 -0.0326
 4150SOL     OW12844   5.151   0.935   3.301  0.5225 -0.2337  0.6255
 4150SOL    HW112845   5.161   1.001   3.370 -0.4774 -1.2626  1.8100
 4150SOL    HW212846   5.095   0.868   3.340 -1.5433 -0.0418 -1.7886
 4151SOL     OW12847   0.068   3.263   0.871  0.3742 -0.6968  0.3046
 4151SOL    HW112848   0.068   3.351   0.833 -4.3393 -0.8789 -0.6637
 4151SOL    HW212849   0.108   3.274   0.957  1.3171  2.0145 -0.3734
 4152SOL     OW12850   5.115   4.622   0.636  0.2875  0.1232  0.2434
 4152SOL    HW112851   5.098   4.588   0.548  0.0326  0.8693 -0.0048
 4152SOL    HW212852   5.118   4.717   0.625 -0.6767  0.2835  1.1875
 4153SOL     OW12853   4.161   6.507   5.828 -0.0660 -0.2040 -0.9235
 4153SOL    HW112854   4.256   6.507   5.820  0.0179 -0.1254  0.0109
 4153SOL    HW212855   4.131   6.451   5.755  0.6371  0.3861 -1.6841
 4154SOL     OW12856   2.774   4.404   0.046  0.0905  0.0167  0.4140
 4154SOL    HW112857   2.798   4.339   0.112 -0.4539 -0.9891 -0.3532
 4154SOL    HW212858   2.773   4.487   0.094  2.1972 -0.2989  1.0910
 4155SOL     OW12859   6.909   6.889   5.136  0.4463  0.0946 -0.1231
 4155SOL    HW112860   6.937   6.894   5.044 -1.5645  0.8070 -0.7376
 4155SOL    HW212861   6.822   6.850   5.133  0.0052  0.8841  1.4040
 4156SOL     OW12862   2.401   4.306   0.225 -0.6784  0.0043 -0.0298
 4156SOL    HW112863   2.431   4.248   0.294 -0.2301 -1.0861 -1.1146
 4156SOL    HW212864   2.480   4.329   0.176 -1.0968  0.0442 -0.7068
 4157SOL     OW12865   2.413   6.614   5.303  0.0355 -0.0663 -0.1084
 4157SOL    HW112866   2.406   6.681   5.235 -0.7118  0.7942  0.7745
 4157SOL    HW212867   2.322   6.588   5.320  0.2190 -0.3454  0.4696
 4158SOL     OW12868   0.835   2.547   4.691  0.2375 -0.0038  0.6806
 4158SOL    HW112869   0.816   2.463   4.647 -1.4962  0.2938  0.7696
 4158SOL    HW212870   0.925   2.539   4.721  1.4162 -0.3845 -2.5692
 4159SOL     OW12871   3.728   3.044   0.666  0.3843  0.1902  0.2501
 4159SOL    HW112872   3.768   3.110   0.608 -2.0782  1.1614 -0.4658
 4159SOL    HW212873   3.655   3.090   0.707 -0.3355 -1.6317  1.0797
 4160SOL     OW12874   6.744   2.674   3.333  0.1794  0.4243 -0.0878
 4160SOL    HW112875   6.724   2.581   3.323  0.1931  0.4302 -0.1676
 4160SOL    HW212876   6.797   2.696   3.256  0.6271  0.3692  0.2027
 4161SOL     OW12877   0.992   0.972   0.856 -0.2059 -0.3968  0.2539
 4161SOL    HW112878   0.905   1.005   0.832  0.8382  1.9095 -0.6512
 4161SOL    HW212879   1.002   0.891   0.806 -1.3553 -0.0671 -0.5576
 4162SOL     OW12880   0.107   5.642   4.202  0.0620  0.2022  0.0043
 4162SOL    HW112881   0.158   5.678   4.129 -0.1832 -0.9735 -0.7821
 4162SOL    HW212882   0.171   5.590   4.251 -0.3053 -1.2051 -0.9355
 4163SOL     OW12883   2.263   5.137   4.179 -0.1669  0.3627  0.2016
 4163SOL    HW112884   2.200   5.158   4.248  0.0366  0.0406  0.4874
 4163SOL    HW212885   2.338   5.100   4.225 -0.3186 -0.5316 -0.2443
 4164SOL     OW12886   5.100   3.465   3.667 -0.0715  0.1854 -0.0605
 4164SOL    HW112887   5.047   3.497   3.595 -1.1088  1.1544  1.0750
 4164SOL    HW212888   5.163   3.534   3.684 -2.0292  1.6201  2.1064
 4165SOL     OW12889   4.044   2.232   1.256 -0.3354 -0.4066 -0.1517
 4165SOL    HW112890   4.049   2.259   1.348 -0.9325 -1.7666  0.3189
 4165SOL    HW212891   4.104   2.291   1.210 -0.1045  0.3715  1.0886
 4166SOL     OW12892   3.660   4.117   3.811 -1.2164 -0.3524  0.7816
 4166SOL    HW112893   3.714   4.126   3.733 -0.0544 -0.2855  1.5642
 4166SOL    HW212894   3.571   4.135   3.781 -0.9111 -1.1152 -0.6772
 4167SOL     OW12895   0.524   0.092   2.698 -0.8548 -0.7362 -0.1875
 4167SOL    HW112896   0.450   0.136   2.742 -0.8046 -0.4269 -0.4099
 4167SOL    HW212897   0.489   0.065   2.613 -0.0469  1.6403 -1.3615
 4168SOL     OW12898   2.070   3.765   1.911  0.5442 -0.7414  0.0976
 4168SOL    HW112899   2.125   3.842   1.903 -0.0179 -0.2201  1.0553
 4168SOL    HW212900   2.104   3.704   1.845  1.4463  0.0392 -0.1809
 4169SOL     OW12901   2.007   2.141   1.183 -0.2034 -0.0312  0.2313
 4169SOL    HW112902   2.017   2.168   1.092 -0.7477 -0.1970  0.1180
 4169SOL    HW212903   1.990   2.047   1.179  1.0537 -0.2905  0.5872
 4170SOL     OW12904   1.590   4.330   4.011 -0.1853 -0.7224  0.1037
 4170SOL    HW112905   1.498   4.335   4.036  0.3692  1.8153  2.0462
 4170SOL    HW212906   1.589   4.337   3.916 -2.0073 -0.6457  0.0867
 4171SOL     OW12907   5.303   3.350   6.424  0.5445 -0.2394  0.8064
 4171SOL    HW112908   5.225   3.302   6.398  0.8261 -0.6077  0.6175
 4171SOL    HW212909   5.308   3.340   6.519 -0.6405  1.3364  1.0806
 4172SOL     OW12910   4.624   6.004   4.418 -0.8881  0.0627  0.2488
 4172SOL    HW112911   4.602   6.097   4.415 -0.9843  0.0347  0.0165
 4172SOL    HW212912   4.674   5.993   4.499  0.0498  0.5141 -0.2625
 4173SOL     OW12913   3.327   1.523   5.672 -0.3266 -0.7813  0.0686
 4173SOL    HW112914   3.348   1.518   5.578  3.1657 -1.8548  0.7580
 4173SOL    HW212915   3.326   1.432   5.701 -0.8272 -0.4329  1.1896
 4174SOL     OW12916   4.584   0.517   2.147 -0.2995  0.3284  0.6068
 4174SOL    HW112917   4.670   0.482   2.169 -0.2955 -2.3290 -2.7107
 4174SOL    HW212918   4.602   0.595   2.095 -0.0169  0.8395  1.4478
 4175SOL     OW12919   4.757   3.096   3.995  0.2523 -0.0762  0.5296
 4175SOL    HW112920   4.675   3.051   3.978  1.1563 -1.5226 -0.1981
 4175SOL    HW212921   4.821   3.026   4.007  1.5243  1.0190  0.3731
 4176SOL     OW12922   4.849   5.439   1.928  0.1391 -0.1409  0.2249
 4176SOL    HW112923   4.818   5.505   1.866 -0.2637 -0.5033  0.0402
 4176SOL    HW212924   4.806   5.461   2.010  0.5925  0.2775  0.3550
 4177SOL     OW12925   4.117   2.596   1.024 -0.1599  0.1758  0.4035
 4177SOL    HW112926   4.027   2.585   1.054  0.2052 -3.1568  0.7294
 4177SOL    HW212927   4.125   2.533   0.952  1.7269  0.9476 -0.1080
 4178SOL     OW12928   0.863   4.417   5.187  0.1906  0.0622  0.1427
 4178SOL    HW112929   0.833   4.332   5.156  2.5077 -0.2051 -1.6511
 4178SOL    HW212930   0.806   4.480   5.142  1.0193 -0.4726 -1.7740
 4179SOL     OW12931   5.556   5.543   6.016  0.2666 -0.0761 -0.3137
 4179SOL    HW112932   5.599   5.476   6.069  2.0035  0.4809 -0.9233
 4179SOL    HW212933   5.583   5.523   5.926 -0.4331  0.5511 -0.6753
 4180SOL     OW12934   1.363   0.443   0.879  0.4446  0.0514  0.1889
 4180SOL    HW112935   1.431   0.480   0.935  1.5929  0.1108 -1.1767
 4180SOL    HW212936   1.328   0.517   0.830 -0.7389  0.0448  0.9707
 4181SOL     OW12937   2.653   1.805   4.448 -0.2430 -0.0134 -0.1352
 4181SOL    HW112938   2.603   1.757   4.382 -0.2243  0.0931 -0.2268
 4181SOL    HW212939   2.673   1.889   4.407 -0.4666  0.1628  0.1043
 4182SOL     OW12940   5.337   1.830   1.847  0.2358 -0.0982  0.8501
 4182SOL    HW112941   5.304   1.770   1.913 -0.1086 -1.8645 -0.8420
 4182SOL    HW212942   5.420   1.791   1.819 -0.9686 -1.0403 -1.7402
 4183SOL     OW12943   1.114   6.383   5.137  0.3448  0.0242 -0.2718
 4183SOL    HW112944   1.198   6.340   5.151 -0.4617 -1.6633 -0.3235
 4183SOL    HW212945   1.072   6.383   5.223  0.4303  0.9823 -0.2149
 4184SOL     OW12946   1.599   5.660   1.156 -0.0116  0.6718  0.1308
 4184SOL    HW112947   1.617   5.685   1.065  0.4670  1.9082  0.5531
 4184SOL    HW212948   1.675   5.608   1.182  0.3135  1.1480  0.1366
 4185SOL     OW12949   3.993   3.025   2.432  0.2298  0.1842 -0.4665
 4185SOL    HW112950   4.027   3.111   2.458  1.2235 -0.1058 -0.7658
 4185SOL    HW212951   3.913   3.016   2.483  1.0997  0.4749  1.0455
 4186SOL     OW12952   3.504   5.198   0.974 -0.3745  0.5640 -0.2974
 4186SOL    HW112953   3.580   5.157   0.933 -0.6612 -0.6678  0.3362
 4186SOL    HW212954   3.540   5.266   1.031  0.3983 -0.8661  1.0104
 4187SOL     OW12955   2.340   2.595   2.513  0.4013 -0.1168  0.7539
 4187SOL    HW112956   2.408   2.602   2.447 -0.1182 -2.0409 -0.0571
 4187SOL    HW212957   2.288   2.518   2.487 -1.4112  0.6260  1.9441
 4188SOL     OW12958   3.188   1.643   4.043  0.1229  0.5053 -0.1714
 4188SOL    HW112959   3.183   1.738   4.031 -1.5024  0.5720  0.7997
 4188SOL    HW212960   3.156   1.607   3.960 -0.1353  0.8227 -0.2113
 4189SOL     OW12961   4.073   4.146   1.816 -0.5496 -0.1638  0.5227
 4189SOL    HW112962   4.079   4.152   1.720 -0.1039 -1.5263  0.4466
 4189SOL    HW212963   3.998   4.202   1.838 -1.3807 -0.7251 -0.7370
 4190SOL     OW12964   4.204   5.013   0.946 -0.0155 -0.2655 -0.1454
 4190SOL    HW112965   4.234   4.942   1.003  1.8574  0.4139 -0.2142
 4190SOL    HW212966   4.280   5.032   0.890 -0.6750  1.3826 -0.5261
 4191SOL     OW12967   1.318   1.923   2.959 -0.1611 -0.4713 -1.1592
 4191SOL    HW112968   1.346   1.925   3.051 -1.1238 -0.4636 -0.8556
 4191SOL    HW212969   1.382   1.978   2.914  0.5806 -0.8306 -0.5711
 4192SOL     OW12970   5.889   1.602   4.445 -0.3107  0.1420 -0.0500
 4192SOL    HW112971   5.921   1.638   4.528 -1.1521  0.5155  0.1304
 4192SOL    HW212972   5.843   1.522   4.470 -0.2218  0.0417 -0.2056
 4193SOL     OW12973   0.114   4.377   4.415  0.0673  0.5793 -0.4161
 4193SOL    HW112974   0.156   4.318   4.478 -1.0259 -0.9963 -1.1253
 4193SOL    HW212975   0.036   4.409   4.460  1.3329  2.6236  0.4755
 4194SOL     OW12976   6.855   4.250   3.223 -0.9234 -0.0863 -0.6567
 4194SOL    HW112977   6.948   4.243   3.246 -0.6828 -2.0155 -1.9028
 4194SOL    HW212978   6.810   4.265   3.306  0.4563  0.3903  0.0322
 4195SOL     OW12979   3.704   0.655   3.817  0.4290  0.1409  0.1706
 4195SOL    HW112980   3.757   0.730   3.846 -0.6146  0.4561  1.3462
 4195SOL    HW212981   3.655   0.628   3.895 -1.6851  0.3283 -0.9991
 4196SOL     OW12982   2.063   1.986   6.847  0.0022 -1.1858 -0.4482
 4196SOL    HW112983   2.081   1.925   6.919  1.3180  0.7883  0.9790
 4196SOL    HW212984   2.000   1.939   6.792 -1.7376 -2.4544  2.4185
 4197SOL     OW12985   1.403   2.961   1.487 -0.0822 -0.4730 -0.0641
 4197SOL    HW112986   1.388   2.971   1.393  1.5795  0.7713 -0.2519
 4197SOL    HW212987   1.370   2.873   1.507  0.2881 -1.1158 -1.9871
 4198SOL     OW12988   1.394   1.697   3.593 -0.6628  0.3721 -0.5988
 4198SOL    HW112989   1.432   1.634   3.654  1.8731  1.4503 -0.9180
 4198SOL    HW212990   1.388   1.650   3.510 -1.4515 -0.2648 -0.1843
 4199SOL     OW12991   3.858   3.579   1.747  0.8337  0.1230 -0.5297
 4199SOL    HW112992   3.890   3.535   1.827  0.5785  1.8494  0.5750
 4199SOL    HW212993   3.771   3.611   1.771  0.5475  0.2487 -1.6907
 4200SOL     OW12994   0.438   2.804   4.153 -0.0092 -0.1153 -0.4975
 4200SOL    HW112995   0.414   2.891   4.121 -1.3002  0.2106  1.1972
 4200SOL    HW212996   0.355   2.756   4.152  0.2427 -0.5898  0.7657
 4201SOL     OW12997   5.094   4.252   3.000 -0.2423  0.4658 -0.0965
 4201SOL    HW112998   5.107   4.180   2.938 -0.5042  1.2701 -1.1096
 4201SOL    HW212999   5.035   4.215   3.067  1.8891 -1.1429  1.0010
 4202SOL     OW13000   1.832   3.267   6.505 -0.6053  0.1965 -0.0276
 4202SOL    HW113001   1.797   3.180   6.484 -0.7928  0.2850 -0.0900
 4202SOL    HW213002   1.819   3.276   6.599  0.1951 -0.1840  0.1270
 4203SOL     OW13003   6.744   4.608   3.324 -0.5514  0.0793 -0.0857
 4203SOL    HW113004   6.697   4.599   3.242 -2.6754  1.4154  0.9036
 4203SOL    HW213005   6.836   4.591   3.301 -1.0263  0.6753 -2.7639
 4204SOL     OW13006   4.475   3.572   2.104  0.1403 -0.1115 -0.0582
 4204SOL    HW113007   4.404   3.574   2.168 -1.0456  0.3658 -1.3475
 4204SOL    HW213008   4.451   3.637   2.039  2.5288  1.1622  0.2143
 4205SOL     OW13009   5.602   0.467   3.571  0.3017  0.1088 -0.4691
 4205SOL    HW113010   5.530   0.405   3.555 -1.3932  1.5774  0.9934
 4205SOL    HW213011   5.614   0.512   3.487  0.1034 -0.7135 -0.9570
 4206SOL     OW13012   1.274   2.411   3.946  0.1309 -0.5597  0.2184
 4206SOL    HW113013   1.194   2.438   3.901 -0.8032  0.5493  2.4051
 4206SOL    HW213014   1.258   2.320   3.970  0.6295 -1.1600 -1.5420
 4207SOL     OW13015   6.423   5.856   1.249  0.4544 -0.3444  0.1084
 4207SOL    HW113016   6.447   5.909   1.324 -1.6470  1.7761 -0.5807
 4207SOL    HW213017   6.467   5.898   1.174  2.2951 -2.2575  0.0344
 4208SOL     OW13018   6.314   6.577   0.059 -0.3317  0.1186 -0.1456
 4208SOL    HW113019   6.299   6.671   0.049  1.4952  0.6503  1.4287
 4208SOL    HW213020   6.355   6.568   0.145  0.4849 -2.0017 -0.6875
 4209SOL     OW13021   6.422   2.330   4.595 -0.5334  1.0559  0.6483
 4209SOL    HW113022   6.443   2.354   4.684  0.0567 -1.2779  1.2167
 4209SOL    HW213023   6.506   2.312   4.553 -0.9142 -1.4699  0.8073
 4210SOL     OW13024   5.145   2.849   3.858 -0.1036  0.7814  0.7745
 4210SOL    HW113025   5.211   2.871   3.923 -0.3730 -0.5322  1.5332
 4210SOL    HW213026   5.190   2.788   3.798 -0.0473  1.4702  0.1027
 4211SOL     OW13027   2.656   4.142   5.915 -0.2504  0.1998 -0.2274
 4211SOL    HW113028   2.670   4.050   5.937 -0.0962  0.0449 -0.9535
 4211SOL    HW213029   2.610   4.140   5.831  2.1251  0.7673 -1.6343
 4212SOL     OW13030   2.164   6.365   6.848  0.0779  0.2427 -0.1033
 4212SOL    HW113031   2.225   6.294   6.828 -0.3843 -0.5925  1.2912
 4212SOL    HW213032   2.077   6.325   6.838 -0.1869  0.6047  0.6825
 4213SOL     OW13033   2.066   5.823   6.476 -0.5484 -0.4276  0.0718
 4213SOL    HW113034   2.092   5.900   6.527 -0.4040 -0.3077 -0.1832
 4213SOL    HW213035   2.145   5.770   6.471 -0.3073  0.0030 -0.8213
 4214SOL     OW13036   6.566   6.898   5.854 -0.1280  0.8027 -0.4391
 4214SOL    HW113037   6.562   6.993   5.846  1.9857  0.7953 -2.6310
 4214SOL    HW213038   6.517   6.866   5.778  2.2877  0.2892 -1.9015
 4215SOL     OW13039   4.064   5.803   1.279 -0.1296  0.1030 -0.6623
 4215SOL    HW113040   4.120   5.877   1.260  0.4043 -0.3432 -0.8515
 4215SOL    HW213041   4.067   5.794   1.375  1.0527 -0.6261 -0.7529
 4216SOL     OW13042   2.969   1.203   2.598 -0.4319 -0.1173  0.8868
 4216SOL    HW113043   3.050   1.236   2.561 -0.5745  0.8995  1.4381
 4216SOL    HW213044   2.904   1.271   2.578 -1.4403 -1.4437 -0.5846
 4217SOL     OW13045   3.037   4.610   4.746  0.4893 -0.5174  0.2452
 4217SOL    HW113046   3.102   4.548   4.777  0.7241 -0.3138  0.1634
 4217SOL    HW213047   2.974   4.557   4.696  1.1419 -0.5786 -0.5372
 4218SOL     OW13048   0.191   4.699   6.618  0.4642  0.1579  0.3190
 4218SOL    HW113049   0.252   4.633   6.651 -1.0378 -0.7498  1.3752
 4218SOL    HW213050   0.232   4.782   6.641  0.9852 -0.4310  1.6080
 4219SOL     OW13051   3.337   1.921   2.728 -0.0616  0.0622 -0.3587
 4219SOL    HW113052   3.268   1.872   2.684  0.6303  0.2904 -1.7450
 4219SOL    HW213053   3.387   1.961   2.657 -0.0487  2.0239  0.6861
 4220SOL     OW13054   0.943   2.650   0.275 -0.2170  0.1195  0.0071
 4220SOL    HW113055   0.883   2.576   0.265  0.3033 -0.0404 -2.7004
 4220SOL    HW213056   0.886   2.724   0.294 -0.9833 -0.5427  0.3583
 4221SOL     OW13057   5.348   4.938   1.117 -0.1349 -0.0161  0.0581
 4221SOL    HW113058   5.331   5.027   1.088 -0.4154  0.6341  2.0675
 4221SOL    HW213059   5.297   4.883   1.057  1.3589  0.9955 -2.2553
 4222SOL     OW13060   2.526   6.089   5.203  0.1897  0.3609  0.3320
 4222SOL    HW113061   2.485   6.038   5.273  1.0239 -0.2520  0.3901
 4222SOL    HW213062   2.535   6.177   5.241  1.1847 -0.1056  1.2489
 4223SOL     OW13063   4.491   5.548   0.625 -0.0773  0.2918 -0.1209
 4223SOL    HW113064   4.554   5.480   0.601  0.1205  0.0646  0.9733
 4223SOL    HW213065   4.406   5.509   0.605  0.0873  0.3451 -0.9784
 4224SOL     OW13066   1.396   4.100   6.061  1.0582 -0.3121  0.8739
 4224SOL    HW113067   1.335   4.031   6.036  0.6496  0.7092 -1.2012
 4224SOL    HW213068   1.475   4.054   6.089  0.2681 -1.6131  1.0576
 4225SOL     OW13069   2.261   6.121   1.432 -0.2954  0.2636 -0.1630
 4225SOL    HW113070   2.340   6.072   1.408 -0.9811 -0.3122 -1.3103
 4225SOL    HW213071   2.209   6.058   1.482 -1.5442 -0.5081 -2.3269
 4226SOL     OW13072   4.303   5.969   1.645  0.0366  0.2934 -0.6353
 4226SOL    HW113073   4.352   5.963   1.728  0.6247  1.4545 -0.8714
 4226SOL    HW213074   4.283   6.062   1.636 -1.1403  0.0037 -1.1831
 4227SOL     OW13075   1.599   5.645   1.783  0.0914 -0.4368  0.0810
 4227SOL    HW113076   1.524   5.613   1.732  0.3284 -1.9265  0.6265
 4227SOL    HW213077   1.609   5.581   1.854 -0.3906  1.6772  2.1937
 4228SOL     OW13078   3.919   1.654   3.800  0.3497 -0.2511 -0.1237
 4228SOL    HW113079   3.899   1.570   3.841  1.4351 -0.1679  0.6227
 4228SOL    HW213080   3.844   1.672   3.743 -1.6620  0.0042  2.3851
 4229SOL     OW13081   2.643   3.952   1.332 -0.1180  0.0028 -0.0164
 4229SOL    HW113082   2.695   3.875   1.310  1.6437  0.5509  1.9333
 4229SOL    HW213083   2.564   3.917   1.373  1.2185 -0.8173  2.0088
 4230SOL     OW13084   0.618   6.187   0.518  0.5807  0.0527 -0.3471
 4230SOL    HW113085   0.659   6.146   0.443  2.4725 -1.6277  1.4899
 4230SOL    HW213086   0.684   6.182   0.588 -2.3014 -1.8353  2.5092
 4231SOL     OW13087   2.429   4.627   2.757 -0.9568 -0.1635  0.2304
 4231SOL    HW113088   2.355   4.570   2.737 -1.9404  1.0903  0.1258
 4231SOL    HW213089   2.408   4.665   2.842 -0.0680 -0.3326  0.5425
 4232SOL     OW13090   5.481   1.323   1.696  0.3079  0.4315  0.5611
 4232SOL    HW113091   5.466   1.332   1.602  2.2591 -0.0904  0.1377
 4232SOL    HW213092   5.522   1.237   1.705 -1.4963 -0.3266  2.1582
 4233SOL     OW13093   5.715   6.433   3.661  0.0113  0.1327  0.3508
 4233SOL    HW113094   5.795   6.422   3.712  0.5949  1.1961 -0.2842
 4233SOL    HW213095   5.645   6.396   3.715  0.8202 -0.0929  1.2557
 4234SOL     OW13096   0.380   3.029   0.412  0.1119 -0.2557 -0.3326
 4234SOL    HW113097   0.367   3.080   0.332 -0.3938 -0.9044 -0.6747
 4234SOL    HW213098   0.441   2.960   0.387  1.1390  0.4200  0.2402
 4235SOL     OW13099   2.018   2.964   6.136 -0.1595  0.8224  0.0188
 4235SOL    HW113100   2.012   3.054   6.165 -2.8671  0.2011  1.7901
 4235SOL    HW213101   2.013   2.912   6.216  1.0547 -0.9177 -0.9700
 4236SOL     OW13102   3.041   1.519   1.003 -0.1198 -0.2799 -0.1483
 4236SOL    HW113103   3.125   1.475   1.013  1.7912  3.1416 -0.0999
 4236SOL    HW213104   3.006   1.525   1.092 -0.1629 -1.1419 -0.0958
 4237SOL     OW13105   6.156   1.329   4.934  0.3543 -0.3117 -0.0778
 4237SOL    HW113106   6.069   1.356   4.964 -0.1676 -1.5472 -0.4208
 4237SOL    HW213107   6.165   1.238   4.963  1.3028 -0.3828 -0.5422
 4238SOL     OW13108   6.139   4.243   5.364  0.2614 -0.4563  0.1343
 4238SOL    HW113109   6.149   4.173   5.429  0.4429  0.4251  1.0665
 4238SOL    HW213110   6.224   4.287   5.363  0.3764 -0.6716 -0.9645
 4239SOL     OW13111   0.282   0.408   6.188 -0.8548  0.0304  0.0082
 4239SOL    HW113112   0.273   0.405   6.283 -2.6601 -1.6359 -0.1540
 4239SOL    HW213113   0.371   0.377   6.172 -0.1475  1.3521  1.1688
 4240SOL     OW13114   4.222   0.700   3.511  0.4955  0.0403  0.1889
 4240SOL    HW113115   4.204   0.788   3.543 -0.9566 -0.5806  1.1881
 4240SOL    HW213116   4.136   0.663   3.492  1.0133 -1.4944  0.7044
 4241SOL     OW13117   4.527   5.322   6.575 -0.4318 -0.4442  0.6504
 4241SOL    HW113118   4.523   5.227   6.585 -0.9736 -0.6809 -1.4059
 4241SOL    HW213119   4.604   5.337   6.521 -1.6504  0.0519 -1.0297
 4242SOL     OW13120   6.464   5.944   4.335 -0.1637  0.4082  0.0689
 4242SOL    HW113121   6.442   6.026   4.380 -3.1550  0.4262 -1.1705
 4242SOL    HW213122   6.428   5.876   4.391  1.0968 -0.0094  0.4046
 4243SOL     OW13123   1.697   4.826   2.550 -0.2057  0.1405  0.7383
 4243SOL    HW113124   1.695   4.772   2.629  1.7562 -1.3206 -0.1088
 4243SOL    HW213125   1.758   4.780   2.492  1.3934  3.1534 -0.1675
 4244SOL     OW13126   6.427   1.367   0.421 -0.5677  0.3879  0.6860
 4244SOL    HW113127   6.364   1.368   0.349  2.1777 -1.1402 -1.9458
 4244SOL    HW213128   6.434   1.458   0.448 -1.2853  1.0992 -1.3802
 4245SOL     OW13129   6.250   5.235   5.289 -0.3423 -0.1749  0.0966
 4245SOL    HW113130   6.205   5.162   5.246 -0.5208 -0.1589  0.2540
 4245SOL    HW213131   6.248   5.306   5.225  0.0513 -0.3842 -0.1533
 4246SOL     OW13132   5.827   5.754   4.004 -0.2624  0.0701 -0.6782
 4246SOL    HW113133   5.780   5.825   4.048 -2.9297 -1.1387 -1.3662
 4246SOL    HW213134   5.849   5.790   3.918 -2.6027 -0.2151 -1.4523
 4247SOL     OW13135   5.853   6.308   6.010  0.1591 -0.2164  0.3613
 4247SOL    HW113136   5.763   6.277   6.019 -0.1684  0.3671 -0.7467
 4247SOL    HW213137   5.899   6.271   6.085 -0.7316 -1.5052  0.2961
 4248SOL     OW13138   3.554   1.891   1.737  0.1955  0.2931 -0.2734
 4248SOL    HW113139   3.520   1.832   1.804  0.0918 -0.7094 -1.1897
 4248SOL    HW213140   3.484   1.898   1.673 -0.0581  1.9749  0.1375
 4249SOL     OW13141   0.587   5.545   6.141 -0.2466  0.4536 -0.5437
 4249SOL    HW113142   0.521   5.480   6.164  0.9515 -1.4642 -2.1511
 4249SOL    HW213143   0.572   5.617   6.202 -1.9319 -1.1280  1.0535
 4250SOL     OW13144   5.232   2.275   3.554  0.6137  0.2022  0.5200
 4250SOL    HW113145   5.147   2.316   3.573  0.4492 -0.4614  1.2846
 4250SOL    HW213146   5.283   2.287   3.634  0.2814 -1.7368  1.0704
 4251SOL     OW13147   0.199   0.093   4.610  0.0616 -0.3151 -0.1458
 4251SOL    HW113148   0.115   0.128   4.581  0.2754 -0.1608 -0.5740
 4251SOL    HW213149   0.190   0.088   4.706 -0.3149  0.0048 -0.1609
 4252SOL     OW13150   6.561   2.202   5.761 -0.6156  0.1370 -0.3095
 4252SOL    HW113151   6.557   2.261   5.837 -2.0976 -0.2384 -0.0619
 4252SOL    HW213152   6.514   2.124   5.789 -1.0277 -0.0792 -1.5596
 4253SOL     OW13153   1.898   2.736   0.747  0.3666  0.5323 -0.5761
 4253SOL    HW113154   1.969   2.711   0.807  0.2263 -1.8083 -1.2710
 4253SOL    HW213155   1.891   2.662   0.687 -3.5335 -0.0062  0.2617
 4254SOL     OW13156   1.571   2.553   0.844 -0.0269  0.4775  0.0290
 4254SOL    HW113157   1.615   2.498   0.779  0.6399  1.2292 -0.1690
 4254SOL    HW213158   1.636   2.620   0.867  0.2488 -0.5082  2.4343
 4255SOL     OW13159   6.482   6.592   0.294 -0.7683  0.1962 -0.2846
 4255SOL    HW113160   6.551   6.534   0.262 -2.6962 -0.9543 -2.7237
 4255SOL    HW213161   6.414   6.533   0.327 -1.8727  1.1317 -0.8013
 4256SOL     OW13162   5.394   4.037   1.742 -0.0999 -0.3610  0.1223
 4256SOL    HW113163   5.376   4.107   1.805 -1.2415 -0.0477 -0.5236
 4256SOL    HW213164   5.453   3.978   1.789  1.5208  1.3841  0.4261
 4257SOL     OW13165   2.017   2.325   6.004 -0.7480  0.0292  0.0163
 4257SOL    HW113166   2.029   2.369   5.920 -1.7887  1.1171  0.4129
 4257SOL    HW213167   1.933   2.280   5.996 -0.6104 -0.2843  0.2951
 4258SOL     OW13168   2.238   1.829   2.810 -0.4240 -0.0361  0.0359
 4258SOL    HW113169   2.234   1.739   2.776  0.4692  0.0723 -0.3787
 4258SOL    HW213170   2.147   1.859   2.806 -1.1516 -1.6669  2.3014
 4259SOL     OW13171   2.933   1.343   3.111  0.1230 -0.0216  0.2603
 4259SOL    HW113172   2.915   1.437   3.105 -0.2349  0.1099  2.4400
 4259SOL    HW213173   3.028   1.337   3.117  0.0722  0.5031  2.8477
 4260SOL     OW13174   0.531   3.694   4.881 -0.0183 -0.1381  0.4905
 4260SOL    HW113175   0.600   3.640   4.920  0.1243 -0.2999  0.0222
 4260SOL    HW213176   0.578   3.768   4.842 -0.3265  1.1274  2.3865
 4261SOL     OW13177   3.091   2.835   5.071  0.3679  0.4119  0.5574
 4261SOL    HW113178   3.169   2.887   5.048  0.1634  0.9392  1.0372
 4261SOL    HW213179   3.046   2.888   5.137 -0.8033  0.4749 -0.2678
 4262SOL     OW13180   2.694   5.967   2.347  0.4933  0.7194 -0.0784
 4262SOL    HW113181   2.755   5.894   2.334  0.6862  0.7364  0.6792
 4262SOL    HW213182   2.719   6.004   2.432 -1.8973 -0.6110  1.3025
 4263SOL     OW13183   3.773   2.107   4.493  0.2127  0.2066  0.2739
 4263SOL    HW113184   3.839   2.151   4.439  2.4866 -1.2800  1.6695
 4263SOL    HW213185   3.727   2.050   4.432  0.2081  1.2399 -0.7268
 4264SOL     OW13186   3.344   5.378   1.233 -1.0569 -0.3965 -0.2321
 4264SOL    HW113187   3.427   5.421   1.209 -0.8494  0.3659  1.7152
 4264SOL    HW213188   3.283   5.405   1.165 -0.2977  0.9898 -0.3943
 4265SOL     OW13189   3.643   5.127   3.216 -0.0592  0.0185 -0.2395
 4265SOL    HW113190   3.637   5.222   3.215 -1.5967 -0.0263  0.9334
 4265SOL    HW213191   3.686   5.104   3.133  2.6601  1.8252  0.5191
 4266SOL     OW13192   0.191   0.090   1.916 -0.3691 -0.6828 -0.3806
 4266SOL    HW113193   0.217   0.178   1.889  0.5528  0.1710  2.8522
 4266SOL    HW213194   0.111   0.103   1.968 -1.0183 -1.9648 -0.9918
 4267SOL     OW13195   5.348   5.331   0.378  0.3828  0.1267 -0.8322
 4267SOL    HW113196   5.382   5.243   0.391  1.8152  0.5256 -1.5440
 4267SOL    HW213197   5.354   5.373   0.464 -0.4695 -0.5034 -0.4545
 4268SOL     OW13198   3.604   0.371   3.912 -0.4904 -0.5100 -0.0640
 4268SOL    HW113199   3.651   0.290   3.892  0.4570  0.3350 -1.4219
 4268SOL    HW213200   3.617   0.384   4.006 -1.2706 -2.2812  0.3321
 4269SOL     OW13201   3.724   6.544   2.416  0.2619 -0.3431 -0.2614
 4269SOL    HW113202   3.764   6.570   2.334  0.5066  0.4888  0.1152
 4269SOL    HW213203   3.630   6.539   2.397  0.3029 -0.0049 -0.5466
 4270SOL     OW13204   5.328   1.998   2.511  0.0635 -0.2801 -0.2871
 4270SOL    HW113205   5.376   2.079   2.529 -2.5568  0.8984  2.0928
 4270SOL    HW213206   5.275   2.018   2.434 -0.0140  0.0007 -0.1618
 4271SOL     OW13207   6.856   6.353   1.650  0.0508 -0.2922 -0.6722
 4271SOL    HW113208   6.886   6.265   1.671 -1.8761 -0.7567  0.3274
 4271SOL    HW213209   6.793   6.341   1.579  0.4249  0.3909 -1.1380
 4272SOL     OW13210   2.526   2.260   3.928  0.3614  0.0788  0.2540
 4272SOL    HW113211   2.581   2.322   3.879  0.5193  0.4322  0.8741
 4272SOL    HW213212   2.436   2.288   3.909  0.2941 -1.3776 -1.9427
 4273SOL     OW13213   2.441   4.864   2.009  0.6048 -0.6481  0.0533
 4273SOL    HW113214   2.441   4.792   2.073  0.1087 -1.2613 -0.6202
 4273SOL    HW213215   2.511   4.840   1.947 -0.1340 -1.0048 -0.6574
 4274SOL     OW13216   6.145   1.671   1.627  0.2560  0.2453  0.2320
 4274SOL    HW113217   6.122   1.762   1.645  1.9127  1.2662 -2.2791
 4274SOL    HW213218   6.230   1.659   1.669  1.0663  0.5984 -1.2411
 4275SOL     OW13219   0.761   0.101   2.241  0.1624 -0.1143  0.2590
 4275SOL    HW113220   0.803   0.131   2.322 -1.0150  0.1128  0.7949
 4275SOL    HW213221   0.672   0.078   2.267 -0.2487  0.0336 -0.9916
 4276SOL     OW13222   6.758   3.325   0.093  0.0200  0.1018 -0.3415
 4276SOL    HW113223   6.765   3.420   0.084 -0.5655  0.1011 -0.8983
 4276SOL    HW213224   6.718   3.312   0.179  1.6666  0.2841  0.4923
 4277SOL     OW13225   0.429   3.907   4.332  0.3057 -0.2411 -0.3600
 4277SOL    HW113226   0.504   3.857   4.363  0.6076  0.1276 -0.4857
 4277SOL    HW213227   0.427   3.891   4.237  0.9980  0.7471 -0.5639
 4278SOL     OW13228   0.676   6.166   4.380 -0.2524  0.2839 -0.4403
 4278SOL    HW113229   0.680   6.192   4.472 -1.4426 -0.0747 -0.2655
 4278SOL    HW213230   0.766   6.172   4.349  0.1311  0.6128  0.6926
 4279SOL     OW13231   6.521   0.579   4.842 -0.3889 -0.3903  0.2898
 4279SOL    HW113232   6.484   0.650   4.790  2.0888 -0.6932 -2.1022
 4279SOL    HW213233   6.545   0.512   4.778  2.8918 -0.7708  1.6918
 4280SOL     OW13234   0.724   2.822   2.458  0.0127  0.4499  0.1197
 4280SOL    HW113235   0.690   2.739   2.424  0.6995 -0.1944  0.9678
 4280SOL    HW213236   0.806   2.835   2.410  1.0957 -0.5709  1.6010
 4281SOL     OW13237   5.406   4.881   5.800  0.0818 -0.6046 -0.4942
 4281SOL    HW113238   5.365   4.846   5.721 -1.2139 -1.9936  0.7167
 4281SOL    HW213239   5.338   4.872   5.867  1.0029  0.9258  0.6847
 4282SOL     OW13240   4.467   5.863   1.098  0.5406  0.2609  0.0810
 4282SOL    HW113241   4.421   5.805   1.037  1.4917  0.2328 -0.6246
 4282SOL    HW213242   4.417   5.856   1.179 -1.9975  1.8622 -1.1982
 4283SOL     OW13243   2.500   5.441   2.163  0.2205  0.0716 -0.0205
 4283SOL    HW113244   2.498   5.534   2.141 -1.1893 -0.1920 -1.1749
 4283SOL    HW213245   2.588   5.412   2.140  0.1155  0.7495 -1.3735
 4284SOL     OW13246   3.365   3.340   0.126 -0.1264 -0.4910 -0.0996
 4284SOL    HW113247   3.422   3.285   0.071 -1.6813 -0.8654 -1.4439
 4284SOL    HW213248   3.388   3.317   0.216  3.0869  0.7196 -0.5001
 4285SOL     OW13249   2.285   4.398   1.918  0.1057  0.3554  0.4093
 4285SOL    HW113250   2.338   4.346   1.978  1.0254  0.1765 -0.5314
 4285SOL    HW213251   2.273   4.481   1.963  2.3594  0.9065  0.1295
 4286SOL     OW13252   4.592   3.695   5.160 -0.0235 -0.3084  0.4775
 4286SOL    HW113253   4.664   3.710   5.222  1.1498 -0.0596 -0.9026
 4286SOL    HW213254   4.514   3.691   5.215  1.0556 -0.8155  2.0492
 4287SOL     OW13255   4.879   0.789   6.220 -0.3507 -0.4997 -0.8868
 4287SOL    HW113256   4.970   0.766   6.203 -0.4064 -1.2981 -0.1519
 4287SOL    HW213257   4.875   0.884   6.205  0.9276 -0.1982  0.4603
 4288SOL     OW13258   0.379   6.030   6.492 -0.2777  0.1229 -0.7192
 4288SOL    HW113259   0.370   5.984   6.409  0.5825 -0.3643 -0.5552
 4288SOL    HW213260   0.436   5.974   6.545 -2.4637 -0.6586  0.9963
 4289SOL     OW13261   1.962   0.058   4.978 -0.0056  0.1079 -0.5201
 4289SOL    HW113262   1.910   0.007   4.916 -0.4962 -0.1361  0.0788
 4289SOL    HW213263   2.011   0.120   4.924 -0.4011 -0.1237 -1.1489
 4290SOL     OW13264   1.982   4.500   0.677 -0.9426  0.1059 -0.4922
 4290SOL    HW113265   2.019   4.532   0.595 -2.1821  0.3388 -0.9872
 4290SOL    HW213266   2.049   4.516   0.743 -0.2344  0.6171 -1.3323
 4291SOL     OW13267   4.270   6.222   1.642  0.2804 -1.0076 -0.2700
 4291SOL    HW113268   4.337   6.288   1.626  0.0689 -0.4702  0.9284
 4291SOL    HW213269   4.221   6.217   1.560  1.3551 -0.9208 -0.9312
 4292SOL     OW13270   3.514   5.727   6.452  0.3872  0.0835  0.2122
 4292SOL    HW113271   3.589   5.713   6.511  0.5670 -0.5630 -0.1568
 4292SOL    HW213272   3.494   5.820   6.460  1.4646  0.3452  0.0534
 4293SOL     OW13273   0.343   4.031   5.905  0.4892  0.6009 -0.2292
 4293SOL    HW113274   0.261   4.079   5.898  0.0552 -0.0874  0.0392
 4293SOL    HW213275   0.319   3.947   5.944  1.1453 -0.0402 -1.1351
 4294SOL     OW13276   4.408   6.610   2.061 -0.4085 -0.0389 -0.5531
 4294SOL    HW113277   4.482   6.552   2.077  0.3365  1.4858  2.0269
 4294SOL    HW213278   4.333   6.563   2.095  0.3055  0.7246  2.2829
 4295SOL     OW13279   2.639   0.183   1.399 -0.4974 -0.4037 -0.1475
 4295SOL    HW113280   2.722   0.229   1.416 -0.7823  0.5474 -1.2072
 4295SOL    HW213281   2.599   0.173   1.485 -0.0358  0.6185  0.2113
 4296SOL     OW13282   6.441   4.905   2.531 -0.0660 -0.4294 -0.5725
 4296SOL    HW113283   6.459   4.982   2.585 -1.5703 -0.1403 -0.4326
 4296SOL    HW213284   6.528   4.873   2.506  0.7424 -0.7712  2.2598
 4297SOL     OW13285   4.289   2.679   0.732 -0.2933 -0.0031 -0.3180
 4297SOL    HW113286   4.290   2.696   0.826  2.5655  2.5372 -0.6464
 4297SOL    HW213287   4.208   2.718   0.701 -0.4847  0.6269  0.9143
 4298SOL     OW13288   1.328   3.596   3.332  0.0996  0.3173 -0.9900
 4298SOL    HW113289   1.406   3.553   3.298 -0.2449 -0.0503 -1.3177
 4298SOL    HW213290   1.268   3.600   3.258  0.0441  1.1751 -0.9114
 4299SOL     OW13291   2.576   2.290   4.247  0.4023 -0.1461  0.2190
 4299SOL    HW113292   2.637   2.363   4.257  0.7843 -0.6240  1.4830
 4299SOL    HW213293   2.513   2.320   4.181  1.7735  0.4970 -0.8529
 4300SOL     OW13294   2.975   6.544   2.918 -0.2385 -0.0422  0.4679
 4300SOL    HW113295   2.957   6.515   3.007 -1.2316  0.6116  0.4904
 4300SOL    HW213296   2.891   6.572   2.884  0.1828 -0.0090 -0.5822
 4301SOL     OW13297   1.118   5.668   5.935 -0.5827 -0.6475  0.3070
 4301SOL    HW113298   1.080   5.635   5.854 -0.0710 -1.7903  0.5189
 4301SOL    HW213299   1.057   5.736   5.964  0.0397  0.9547 -1.8791
 4302SOL     OW13300   6.445   4.653   3.327 -0.0203  0.8702 -0.1980
 4302SOL    HW113301   6.522   4.693   3.368 -0.9904  1.7532  0.8659
 4302SOL    HW213302   6.371   4.692   3.374 -1.1359  0.4448 -1.5416
 4303SOL     OW13303   6.329   1.963   5.474  0.4026  0.1571 -0.1742
 4303SOL    HW113304   6.278   2.043   5.485 -2.3216 -1.5936  1.1889
 4303SOL    HW213305   6.388   1.961   5.549 -1.7465 -0.5312  1.6019
 4304SOL     OW13306   2.371   3.741   3.750 -0.4040 -0.3026  0.2728
 4304SOL    HW113307   2.371   3.687   3.828 -1.5878  2.1239  2.1027
 4304SOL    HW213308   2.444   3.801   3.762  1.0055 -1.4825 -1.7977
 4305SOL     OW13309   5.455   6.415   0.617  0.5134  0.0922 -0.5255
 4305SOL    HW113310   5.460   6.323   0.642  2.5144 -0.2411 -1.9516
 4305SOL    HW213311   5.376   6.447   0.661 -0.5040 -2.3964 -0.3602
 4306SOL     OW13312   2.035   4.114   2.630  0.2465 -0.0119 -0.3260
 4306SOL    HW113313   2.084   4.032   2.642 -0.1658 -0.4102 -1.2331
 4306SOL    HW213314   2.051   4.137   2.538 -1.0249 -0.0010 -0.5552
 4307SOL     OW13315   0.568   4.875   4.113  0.0094  0.4110  0.0566
 4307SOL    HW113316   0.598   4.961   4.144  0.1889 -0.1687  1.5645
 4307SOL    HW213317   0.620   4.812   4.163 -1.1265 -0.5874  0.0223
 4308SOL     OW13318   0.707   2.670   1.053 -0.2163  0.1429  0.2890
 4308SOL    HW113319   0.801   2.672   1.035 -0.3702  0.6768 -0.5039
 4308SOL    HW213320   0.675   2.755   1.024 -1.0135 -0.1719  0.2106
 4309SOL     OW13321   4.753   5.677   4.467  0.3148  0.1548  0.1897
 4309SOL    HW113322   4.692   5.603   4.470  0.8930 -0.4438 -1.4368
 4309SOL    HW213323   4.829   5.643   4.419  1.0264  1.5055  0.3130
 4310SOL     OW13324   6.502   2.426   0.162  0.3693  0.0969  0.1814
 4310SOL    HW113325   6.501   2.361   0.091 -0.1208  0.5671 -0.2522
 4310SOL    HW213326   6.569   2.489   0.135 -0.5681  0.8630 -0.4152
 4311SOL     OW13327   4.504   3.029   3.985 -0.3118 -0.4865 -0.1696
 4311SOL    HW113328   4.498   2.953   3.928 -1.3334 -0.3650 -0.2476
 4311SOL    HW213329   4.473   2.997   4.070  1.5728 -0.7699  0.4521
 4312SOL     OW13330   1.449   6.342   6.368 -0.6331 -0.4323 -0.2500
 4312SOL    HW113331   1.417   6.413   6.424 -0.1085  0.4275 -0.9993
 4312SOL    HW213332   1.383   6.335   6.299 -0.1536  0.0803 -0.7728
 4313SOL     OW13333   2.809   0.648   6.116  0.2037 -0.1537  0.4711
 4313SOL    HW113334   2.857   0.710   6.171  0.0291  0.5909 -0.1971
 4313SOL    HW213335   2.852   0.564   6.131  2.2134  0.6079 -0.6239
 4314SOL     OW13336   2.877   1.437   2.182 -0.8044 -0.2131 -0.3972
 4314SOL    HW113337   2.883   1.502   2.112 -0.0455  0.0098 -0.1315
 4314SOL    HW213338   2.968   1.417   2.205 -0.9617  1.6079  2.2877
 4315SOL     OW13339   2.976   5.324   4.127 -0.2846 -0.1647 -0.2377
 4315SOL    HW113340   2.959   5.327   4.221  0.0370 -1.8746 -0.0905
 4315SOL    HW213341   2.932   5.401   4.092 -2.0495 -0.5097  1.0773
 4316SOL     OW13342   3.989   5.148   5.278 -0.4448 -0.2541  0.1099
 4316SOL    HW113343   4.005   5.065   5.233  1.4270  0.2126 -0.1806
 4316SOL    HW213344   3.911   5.132   5.331  0.8531 -2.7950  1.4572
 4317SOL     OW13345   6.129   4.285   2.574 -0.2472 -0.3370 -0.2356
 4317SOL    HW113346   6.096   4.219   2.635 -0.6805 -0.6882 -0.8369
 4317SOL    HW213347   6.182   4.235   2.512 -0.0493 -0.0263 -0.3167
 4318SOL     OW13348   1.497   0.445   0.225  0.4089 -0.0841 -0.2537
 4318SOL    HW113349   1.558   0.431   0.297  0.7205  2.6243  0.1346
 4318SOL    HW213350   1.410   0.444   0.267  0.5628  1.0524  0.1395
 4319SOL     OW13351   0.662   0.160   0.858  0.1317 -0.0127  0.1040
 4319SOL    HW113352   0.635   0.245   0.823 -1.0760 -0.6561 -0.6072
 4319SOL    HW213353   0.744   0.177   0.903 -1.3151  2.0786  2.2326
 4320SOL     OW13354   6.593   4.329   4.426  0.5784  0.1159  0.0233
 4320SOL    HW113355   6.620   4.238   4.439 -2.1447 -0.6081  1.3622
 4320SOL    HW213356   6.640   4.357   4.348 -1.2293 -3.7029 -2.7814
 4321SOL     OW13357   4.907   6.621   0.408 -0.2343  0.1754 -0.0133
 4321SOL    HW113358   4.860   6.542   0.436 -0.2997 -0.0747 -0.8046
 4321SOL    HW213359   4.843   6.669   0.356  0.2719 -0.0010 -0.8106
 4322SOL     OW13360   3.870   0.126   1.134 -0.4434  0.8432 -0.2565
 4322SOL    HW113361   3.931   0.150   1.064  1.1336  0.2259  0.8395
 4322SOL    HW213362   3.907   0.045   1.171 -0.8760  1.4847  1.6892
 4323SOL     OW13363   4.404   1.919   5.595  0.2900 -0.2276 -0.2175
 4323SOL    HW113364   4.334   1.863   5.562  0.3713  0.0709 -0.9416
 4323SOL    HW213365   4.361   2.003   5.613  0.4621 -0.0095 -0.7680
 4324SOL     OW13366   0.286   0.890   5.795 -0.0544 -0.1195  0.4814
 4324SOL    HW113367   0.271   0.964   5.853  1.4673  1.6160 -1.1915
 4324SOL    HW213368   0.380   0.874   5.801 -0.3321 -1.8565  0.7002
 4325SOL     OW13369   1.334   4.421   5.248  0.5932 -0.1068 -0.2198
 4325SOL    HW113370   1.338   4.331   5.282  1.9256 -0.4164 -1.1254
 4325SOL    HW213371   1.400   4.469   5.298  0.0346  0.3370  0.1105
 4326SOL     OW13372   2.800   5.097   6.344  0.4161 -0.1684  0.4874
 4326SOL    HW113373   2.761   5.018   6.306 -2.0256  1.0056  0.3302
 4326SOL    HW213374   2.807   5.079   6.437 -1.5399 -0.1205  0.6904
 4327SOL     OW13375   3.841   3.513   5.753  0.9196  0.0880  0.4969
 4327SOL    HW113376   3.843   3.605   5.727 -0.1230  0.6375  2.1817
 4327SOL    HW213377   3.764   3.506   5.810  1.3206 -1.6953  0.8808
 4328SOL     OW13378   1.547   2.334   4.768 -0.2581  0.0098 -0.2869
 4328SOL    HW113379   1.629   2.324   4.817 -0.5912  0.4961  0.3818
 4328SOL    HW213380   1.537   2.429   4.759 -0.0754 -0.0804 -1.5213
 4329SOL     OW13381   0.137   2.669   5.524  0.1902 -0.2360 -0.4793
 4329SOL    HW113382   0.051   2.709   5.505  0.3791  0.6179  0.3559
 4329SOL    HW213383   0.198   2.719   5.470  0.2915 -0.1332 -0.2692
 4330SOL     OW13384   1.956   5.725   0.060  0.0821 -0.0622  0.2468
 4330SOL    HW113385   1.918   5.638   0.068 -0.1205  0.0711  0.7671
 4330SOL    HW213386   2.010   5.721  -0.019 -0.0298 -0.6164  0.1980
 4331SOL     OW13387   0.303   5.677   5.519  0.1793 -0.4460  0.0071
 4331SOL    HW113388   0.379   5.627   5.550  1.5956  1.3381 -0.3840
 4331SOL    HW213389   0.341   5.745   5.464 -1.7704  0.2817 -0.4932
 4332SOL     OW13390   1.284   0.452   0.454 -0.1346 -0.2798 -0.2267
 4332SOL    HW113391   1.274   0.542   0.423 -1.6923 -0.5925 -0.6800
 4332SOL    HW213392   1.293   0.460   0.549  0.9720  0.4125 -0.3648
 4333SOL     OW13393   3.437   3.814   4.398  0.1423  0.5872 -0.0939
 4333SOL    HW113394   3.450   3.823   4.492 -0.9827  0.9162  0.0426
 4333SOL    HW213395   3.411   3.901   4.369 -0.8867  0.1607 -0.4748
 4334SOL     OW13396   5.692   6.549   0.066 -0.6739  0.1930 -0.2709
 4334SOL    HW113397   5.697   6.545   0.161 -1.8740 -0.2926 -0.2179
 4334SOL    HW213398   5.719   6.639   0.044  0.8156 -0.0551  0.4166
 4335SOL     OW13399   6.413   0.562   0.972  0.0954 -0.2291 -0.1234
 4335SOL    HW113400   6.487   0.546   0.913  1.6836 -0.0207  1.7316
 4335SOL    HW213401   6.413   0.656   0.986 -0.1974 -0.2948  0.3344
 4336SOL     OW13402   3.792   6.750   0.111 -0.1565 -0.5827 -0.2592
 4336SOL    HW113403   3.836   6.708   0.037  0.7091 -0.5059  0.1911
 4336SOL    HW213404   3.819   6.699   0.188 -0.2200 -0.0631  0.1202
 4337SOL     OW13405   5.778   1.410   5.539  0.1581  0.4302  0.3532
 4337SOL    HW113406   5.853   1.377   5.590  1.6113  1.7007 -0.8501
 4337SOL    HW213407   5.717   1.337   5.535  2.6419 -1.7233 -1.0858
 4338SOL     OW13408   1.410   0.375   1.485  0.0495  0.1416 -0.1035
 4338SOL    HW113409   1.473   0.323   1.534 -0.7273  2.1579  3.3435
 4338SOL    HW213410   1.454   0.458   1.469 -0.6426  0.4424 -0.4767
 4339SOL     OW13411   6.870   5.768   4.398 -0.0939  0.1826  0.8073
 4339SOL    HW113412   6.933   5.720   4.344  0.5349  2.1321 -0.3068
 4339SOL    HW213413   6.910   5.771   4.485  0.8696  0.4745  0.3703
 4340SOL     OW13414   6.188   1.917   4.657 -0.3400  0.3381  0.0032
 4340SOL    HW113415   6.211   1.836   4.701 -1.2622  0.0432 -0.0477
 4340SOL    HW213416   6.093   1.916   4.652 -0.5184  2.2409  1.5836
 4341SOL     OW13417   2.965   4.860   1.578  0.1417  0.3507  0.3778
 4341SOL    HW113418   2.953   4.954   1.564 -0.5493  0.1384 -0.5366
 4341SOL    HW213419   2.908   4.839   1.651  0.0713  0.5897  0.3925
 4342SOL     OW13420   4.526   4.760   0.798 -0.1561 -0.5885 -0.4053
 4342SOL    HW113421   4.603   4.732   0.748 -0.0853 -1.9327  0.3994
 4342SOL    HW213422   4.490   4.833   0.748  2.9146  1.6097  0.3461
 4343SOL     OW13423   4.388   1.150   5.358 -0.0619  0.3837  0.0900
 4343SOL    HW113424   4.447   1.224   5.371 -0.2584  0.3484  1.3053
 4343SOL    HW213425   4.335   1.174   5.282  1.5395  0.3879 -1.0824
 4344SOL     OW13426   4.956   0.041   6.725 -0.4480  0.1020  0.1287
 4344SOL    HW113427   4.896   0.066   6.655 -0.5578  0.7502  0.4455
 4344SOL    HW213428   4.946  -0.054   6.731 -1.7446  0.2296  0.4247
 4345SOL     OW13429   6.757   2.134   5.591 -0.1661  0.2561  0.2444
 4345SOL    HW113430   6.687   2.155   5.653 -1.3487  0.5528 -1.1271
 4345SOL    HW213431   6.822   2.203   5.603 -0.8627  0.8868  0.4441
 4346SOL     OW13432   2.903   3.925   6.812 -1.0372 -0.2120  0.5722
 4346SOL    HW113433   2.850   3.959   6.884 -0.7064  1.3865  0.1010
 4346SOL    HW213434   2.839   3.898   6.746 -1.3200 -1.1267  1.1985
 4347SOL     OW13435   2.149   2.798   2.476 -0.3173 -0.3566 -0.1099
 4347SOL    HW113436   2.093   2.754   2.413 -0.2140 -2.7083  1.3014
 4347SOL    HW213437   2.221   2.736   2.492 -1.0115 -0.5178  3.2131
 4348SOL     OW13438   6.529   4.191   5.509  1.0187  0.6197 -0.0181
 4348SOL    HW113439   6.441   4.187   5.547  1.1957  1.2538  0.4724
 4348SOL    HW213440   6.569   4.107   5.531  0.3796  0.1274 -0.6624
 4349SOL     OW13441   4.711   6.776   4.021 -0.3001 -0.0220  0.2998
 4349SOL    HW113442   4.763   6.708   4.064  0.0127  0.2073  0.2850
 4349SOL    HW213443   4.632   6.783   4.075 -0.0256  0.0825  0.6929
 4350SOL     OW13444   6.317   0.445   2.236 -0.1661  0.0496 -0.2726
 4350SOL    HW113445   6.374   0.369   2.223 -0.2501  0.1377 -1.2500
 4350SOL    HW213446   6.251   0.415   2.298 -0.2179 -0.7023 -0.6693
 4351SOL     OW13447   6.829   0.626   5.618  0.3057  0.2048  0.5562
 4351SOL    HW113448   6.874   0.544   5.598  1.7255  1.0350  0.2757
 4351SOL    HW213449   6.754   0.599   5.672  0.9091 -1.2411  0.7104
 4352SOL     OW13450   0.434   0.756   6.529  0.2863  0.1703  0.3326
 4352SOL    HW113451   0.373   0.721   6.465  1.4776 -1.1445 -0.1282
 4352SOL    HW213452   0.410   0.713   6.611  0.4952 -0.2265  0.1861
 4353SOL     OW13453   2.553   3.475   1.532  0.4071  0.6198  0.2699
 4353SOL    HW113454   2.516   3.558   1.562  0.2429  0.1146  1.4883
 4353SOL    HW213455   2.491   3.409   1.560  1.5763 -0.1208  1.2027
 4354SOL     OW13456   0.554   0.438   0.797 -0.0040  0.1330  0.3064
 4354SOL    HW113457   0.500   0.505   0.756 -0.1884 -0.6755 -0.8371
 4354SOL    HW213458   0.549   0.456   0.891 -1.3581  0.7380  0.1384
 4355SOL     OW13459   1.116   5.417   3.555  0.1235  0.3239  0.0484
 4355SOL    HW113460   1.052   5.361   3.599 -0.5867  0.4697 -0.7784
 4355SOL    HW213461   1.063   5.481   3.507  0.8390 -0.3644 -1.7385
 4356SOL     OW13462   6.624   5.432   5.741 -0.0337  0.4974  0.5957
 4356SOL    HW113463   6.584   5.353   5.779 -0.5127 -0.1829 -1.1645
 4356SOL    HW213464   6.567   5.453   5.666  1.1814  1.3676 -0.1210
 4357SOL     OW13465   3.039   0.214   4.390  0.2161  0.1224 -0.3620
 4357SOL    HW113466   3.121   0.237   4.346  0.8749 -1.3088  0.0455
 4357SOL    HW213467   2.981   0.288   4.375  1.4642  0.9936 -0.9910
 4358SOL     OW13468   0.089   5.777   4.979  0.0536  0.2484  0.4763
 4358SOL    HW113469   0.014   5.717   4.984  0.5527 -0.4936 -0.4781
 4358SOL    HW213470   0.129   5.773   5.065 -0.2595 -0.3605  0.6031
 4359SOL     OW13471   0.451   1.022   3.409 -0.0080 -0.7460  0.1216
 4359SOL    HW113472   0.542   1.012   3.384  0.0328 -0.5087  0.1653
 4359SOL    HW213473   0.416   0.933   3.413  1.2960 -1.2900  4.2759
 4360SOL     OW13474   5.553   6.458   4.313  0.3699 -0.5679  0.3884
 4360SOL    HW113475   5.606   6.424   4.385  0.4745 -1.2806 -0.0150
 4360SOL    HW213476   5.570   6.552   4.313  3.5827 -0.9991 -1.2571
 4361SOL     OW13477   5.075   4.538   2.966 -0.4411 -0.7742  0.0871
 4361SOL    HW113478   5.165   4.571   2.974 -0.4337 -1.2650  3.2170
 4361SOL    HW213479   5.085   4.443   2.956 -0.5637 -0.9687  1.5648
 4362SOL     OW13480   5.864   5.285   5.152  0.0622  0.0821  0.3376
 4362SOL    HW113481   5.825   5.253   5.233  0.5848  0.6860  0.8317
 4362SOL    HW213482   5.930   5.220   5.130 -1.4445 -1.1674 -0.7229
 4363SOL     OW13483   5.424   5.145   5.461  0.5601 -0.5075  0.0916
 4363SOL    HW113484   5.349   5.114   5.512 -0.7255  1.0098 -0.7815
 4363SOL    HW213485   5.389   5.160   5.374  2.1128 -0.5713 -0.5716
 4364SOL     OW13486   1.266   6.112   5.455 -0.4505 -0.1093 -0.8580
 4364SOL    HW113487   1.307   6.031   5.426 -0.6717 -0.2065 -0.9042
 4364SOL    HW213488   1.325   6.181   5.424  0.1710 -0.2835 -0.0838
 4365SOL     OW13489   3.011   2.345   5.372  0.0744  0.0655  0.1966
 4365SOL    HW113490   3.001   2.334   5.467  0.5753  1.5594  0.4639
 4365SOL    HW213491   3.094   2.301   5.352  0.9996  1.4106  0.8448
 4366SOL     OW13492   5.041   3.243   6.745 -0.4193  0.1277  0.4901
 4366SOL    HW113493   5.038   3.148   6.743 -0.9671  0.1582 -0.5845
 4366SOL    HW213494   5.128   3.264   6.779  0.9517 -0.7533 -2.2213
 4367SOL     OW13495   3.711   2.811   0.522  0.6148  0.3782 -0.3422
 4367SOL    HW113496   3.615   2.809   0.522  0.5255  0.7753  2.2858
 4367SOL    HW213497   3.734   2.862   0.600  2.9906  2.1231 -2.0251
 4368SOL     OW13498   6.286   6.390   2.614  0.6277  0.0715  0.2003
 4368SOL    HW113499   6.361   6.369   2.669  1.9886 -1.0734 -1.9844
 4368SOL    HW213500   6.297   6.483   2.593  0.7046  0.2334  0.9381
 4369SOL     OW13501   2.364   1.929   2.539  0.0724  0.1566 -0.5926
 4369SOL    HW113502   2.279   1.919   2.584 -0.7879 -2.4043 -2.6050
 4369SOL    HW213503   2.402   1.841   2.539  4.7146  1.6500  3.5132
 4370SOL     OW13504   4.564   1.092   4.070 -0.0687  0.6265 -0.9570
 4370SOL    HW113505   4.555   1.007   4.028  1.2736 -1.0732  1.8657
 4370SOL    HW213506   4.474   1.117   4.092 -0.4229 -0.5255 -1.0254
 4371SOL     OW13507   0.632   3.668   6.941  0.0970 -0.0390  0.1426
 4371SOL    HW113508   0.537   3.674   6.931  0.1407  0.9497  0.2572
 4371SOL    HW213509   0.646   3.581   6.978 -0.7691 -0.1622  0.2083
 4372SOL     OW13510   0.657   0.452   1.095 -0.0145  0.9589  0.1182
 4372SOL    HW113511   0.705   0.488   1.020  1.7869 -0.7531  0.3764
 4372SOL    HW213512   0.720   0.395   1.139 -1.9874 -0.5789  1.1069
 4373SOL     OW13513   6.740   4.982   1.428  0.1914  0.3687  0.4165
 4373SOL    HW113514   6.779   5.047   1.486  1.2085  0.9147 -0.8465
 4373SOL    HW213515   6.812   4.953   1.372 -0.8503  0.1745 -0.8780
 4374SOL     OW13516   1.399   2.287   6.173  0.0631 -0.6197  0.5294
 4374SOL    HW113517   1.369   2.231   6.245  0.1730 -0.7499  0.4737
 4374SOL    HW213518   1.478   2.244   6.140  0.1784 -0.4013  0.5234
 4375SOL     OW13519   5.501   1.092   6.364  0.0055  0.0143 -0.2024
 4375SOL    HW113520   5.472   1.183   6.369  0.5384  0.1743  0.1132
 4375SOL    HW213521   5.511   1.065   6.456  3.3722  0.8085 -0.2030
 4376SOL     OW13522   4.375   3.161   3.673  0.2665 -0.0370 -0.4946
 4376SOL    HW113523   4.448   3.148   3.613  0.4268 -0.8180 -0.1433
 4376SOL    HW213524   4.399   3.240   3.722  1.8392 -1.3326  0.9547
 4377SOL     OW13525   5.595   5.803   0.665  0.5379 -0.4755  0.0411
 4377SOL    HW113526   5.674   5.756   0.692  1.1187 -0.1618 -1.0798
 4377SOL    HW213527   5.613   5.894   0.688 -0.0682 -0.5914  1.0371
 4378SOL     OW13528   1.429   1.254   0.887  0.0809  0.1500  0.0320
 4378SOL    HW113529   1.373   1.187   0.926  1.6377 -1.2547 -0.0432
 4378SOL    HW213530   1.504   1.206   0.853  1.9091  2.0733  1.1557
 4379SOL     OW13531   1.045   4.724   3.432 -0.1008  0.4069 -0.1200
 4379SOL    HW113532   1.027   4.818   3.437 -0.6220  0.3022  0.0230
 4379SOL    HW213533   0.970   4.683   3.475  0.2619 -0.0614  0.0727
 4380SOL     OW13534   6.655   6.550   2.861 -0.2553 -0.5403 -0.1014
 4380SOL    HW113535   6.701   6.502   2.930  1.0508  0.2456 -0.3763
 4380SOL    HW213536   6.688   6.510   2.780  2.7885  2.2577 -0.4642
 4381SOL     OW13537   3.715   6.147   6.553  0.1094  0.3123 -0.2955
 4381SOL    HW113538   3.668   6.225   6.584 -0.2913  0.1409 -0.4525
 4381SOL    HW213539   3.798   6.148   6.599  0.2951  1.0860 -0.6417
 4382SOL     OW13540   5.228   0.947   3.773  0.1097  0.1757  0.1844
 4382SOL    HW113541   5.183   0.888   3.834  1.3681  0.3868  1.3598
 4382SOL    HW213542   5.247   1.025   3.824  1.0315  0.4456 -0.5383
 4383SOL     OW13543   5.168   1.409   5.008 -0.1357 -0.0671  0.5959
 4383SOL    HW113544   5.083   1.430   5.047 -0.7561  1.9689 -1.5860
 4383SOL    HW213545   5.149   1.339   4.946 -0.0727 -0.1896  0.7170
 4384SOL     OW13546   4.679   2.857   3.623 -0.0855  0.2695 -0.2754
 4384SOL    HW113547   4.692   2.810   3.540  0.7250  1.1104 -0.6368
 4384SOL    HW213548   4.633   2.937   3.598 -0.8318  0.0150  0.2470
 4385SOL     OW13549   2.353   0.937   4.675 -0.2525  0.0015 -0.0168
 4385SOL    HW113550   2.367   0.958   4.583  0.0175 -0.6560 -0.1311
 4385SOL    HW213551   2.425   0.878   4.697 -0.2311  0.2749  0.6561
 4386SOL     OW13552   1.601   6.358   0.972 -0.7781  0.0706  0.6766
 4386SOL    HW113553   1.617   6.280   1.026  1.6538  1.0683  1.5592
 4386SOL    HW213554   1.609   6.431   1.033 -1.2879  1.1000 -0.4523
 4387SOL     OW13555   6.571   4.218   0.169 -0.2232  0.8099 -0.5501
 4387SOL    HW113556   6.630   4.253   0.236  1.3868 -1.0451 -0.9309
 4387SOL    HW213557   6.623   4.216   0.089 -1.2833  0.4895 -1.2618
 4388SOL     OW13558   0.233   2.202   4.563 -0.4829 -0.2957 -0.3666
 4388SOL    HW113559   0.297   2.269   4.537 -0.0061 -0.1782  1.0062
 4388SOL    HW213560   0.184   2.184   4.483 -1.1513  2.2725 -0.6386
 4389SOL     OW13561   0.651   3.331   1.281 -0.2192 -0.0680 -0.2142
 4389SOL    HW113562   0.603   3.410   1.256  1.4449  1.2614  0.5626
 4389SOL    HW213563   0.618   3.263   1.222 -1.1920  1.3666 -1.3988
 4390SOL     OW13564   6.775   0.010   0.770  0.9582 -0.0690  0.5912
 4390SOL    HW113565   6.822  -0.052   0.715 -1.9152 -2.0469  0.1698
 4390SOL    HW213566   6.815   0.001   0.857  2.4841 -0.3373 -0.1183
 4391SOL     OW13567   5.713   1.701   5.019 -0.7205 -0.2106 -0.2529
 4391SOL    HW113568   5.687   1.681   5.109 -0.5578  0.1913 -0.1112
 4391SOL    HW213569   5.744   1.792   5.023  0.9315 -0.7439 -0.3748
 4392SOL     OW13570   3.964   6.303   0.942  0.1538 -0.4044 -0.1259
 4392SOL    HW113571   3.990   6.349   1.022 -0.1370 -0.4185 -0.0220
 4392SOL    HW213572   4.046   6.274   0.903  0.2413 -1.6487  0.9023
 4393SOL     OW13573   1.245   5.855   6.469  0.4094  0.1074 -0.1010
 4393SOL    HW113574   1.302   5.928   6.445 -0.3173  0.3572 -1.1649
 4393SOL    HW213575   1.272   5.832   6.557 -0.1876  2.5191  0.8020
 4394SOL     OW13576   0.673   3.004   3.093  0.6175  0.0413 -0.4008
 4394SOL    HW113577   0.757   3.047   3.075  0.8561 -0.2104  0.0960
 4394SOL    HW213578   0.678   2.920   3.046  0.9790 -0.3340  0.3050
 4395SOL     OW13579   6.826   6.134   2.822 -0.8504 -0.4278  0.1959
 4395SOL    HW113580   6.835   6.215   2.872 -0.2594  0.8660 -1.8558
 4395SOL    HW213581   6.763   6.155   2.753 -0.5387 -1.6442 -0.5002
 4396SOL     OW13582   1.682   2.176   4.999  0.2008  0.5486 -0.9844
 4396SOL    HW113583   1.772   2.178   4.965  0.8218 -0.7353  0.4658
 4396SOL    HW213584   1.677   2.253   5.056  1.1375 -0.5294  0.6269
 4397SOL     OW13585   0.663   2.414   1.614 -1.0747  0.6809 -0.4232
 4397SOL    HW113586   0.732   2.395   1.550 -0.8697  1.0778 -0.3233
 4397SOL    HW213587   0.664   2.509   1.622 -1.3359  0.6543 -0.0866
 4398SOL     OW13588   5.068   6.802   1.376 -0.6775  0.3023 -0.2847
 4398SOL    HW113589   5.017   6.732   1.337  1.8547 -0.9184 -1.6557
 4398SOL    HW213590   5.075   6.868   1.307 -1.4833  1.0972  0.3643
 4399SOL     OW13591   0.159   6.784   3.719  0.3317  0.3847 -0.1448
 4399SOL    HW113592   0.126   6.694   3.718 -0.8866  0.8122 -1.0952
 4399SOL    HW213593   0.233   6.781   3.780  1.1439 -1.5449 -1.1102
 4400SOL     OW13594   5.591   4.986   6.234  0.7794 -0.0282  0.7580
 4400SOL    HW113595   5.601   5.042   6.157 -1.2962 -1.1959 -0.4458
 4400SOL    HW213596   5.516   5.024   6.281 -0.8039 -1.7793 -0.1878
 4401SOL     OW13597   2.180   5.079   1.693  0.2405  0.4425  0.1233
 4401SOL    HW113598   2.089   5.084   1.664  0.4269  0.3052 -0.4919
 4401SOL    HW213599   2.182   5.002   1.749  0.2700 -0.3672 -0.9604
 4402SOL     OW13600   5.652   6.857   3.302 -0.0333  0.0245 -0.4408
 4402SOL    HW113601   5.615   6.892   3.383 -1.9729  2.0182 -2.0543
 4402SOL    HW213602   5.746   6.849   3.319 -0.2355  1.4054  1.6518
 4403SOL     OW13603   6.492   4.555   6.521  0.4614  0.1233 -0.0208
 4403SOL    HW113604   6.551   4.629   6.505  1.8972 -0.9190  0.3332
 4403SOL    HW213605   6.539   4.499   6.583 -0.2720 -1.4916 -0.8664
 4404SOL     OW13606   0.236   5.589   3.175  0.2128 -0.3068 -0.1280
 4404SOL    HW113607   0.256   5.557   3.087  1.1646  1.8158 -0.7437
 4404SOL    HW213608   0.167   5.654   3.161 -0.0681 -0.3918  0.7987
 4405SOL     OW13609   4.366   3.675   0.756 -0.1553  0.0197  0.1387
 4405SOL    HW113610   4.460   3.685   0.746 -0.2077  1.4361  0.7542
 4405SOL    HW213611   4.350   3.685   0.850 -0.9130 -0.2201  0.0461
 4406SOL     OW13612   2.331   2.625   5.101  0.3132  0.0408 -0.1861
 4406SOL    HW113613   2.374   2.540   5.095 -0.4602 -0.3319 -0.4892
 4406SOL    HW213614   2.322   2.655   5.011  0.5828  0.4489 -0.0826
 4407SOL     OW13615   3.503   2.517   5.666 -0.4251 -0.1858  0.1316
 4407SOL    HW113616   3.409   2.526   5.647 -0.4021  1.5110  0.6970
 4407SOL    HW213617   3.544   2.588   5.617  0.5199 -0.5653  0.3550
 4408SOL     OW13618   1.681   4.269   3.414 -0.0612  0.1081 -0.3872
 4408SOL    HW113619   1.710   4.354   3.447 -1.8374  0.5808  0.0883
 4408SOL    HW213620   1.638   4.288   3.331 -0.8800 -0.2315 -0.0569
 4409SOL     OW13621   1.777   3.626   4.572 -0.0172  0.3018  0.2103
 4409SOL    HW113622   1.684   3.645   4.563 -0.0911 -0.3908 -0.6138
 4409SOL    HW213623   1.813   3.636   4.484  0.5036 -0.3675  0.3375
 4410SOL     OW13624   2.284   0.187   5.850  0.0049  0.2761 -0.3486
 4410SOL    HW113625   2.333   0.186   5.768  0.4432  0.5236 -0.0958
 4410SOL    HW213626   2.342   0.231   5.912  0.0790 -0.7663  0.3433
 4411SOL     OW13627   1.165   0.937   2.627 -0.0854  0.1610  0.4100
 4411SOL    HW113628   1.179   0.957   2.719 -0.5102 -0.7175  0.6830
 4411SOL    HW213629   1.149   1.022   2.585 -0.5313  0.5059  1.2649
 4412SOL     OW13630   5.711   2.027   6.745 -0.0023 -0.0465  0.4457
 4412SOL    HW113631   5.669   2.088   6.684  1.3996  0.9354  0.4188
 4412SOL    HW213632   5.652   2.023   6.820 -1.1541 -0.3351 -0.4419
 4413SOL     OW13633   3.131   6.042   6.411 -0.0553  0.2746  0.2218
 4413SOL    HW113634   3.206   6.101   6.417 -0.1471  0.4867 -0.5074
 4413SOL    HW213635   3.055   6.100   6.410 -0.0782  0.3225 -2.2718
 4414SOL     OW13636   1.428   6.698   5.441  0.3788 -0.4174 -0.0265
 4414SOL    HW113637   1.332   6.693   5.439  0.4010 -0.8860  0.0867
 4414SOL    HW213638   1.455   6.672   5.353  0.3000  2.3523 -0.9758
 4415SOL     OW13639   4.643   2.356   1.147 -0.2968  0.2419 -0.4223
 4415SOL    HW113640   4.670   2.381   1.058  1.0189  0.9966  0.1503
 4415SOL    HW213641   4.638   2.260   1.144  0.7165  0.1903 -1.0675
 4416SOL     OW13642   6.230   4.616   3.747  0.3384  0.0374 -0.9403
 4416SOL    HW113643   6.154   4.671   3.728  0.3741  0.4230  0.0103
 4416SOL    HW213644   6.303   4.662   3.706  0.6139  1.5075  1.0755
 4417SOL     OW13645   0.961   6.273   3.839  0.1438  0.4609  0.1489
 4417SOL    HW113646   0.911   6.285   3.758  0.9803  0.0707 -0.4438
 4417SOL    HW213647   1.046   6.312   3.821  0.1856  0.8038  1.0230
 4418SOL     OW13648   1.395   3.775   5.859  0.1919 -0.9303  0.8138
 4418SOL    HW113649   1.436   3.754   5.775 -0.3006 -0.0016  0.3269
 4418SOL    HW213650   1.426   3.707   5.918  1.3652 -1.0240  0.1326
 4419SOL     OW13651   1.973   5.305   2.777 -0.4050 -0.5149  0.2572
 4419SOL    HW113652   1.946   5.213   2.777 -2.0215 -0.0824  1.1527
 4419SOL    HW213653   1.988   5.325   2.870  1.3926 -0.2424 -0.0548
 4420SOL     OW13654   5.066   0.027   4.131 -0.3134  0.1447 -0.0710
 4420SOL    HW113655   5.053   0.102   4.072  0.9975  0.2980 -0.1857
 4420SOL    HW213656   5.146   0.048   4.179 -0.8640 -0.4144  1.1145
 4421SOL     OW13657   2.392   1.363   6.919  0.4068 -0.1444 -0.1924
 4421SOL    HW113658   2.379   1.354   6.825 -0.3290 -2.0405  0.0394
 4421SOL    HW213659   2.487   1.363   6.931  0.5323  1.0518 -0.9694
 4422SOL     OW13660   6.530   1.503   5.735 -0.0589 -0.2461 -0.2195
 4422SOL    HW113661   6.612   1.484   5.689  0.6558 -1.8873  1.5813
 4422SOL    HW213662   6.542   1.591   5.771  0.9167 -0.4692  0.0148
 4423SOL     OW13663   4.794   1.979   0.820 -0.1479 -0.2908 -0.6383
 4423SOL    HW113664   4.787   1.884   0.820 -0.0382 -0.3328  1.0643
 4423SOL    HW213665   4.823   2.002   0.732 -0.3798 -1.8118 -1.1224
 4424SOL     OW13666   3.611   1.276   2.141  0.0103 -0.4628  0.1420
 4424SOL    HW113667   3.633   1.194   2.184  1.6184 -0.3959 -0.4689
 4424SOL    HW213668   3.690   1.331   2.152 -0.4263  0.3947 -0.8290
 4425SOL     OW13669   1.648   4.935   6.630  0.5958  0.6500 -0.2066
 4425SOL    HW113670   1.739   4.927   6.662  0.5879 -2.2943 -0.6218
 4425SOL    HW213671   1.631   4.851   6.587 -2.8917  0.3926  1.3405
 4426SOL     OW13672   3.594   2.467   0.671  0.3290  0.8362 -0.3042
 4426SOL    HW113673   3.680   2.509   0.677  0.2118  1.0995 -0.4697
 4426SOL    HW213674   3.592   2.406   0.745  0.6174  0.9025 -0.2399
 4427SOL     OW13675   0.909   0.328   3.272 -0.0483  0.2268 -0.1632
 4427SOL    HW113676   0.926   0.254   3.214  0.3477 -1.0954  1.5563
 4427SOL    HW213677   0.847   0.383   3.224  1.9227  0.3933 -2.7562
 4428SOL     OW13678   4.029   0.249   0.909  0.2286  0.1112 -0.2456
 4428SOL    HW113679   3.978   0.315   0.861 -0.2845 -0.6711 -0.8098
 4428SOL    HW213680   4.094   0.219   0.846 -0.6897 -1.1962 -0.6217
 4429SOL     OW13681   1.931   0.746   0.688 -0.1311  0.0723  0.1180
 4429SOL    HW113682   1.982   0.722   0.610  1.3247  1.3836  0.6034
 4429SOL    HW213683   1.868   0.675   0.698 -0.8808  0.2092 -2.6709
 4430SOL     OW13684   3.523   6.212   2.918 -0.3152 -0.1267  0.8258
 4430SOL    HW113685   3.568   6.293   2.892 -1.6829  0.7064  0.9728
 4430SOL    HW213686   3.572   6.143   2.874  2.5679  0.4657  2.7805
 4431SOL     OW13687   4.454   6.392   0.089  0.0507  0.5937  0.0700
 4431SOL    HW113688   4.386   6.325   0.087  1.1363 -0.5556 -1.8333
 4431SOL    HW213689   4.407   6.474   0.074 -1.0366 -0.0310 -0.0605
 4432SOL     OW13690   1.360   5.875   4.387  0.1292 -0.4991 -0.5080
 4432SOL    HW113691   1.370   5.908   4.476  0.2559 -1.2622 -0.2267
 4432SOL    HW213692   1.439   5.823   4.372  0.7233  0.6372 -1.5420
 4433SOL     OW13693   5.060   0.228   6.425  0.6491  0.1690  0.4479
 4433SOL    HW113694   5.084   0.137   6.444 -0.7795 -0.4438 -0.4939
 4433SOL    HW213695   5.139   0.265   6.386  1.8775 -0.0738  2.5059
 4434SOL     OW13696   2.122   0.604   4.895  0.0890  0.0015  0.4204
 4434SOL    HW113697   2.031   0.587   4.871 -0.0341  1.5252 -0.3104
 4434SOL    HW213698   2.167   0.614   4.812  0.0128  3.5659  0.6558
 4435SOL     OW13699   4.366   6.251   6.000 -0.1732 -0.6839  0.1660
 4435SOL    HW113700   4.366   6.299   5.917  2.8337 -1.3591 -0.3456
 4435SOL    HW213701   4.389   6.316   6.066  0.8897 -0.7927 -0.0810
 4436SOL     OW13702   3.246   6.469   5.865 -0.0428  0.0268  0.0423
 4436SOL    HW113703   3.168   6.416   5.882  1.5456 -3.0003 -1.3300
 4436SOL    HW213704   3.304   6.450   5.938  0.1985  0.6066  0.0017
 4437SOL     OW13705   4.496   6.306   3.414 -0.7646 -0.0438 -0.2103
 4437SOL    HW113706   4.567   6.323   3.477 -1.6099  0.4275  0.6334
 4437SOL    HW213707   4.452   6.228   3.449 -0.5587 -0.4527 -0.8401
 4438SOL     OW13708   1.465   5.244   6.082 -0.0647  0.4567 -0.0369
 4438SOL    HW113709   1.372   5.260   6.094  0.2264  0.2473  3.2708
 4438SOL    HW213710   1.469   5.171   6.020 -2.1441 -0.3220  0.6858
 4439SOL     OW13711   5.896   0.358   0.115 -0.2970 -0.3966  0.1289
 4439SOL    HW113712   5.947   0.375   0.195 -0.3007  1.7230 -0.2658
 4439SOL    HW213713   5.805   0.369   0.142 -0.2576  1.3767 -0.3446
 4440SOL     OW13714   4.938   6.016   4.400 -0.4360 -0.3429  0.1676
 4440SOL    HW113715   4.857   6.038   4.355 -0.8477 -2.0103  0.0139
 4440SOL    HW213716   4.912   6.005   4.492  0.0173  1.0909  0.4793
 4441SOL     OW13717   5.157   6.241   2.710 -0.4334  0.3238  0.2565
 4441SOL    HW113718   5.100   6.268   2.639  0.9047  1.1719 -0.5444
 4441SOL    HW213719   5.112   6.267   2.790 -2.3549 -1.3984 -0.1837
 4442SOL     OW13720   6.277   3.753   1.000 -0.2783 -0.1857 -0.4852
 4442SOL    HW113721   6.250   3.744   0.909 -2.2994 -0.9425  0.1358
 4442SOL    HW213722   6.211   3.811   1.039 -0.7512 -1.6442  0.9808
 4443SOL     OW13723   6.693   4.840   6.290 -0.7716  0.4313  0.5400
 4443SOL    HW113724   6.649   4.850   6.375 -1.2679 -0.5997  0.4217
 4443SOL    HW213725   6.783   4.816   6.312 -1.3800 -1.8182  0.8177
 4444SOL     OW13726   4.331   1.363   5.584  0.3450 -0.5262 -0.3148
 4444SOL    HW113727   4.386   1.286   5.573  1.3978 -0.0732  1.4701
 4444SOL    HW213728   4.266   1.337   5.649  1.5613  0.4431  1.3837
 4445SOL     OW13729   4.895   5.642   4.897  0.4840 -0.1177  0.1635
 4445SOL    HW113730   4.837   5.611   4.827  1.5595 -2.5085  0.2497
 4445SOL    HW213731   4.852   5.615   4.978  0.4312  0.4727  0.3333
 4446SOL     OW13732   5.794   0.409   3.753 -0.1088 -0.0037 -0.4262
 4446SOL    HW113733   5.724   0.377   3.810  0.6745 -2.6774 -0.8116
 4446SOL    HW213734   5.754   0.412   3.666  0.3671 -2.4728 -0.8248
 4447SOL     OW13735   6.589   4.536   0.945  0.6012 -0.4857  0.4040
 4447SOL    HW113736   6.519   4.595   0.916  1.9833  0.2727 -1.6798
 4447SOL    HW213737   6.549   4.481   1.012 -1.7091  0.5402 -0.0478
 4448SOL     OW13738   5.622   0.029   1.590 -0.6113  0.6440 -0.2499
 4448SOL    HW113739   5.676   0.013   1.512 -0.3256 -1.2475  0.2929
 4448SOL    HW213740   5.616   0.124   1.595 -0.9265  0.8317 -2.7710
 4449SOL     OW13741   5.217   6.643   0.307  0.0026  0.5459 -0.2122
 4449SOL    HW113742   5.210   6.577   0.238 -0.7120 -2.1035  2.2136
 4449SOL    HW213743   5.137   6.695   0.298 -0.1844  0.1076 -1.2554
 4450SOL     OW13744   2.066   0.121   2.298  0.4722  0.2446  0.1694
 4450SOL    HW113745   1.995   0.078   2.250  0.1012 -0.5777  1.4187
 4450SOL    HW213746   2.022   0.175   2.363  0.9557  1.9402 -0.8380
 4451SOL     OW13747   5.112   6.639   2.597 -0.0254  0.1386 -0.7744
 4451SOL    HW113748   5.055   6.593   2.535 -1.4328  0.4071  0.3061
 4451SOL    HW213749   5.201   6.615   2.568 -0.6782 -1.3820 -1.6498
 4452SOL     OW13750   6.811   2.178   2.187 -0.1556 -0.4902  0.3866
 4452SOL    HW113751   6.808   2.224   2.271 -0.1314  1.1088 -0.4374
 4452SOL    HW213752   6.876   2.227   2.136 -0.3972 -1.2379 -0.6691
 4453SOL     OW13753   6.533   4.048   4.036 -0.7440 -0.4473  0.0362
 4453SOL    HW113754   6.527   4.090   3.950 -1.2621 -0.5523  0.0143
 4453SOL    HW213755   6.443   4.022   4.056 -0.3878 -2.0070 -0.1817
 4454SOL     OW13756   6.196   6.940   0.869 -0.5090 -0.2159 -0.5846
 4454SOL    HW113757   6.292   6.942   0.866 -0.5021  1.6704 -0.2563
 4454SOL    HW213758   6.169   7.007   0.806 -1.6127 -0.5266 -0.4597
 4455SOL     OW13759   6.101   1.633   3.495  0.1064 -0.1290  0.0179
 4455SOL    HW113760   6.162   1.571   3.534  0.9586  0.9809  0.4896
 4455SOL    HW213761   6.133   1.646   3.406 -0.4075 -0.7733 -0.2755
 4456SOL     OW13762   5.657   3.735   0.924  0.1173 -0.4301  0.1250
 4456SOL    HW113763   5.727   3.703   0.982 -0.1655  0.3105  0.8890
 4456SOL    HW213764   5.585   3.673   0.937 -0.0130 -0.1573  0.7168
 4457SOL     OW13765   5.694   2.126   3.099 -0.4356  0.4875 -0.2978
 4457SOL    HW113766   5.723   2.202   3.149  0.2452 -0.4313  0.7390
 4457SOL    HW213767   5.601   2.142   3.084 -0.2303  1.6972 -0.4365
 4458SOL     OW13768   4.824   5.308   6.062 -0.1965  0.6706 -0.8261
 4458SOL    HW113769   4.755   5.289   5.998  0.3759 -1.3203 -0.8962
 4458SOL    HW213770   4.902   5.323   6.009  0.1796 -0.5367 -0.6273
 4459SOL     OW13771   4.256   1.553   6.154  0.7233 -0.6670  0.0186
 4459SOL    HW113772   4.285   1.476   6.203  0.7101  0.5432  2.0839
 4459SOL    HW213773   4.296   1.627   6.201 -0.7789  0.6815 -0.7181
 4460SOL     OW13774   0.442   2.364   0.585 -0.7420 -0.4900  0.1535
 4460SOL    HW113775   0.388   2.428   0.538  0.0087  0.6465  0.7933
 4460SOL    HW213776   0.510   2.339   0.523  1.5850  2.6557  1.1494
 4461SOL     OW13777   4.355   5.731   5.976 -0.0622  0.1224 -0.2024
 4461SOL    HW113778   4.428   5.676   6.005 -1.2439 -0.7862  1.1942
 4461SOL    HW213779   4.295   5.671   5.934 -1.0182  0.4479  0.6483
 4462SOL     OW13780   0.315   6.893   4.875  0.2684  0.1689 -0.5023
 4462SOL    HW113781   0.329   6.867   4.966  1.2648 -0.0042 -0.6922
 4462SOL    HW213782   0.229   6.936   4.875 -0.2287 -0.7878  0.3110
 4463SOL     OW13783   2.803   2.371   6.579  0.1642 -0.4199 -0.2621
 4463SOL    HW113784   2.760   2.351   6.663  0.6950  1.7876  0.6039
 4463SOL    HW213785   2.764   2.453   6.551  1.6055  0.0321 -1.0354
 4464SOL     OW13786   6.685   3.218   2.408  0.0193 -0.3182 -0.4040
 4464SOL    HW113787   6.654   3.238   2.497  1.9431 -3.2757  1.1142
 4464SOL    HW213788   6.626   3.149   2.378 -1.0647  1.1606 -1.8067
 4465SOL     OW13789   5.155   6.894   1.959  0.0696  0.0016  0.1117
 4465SOL    HW113790   5.148   6.969   1.900  0.4709  1.5018  1.8619
 4465SOL    HW213791   5.230   6.914   2.014 -0.6203 -1.0522  1.4990
 4466SOL     OW13792   1.170   0.263   2.677  0.3549  0.0485 -0.1488
 4466SOL    HW113793   1.120   0.340   2.703  0.9372  0.0344  1.0699
 4466SOL    HW213794   1.253   0.298   2.645  0.6453 -0.0580  0.4672
 4467SOL     OW13795   1.618   4.141   2.280  0.3968  0.2977 -0.4993
 4467SOL    HW113796   1.633   4.150   2.186  0.5139  2.0711 -0.3423
 4467SOL    HW213797   1.697   4.099   2.313  0.4180 -0.2019 -1.1564
 4468SOL     OW13798   6.549   0.298   1.504  0.2820 -0.7276 -0.1783
 4468SOL    HW113799   6.536   0.227   1.440 -0.3574 -0.1894 -0.6586
 4468SOL    HW213800   6.496   0.370   1.471  0.7192 -0.1046  0.4483
 4469SOL     OW13801   1.421   5.477   4.934  0.0828 -0.5488  0.2954
 4469SOL    HW113802   1.339   5.487   4.885  0.5500  1.1097 -0.2287
 4469SOL    HW213803   1.394   5.479   5.026 -0.5604 -1.1551  0.1344
 4470SOL     OW13804   3.023   1.249   1.891 -0.4148 -0.0076  0.1360
 4470SOL    HW113805   3.038   1.240   1.797  2.8600 -0.6535  0.6026
 4470SOL    HW213806   3.079   1.183   1.932 -1.7667  0.2116  2.5851
 4471SOL     OW13807   5.582   3.802   5.273  0.4762 -0.4048 -0.1059
 4471SOL    HW113808   5.619   3.781   5.187 -0.5144  1.1558 -0.9462
 4471SOL    HW213809   5.533   3.883   5.260  0.5236  0.0341  1.9980
 4472SOL     OW13810   1.962   2.963   5.789 -0.3362  0.4216  0.6094
 4472SOL    HW113811   1.904   3.008   5.850 -0.5704 -1.1850  1.6136
 4472SOL    HW213812   2.047   2.963   5.833 -0.1441  0.5993  0.2416
 4473SOL     OW13813   5.474   2.979   6.373  0.0810  0.8978  0.4654
 4473SOL    HW113814   5.483   2.884   6.385 -0.1544  0.6911 -0.8457
 4473SOL    HW213815   5.541   3.016   6.429  1.2974 -0.1229 -0.2613
 4474SOL     OW13816   5.759   6.346   3.180  0.3268  0.0096  0.0567
 4474SOL    HW113817   5.748   6.405   3.106 -1.3193  0.4686  0.6167
 4474SOL    HW213818   5.798   6.400   3.248 -2.3414  0.9215  1.0016
 4475SOL     OW13819   4.161   6.774   4.653  0.3958  0.1655 -0.6904
 4475SOL    HW113820   4.161   6.717   4.576  1.1474 -0.9017  0.0633
 4475SOL    HW213821   4.129   6.718   4.724  1.2375  0.6431  0.0894
 4476SOL     OW13822   4.237   2.401   1.200  0.4317 -0.0751  0.0519
 4476SOL    HW113823   4.203   2.470   1.144 -0.6693  0.2465  1.0750
 4476SOL    HW213824   4.274   2.447   1.276 -2.0616 -0.5718  1.7045
 4477SOL     OW13825   5.431   0.696   3.926  0.3562 -0.0521  0.4136
 4477SOL    HW113826   5.458   0.767   3.867  1.6935 -0.5334  0.4152
 4477SOL    HW213827   5.343   0.721   3.954  0.4972  1.2245 -0.1855
 4478SOL     OW13828   4.535   2.601   1.132 -0.2055 -0.4157 -0.0632
 4478SOL    HW113829   4.616   2.623   1.085  0.5173  0.3161  1.4536
 4478SOL    HW213830   4.539   2.506   1.142  2.0530 -0.1663  2.6027
 4479SOL     OW13831   6.335   5.143   1.977 -0.3970  0.3043 -0.8541
 4479SOL    HW113832   6.330   5.154   2.072 -0.9537 -3.0356 -0.3950
 4479SOL    HW213833   6.428   5.138   1.958 -0.2697 -2.3149  0.0905
 4480SOL     OW13834   6.512   2.191   4.816  0.3234  0.4800 -0.1605
 4480SOL    HW113835   6.585   2.141   4.778 -0.5593 -1.0495  0.0581
 4480SOL    HW213836   6.490   2.143   4.896 -2.3795 -0.5033 -1.3550
 4481SOL     OW13837   0.277   0.330   1.851 -0.2890  0.0190 -0.4352
 4481SOL    HW113838   0.199   0.383   1.838 -0.8541  0.5942  3.8320
 4481SOL    HW213839   0.347   0.393   1.867 -0.0210 -0.4705  0.4287
 4482SOL     OW13840   1.914   3.685   6.545  0.0147 -0.1058  0.8507
 4482SOL    HW113841   1.888   3.633   6.621 -2.3345 -0.2289  0.0536
 4482SOL    HW213842   1.833   3.727   6.515  0.4092 -1.4764 -2.6618
 4483SOL     OW13843   6.299   3.832   0.256 -0.0344 -0.1046 -0.2650
 4483SOL    HW113844   6.212   3.800   0.280 -0.1787 -1.7447 -2.5527
 4483SOL    HW213845   6.325   3.776   0.183  1.9561  1.8659 -1.1842
 4484SOL     OW13846   6.498   6.016   0.340 -0.0368 -0.1791 -0.0179
 4484SOL    HW113847   6.482   5.949   0.273 -0.2921  0.6079 -0.7748
 4484SOL    HW213848   6.550   5.972   0.407 -0.4841 -1.2153 -0.3365
 4485SOL     OW13849   4.336   6.855   1.286  0.2549  0.5548 -0.2631
 4485SOL    HW113850   4.331   6.949   1.273  0.7971  0.4231 -1.5165
 4485SOL    HW213851   4.429   6.837   1.301  0.0987  0.2630  0.4079
 4486SOL     OW13852   0.053   5.451   5.264  0.1003 -0.6617  0.0462
 4486SOL    HW113853  -0.008   5.466   5.336  0.3667 -0.8022  0.2991
 4486SOL    HW213854   0.007   5.484   5.187 -0.7147 -1.6516  0.0775
 4487SOL     OW13855   3.871   5.667   4.358 -0.3275 -0.2199 -0.7020
 4487SOL    HW113856   3.807   5.628   4.299 -2.0735 -0.3630  1.1685
 4487SOL    HW213857   3.819   5.699   4.432  1.9345 -2.3650  2.0273
 4488SOL     OW13858   0.310   3.631   2.050 -0.6836  0.5638 -0.4064
 4488SOL    HW113859   0.329   3.586   2.132 -3.5551 -2.2182 -1.0613
 4488SOL    HW213860   0.214   3.628   2.043 -0.5306  0.4842 -3.9484
 4489SOL     OW13861   0.137   0.836   2.791 -0.3745  0.1961 -0.0687
 4489SOL    HW113862   0.187   0.900   2.842 -0.6037  0.9337 -0.7408
 4489SOL    HW213863   0.135   0.872   2.703  1.6133 -1.9430 -1.1052
 4490SOL     OW13864   4.704   6.512   5.882  0.0618  0.1011  0.1453
 4490SOL    HW113865   4.792   6.532   5.852 -0.0646 -1.7749 -1.6792
 4490SOL    HW213866   4.715   6.478   5.970  1.0348  0.7522  0.2871
 4491SOL     OW13867   6.917   3.853   6.105  0.0032 -0.1702 -0.0480
 4491SOL    HW113868   6.828   3.831   6.134  0.8886 -2.2574  1.3062
 4491SOL    HW213869   6.945   3.923   6.164  0.7767 -2.5014  2.5350
 4492SOL     OW13870   3.993   4.015   2.971  0.5803 -0.4316  0.2685
 4492SOL    HW113871   4.037   4.064   3.040  0.1382 -0.2745  0.4437
 4492SOL    HW213872   3.925   4.074   2.938  0.1274 -0.8743  0.3935
 4493SOL     OW13873   2.609   6.417   1.841 -0.4012 -0.4165  0.0988
 4493SOL    HW113874   2.601   6.506   1.807 -0.6395 -1.0547 -1.6208
 4493SOL    HW213875   2.583   6.424   1.933 -0.6808  1.2268 -0.0726
 4494SOL     OW13876   5.585   5.505   6.389 -0.0683 -0.2409  0.2278
 4494SOL    HW113877   5.641   5.475   6.317 -0.7070  1.0158 -0.8326
 4494SOL    HW213878   5.626   5.587   6.418 -0.6319  0.0027  0.3346
 4495SOL     OW13879   2.385   0.981   3.427 -0.3295  0.3507 -0.1587
 4495SOL    HW113880   2.399   0.887   3.440 -1.1303  0.1893 -0.3930
 4495SOL    HW213881   2.418   0.997   3.338 -0.7609  0.1607 -0.3574
 4496SOL     OW13882   6.505   3.930   5.012  0.3856 -0.2476  0.0196
 4496SOL    HW113883   6.595   3.916   5.043  0.5371  1.0088  0.2083
 4496SOL    HW213884   6.464   3.981   5.081 -0.2363 -0.1292 -0.4313
 4497SOL     OW13885   0.881   3.635   5.680 -0.1358  0.3186 -0.2466
 4497SOL    HW113886   0.947   3.647   5.749  0.5458 -0.3759 -0.7611
 4497SOL    HW213887   0.895   3.709   5.622 -0.1979  0.4876 -0.0492
 4498SOL     OW13888   5.490   1.480   2.123 -0.3329 -0.2616  0.4363
 4498SOL    HW113889   5.484   1.500   2.029  1.2158  0.0316  0.3669
 4498SOL    HW213890   5.540   1.398   2.126  1.6780  0.9099  1.0454
 4499SOL     OW13891   4.965   2.395   4.065 -0.1593  0.3704  0.7863
 4499SOL    HW113892   5.017   2.416   4.142 -0.2744 -0.9326  1.2576
 4499SOL    HW213893   4.964   2.299   4.063 -0.1804  0.3809 -0.8258
 4500SOL     OW13894   3.574   5.107   6.713  0.1919  0.2613  0.2048
 4500SOL    HW113895   3.605   5.193   6.742  1.5849 -0.2561  0.3169
 4500SOL    HW213896   3.611   5.096   6.626 -1.3419  0.4474 -0.4950
 4501SOL     OW13897   0.550   5.806   6.576  0.0999  0.0003  0.2522
 4501SOL    HW113898   0.496   5.758   6.513  0.2735  0.8823 -0.5970
 4501SOL    HW213899   0.621   5.842   6.523  1.2743 -0.7324  1.2617
 4502SOL     OW13900   6.867   2.782   4.940 -0.2284  0.2318  0.1020
 4502SOL    HW113901   6.921   2.850   4.980  3.2535 -1.0558 -1.9571
 4502SOL    HW213902   6.815   2.829   4.875  0.6545  1.1913  0.0587
 4503SOL     OW13903   4.935   6.462   4.331 -0.5655  0.7568  0.0247
 4503SOL    HW113904   4.982   6.456   4.414 -3.5007 -0.3349  1.7397
 4503SOL    HW213905   4.928   6.556   4.314 -0.6853  1.0416  1.5116
 4504SOL     OW13906   3.661   1.971   6.440 -0.5038  0.2131  0.7344
 4504SOL    HW113907   3.656   1.887   6.485 -1.7273 -2.0883 -3.1746
 4504SOL    HW213908   3.600   2.027   6.487 -1.9649 -2.0744  1.7634
 4505SOL     OW13909   4.020   2.728   6.349  0.0303 -0.0013  0.1418
 4505SOL    HW113910   4.100   2.739   6.297 -0.4247 -1.3448 -0.9269
 4505SOL    HW213911   3.950   2.757   6.290 -0.5940 -2.5173 -0.4618
 4506SOL     OW13912   6.444   4.796   4.063 -0.2896 -0.4758  0.1452
 4506SOL    HW113913   6.349   4.791   4.069 -0.7840  2.0766 -2.7737
 4506SOL    HW213914   6.463   4.890   4.071  1.6884 -0.6537 -1.5938
 4507SOL     OW13915   4.527   6.839   2.543  0.0735  0.6371 -0.2864
 4507SOL    HW113916   4.615   6.800   2.534 -0.1218 -0.1973  1.0743
 4507SOL    HW213917   4.482   6.814   2.463  0.3004 -1.1230  0.0805
 4508SOL     OW13918   1.567   2.572   2.088  0.7357 -0.4356  0.2392
 4508SOL    HW113919   1.575   2.627   2.166  2.4745 -0.1604 -0.0968
 4508SOL    HW213920   1.523   2.627   2.024 -0.4700 -0.5763  0.9139
 4509SOL     OW13921   2.454   3.913   4.460 -0.4149 -0.4504 -0.2879
 4509SOL    HW113922   2.541   3.941   4.489 -0.4471  0.2523 -0.8547
 4509SOL    HW213923   2.428   3.847   4.525  1.2335 -1.9178 -1.0257
 4510SOL     OW13924   6.150   0.269   6.774 -0.3255  0.7818 -0.2116
 4510SOL    HW113925   6.210   0.287   6.702 -0.1524  0.0319 -0.2608
 4510SOL    HW213926   6.194   0.203   6.826  0.9362  3.4051  2.3323
 4511SOL     OW13927   3.824   3.102   5.213  0.7180  0.0238  0.6387
 4511SOL    HW113928   3.913   3.079   5.239  0.1515 -0.9572  1.8544
 4511SOL    HW213929   3.781   3.018   5.196  0.5933  0.5590 -2.1166
 4512SOL     OW13930   3.849   6.239   6.225 -0.1096 -0.3630  0.2952
 4512SOL    HW113931   3.754   6.248   6.214  0.0455  1.6644  0.2997
 4512SOL    HW213932   3.886   6.286   6.151  0.8916  1.0951  1.6630
 4513SOL     OW13933   6.827   2.653   5.909 -0.1849  0.4976 -0.1451
 4513SOL    HW113934   6.837   2.672   5.816  2.7464 -0.6250 -0.1753
 4513SOL    HW213935   6.799   2.562   5.913 -1.9224  1.0123  0.1064
 4514SOL     OW13936   5.226   5.972   2.754  0.7858 -0.3277  0.5261
 4514SOL    HW113937   5.183   5.931   2.829  1.4800  0.4965  1.4034
 4514SOL    HW213938   5.234   6.065   2.778  0.1094  0.1636 -1.0043
 4515SOL     OW13939   0.180   5.681   6.657 -0.1955 -0.3406 -0.1888
 4515SOL    HW113940   0.138   5.733   6.588 -2.7641 -2.7988 -0.6481
 4515SOL    HW213941   0.224   5.610   6.610  1.8062  0.3597  0.5310
 4516SOL     OW13942   0.085   4.111   5.511  0.5896  0.4370  0.0999
 4516SOL    HW113943   0.060   4.020   5.498 -1.9717  0.7530  2.0142
 4516SOL    HW213944   0.109   4.117   5.603  0.7489  1.7045 -0.0004
 4517SOL     OW13945   3.465   0.888   5.384  0.0622  0.1273  0.5735
 4517SOL    HW113946   3.420   0.806   5.404  0.1777 -0.3364 -0.9723
 4517SOL    HW213947   3.467   0.935   5.468 -2.6995 -0.1053  0.8682
 4518SOL     OW13948   0.185   4.304   3.337 -0.3381  0.5037  0.0854
 4518SOL    HW113949   0.261   4.345   3.297 -1.6808  2.2492 -0.8551
 4518SOL    HW213950   0.174   4.349   3.421  0.4216 -0.6993  0.8598
 4519SOL     OW13951   5.601   5.864   2.466 -0.1700  0.1510  0.0291
 4519SOL    HW113952   5.687   5.821   2.470  0.4794  1.3557 -0.3008
 4519SOL    HW213953   5.555   5.835   2.544  0.5708 -0.4583  0.2500
 4520SOL     OW13954   2.010   2.846   4.788  0.2558 -0.3026  0.1302
 4520SOL    HW113955   2.059   2.870   4.867  1.3138 -0.2275 -0.5286
 4520SOL    HW213956   2.012   2.751   4.788 -2.2209 -0.4340  1.6823
 4521SOL     OW13957   5.228   3.255   2.106 -0.0041 -0.2601 -0.7431
 4521SOL    HW113958   5.202   3.174   2.150 -0.5793 -0.6618 -1.7914
 4521SOL    HW213959   5.221   3.322   2.174  0.7039 -1.1125  0.2031
 4522SOL     OW13960   5.428   2.153   5.699  0.5014  0.5756 -0.5933
 4522SOL    HW113961   5.334   2.146   5.709  0.5815 -0.6649 -0.5990
 4522SOL    HW213962   5.449   2.100   5.623  1.3065  0.0327 -0.0208
 4523SOL     OW13963   5.326   1.773   1.360 -0.9767  0.3305 -0.5481
 4523SOL    HW113964   5.289   1.710   1.298 -1.4609 -0.7739  0.8283
 4523SOL    HW213965   5.341   1.723   1.440  0.2500  1.5769  0.0493
 4524SOL     OW13966   6.094   2.770   0.908 -0.3117  0.9111  0.6119
 4524SOL    HW113967   6.162   2.708   0.935 -1.0628 -0.5319 -0.6580
 4524SOL    HW213968   6.073   2.818   0.988 -1.1531 -1.9057  2.2448
 4525SOL     OW13969   3.898   4.182   0.855 -0.1333 -0.0594  0.2405
 4525SOL    HW113970   3.974   4.125   0.840  0.8184  1.6080 -1.8027
 4525SOL    HW213971   3.827   4.142   0.804  0.1828 -0.0782 -0.1887
 4526SOL     OW13972   2.305   0.946   0.985 -0.1835  0.0179  0.3674
 4526SOL    HW113973   2.284   0.978   1.073  0.5882  0.2408  0.4820
 4526SOL    HW213974   2.221   0.945   0.939 -1.2295 -3.0963  2.0222
 4527SOL     OW13975   4.780   6.178   2.219 -0.1930 -0.1466  0.0613
 4527SOL    HW113976   4.725   6.124   2.161  0.2818  1.0651 -1.6104
 4527SOL    HW213977   4.852   6.206   2.163 -0.1140  1.7423  1.0299
 4528SOL     OW13978   5.675   3.610   5.022  0.1860 -0.3120  0.6004
 4528SOL    HW113979   5.715   3.531   4.986 -0.8458 -0.5615 -0.0564
 4528SOL    HW213980   5.582   3.588   5.030 -0.3601  1.2577 -0.8415
 4529SOL     OW13981   6.547   3.531   3.928 -0.6032 -0.1729 -0.4703
 4529SOL    HW113982   6.583   3.570   4.007  1.3023  0.5022 -1.6030
 4529SOL    HW213983   6.459   3.503   3.952 -0.2780  0.5414  1.6983
 4530SOL     OW13984   1.203   0.203   5.064  0.3897 -0.0787  0.5513
 4530SOL    HW113985   1.145   0.129   5.081  1.5236 -1.6936 -2.0068
 4530SOL    HW213986   1.285   0.163   5.036  0.8446  2.1314 -1.5760
 4531SOL     OW13987   0.775   5.105   0.099  0.5095 -0.8436 -0.6705
 4531SOL    HW113988   0.729   5.182   0.065 -0.2800 -2.0017 -2.3388
 4531SOL    HW213989   0.718   5.070   0.167  0.1226 -0.8503 -0.9998
 4532SOL     OW13990   5.088   4.920   0.982  0.0650 -0.0059 -0.6159
 4532SOL    HW113991   5.112   5.010   1.008  2.2903 -0.0410 -2.2321
 4532SOL    HW213992   5.010   4.931   0.929  0.7161  1.1044 -1.4004
 4533SOL     OW13993   0.193   6.400   0.489  0.0509  0.1924  0.2927
 4533SOL    HW113994   0.098   6.393   0.479  0.2617 -0.8116 -1.5459
 4533SOL    HW213995   0.208   6.492   0.508 -1.2684  0.4714  0.0993
 4534SOL     OW13996   3.369   6.168   1.667  0.5836  0.0691 -0.2035
 4534SOL    HW113997   3.451   6.152   1.621 -0.1219  2.5895 -2.6044
 4534SOL    HW213998   3.389   6.238   1.729  0.2204  1.0129 -1.1154
 4535SOL     OW13999   0.598   6.633   1.889  0.0349  0.1399  0.2148
 4535SOL    HW114000   0.520   6.578   1.886  0.7950 -0.9738  0.4185
 4535SOL    HW214001   0.570   6.712   1.937 -0.3510 -1.2980  2.4913
 4536SOL     OW14002   4.318   0.599   0.432 -0.5454 -0.1457 -0.1835
 4536SOL    HW114003   4.291   0.571   0.345 -0.7055  1.7767 -0.7992
 4536SOL    HW214004   4.381   0.670   0.416 -1.3557  0.9556  1.2232
 4537SOL     OW14005   1.110   3.631   6.307  0.2595 -0.3501 -0.5369
 4537SOL    HW114006   1.037   3.684   6.339  1.1770 -0.6240  2.2850
 4537SOL    HW214007   1.179   3.694   6.287  0.8410 -0.3124  1.4075
 4538SOL     OW14008   0.246   5.066   0.179 -0.5493 -0.3449 -0.2447
 4538SOL    HW114009   0.307   5.003   0.217 -1.3183 -0.9008  0.0834
 4538SOL    HW214010   0.256   5.055   0.085  1.5291  1.1953 -0.2697
 4539SOL     OW14011   6.885   1.364   2.712 -0.1317 -0.6382 -0.3566
 4539SOL    HW114012   6.911   1.320   2.793 -0.0081  0.4605  0.2205
 4539SOL    HW214013   6.889   1.457   2.734 -0.2060 -0.3348 -1.6009
 4540SOL     OW14014   1.717   1.391   1.148  0.0037 -0.1174 -0.1468
 4540SOL    HW114015   1.694   1.451   1.219  0.6769 -2.0181  1.7967
 4540SOL    HW214016   1.671   1.425   1.072 -1.4115  1.5846  1.3748
 4541SOL     OW14017   5.939   4.907   0.504 -0.2784  0.2711 -0.0540
 4541SOL    HW114018   5.894   4.824   0.493  2.2122 -1.0254 -1.5579
 4541SOL    HW214019   5.898   4.966   0.440 -1.1709 -0.1852  0.0861
 4542SOL     OW14020   3.884   0.477   0.817  0.1500  0.2438 -0.5062
 4542SOL    HW114021   3.839   0.471   0.732  0.2190  1.0267 -0.5994
 4542SOL    HW214022   3.813   0.479   0.881  0.0345  1.3689 -0.6474
 4543SOL     OW14023   6.263   1.512   0.729 -0.4613 -0.0429 -0.2631
 4543SOL    HW114024   6.207   1.560   0.790  1.9024  0.9164  1.2645
 4543SOL    HW214025   6.308   1.580   0.679  0.8357 -0.7168 -0.0454
 4544SOL     OW14026   0.421   2.798   3.617 -0.3967 -0.6531  0.5836
 4544SOL    HW114027   0.433   2.778   3.524  3.4668  0.8492  0.6015
 4544SOL    HW214028   0.426   2.713   3.661 -1.2590 -1.2638 -0.4424
 4545SOL     OW14029   5.234   6.519   5.118  0.2401 -0.2315 -0.0141
 4545SOL    HW114030   5.265   6.494   5.031  1.6361 -2.2775  0.9881
 4545SOL    HW214031   5.313   6.523   5.171 -0.3832  2.5573  0.8806
 4546SOL     OW14032   6.743   4.398   5.916  0.0393 -0.0917  0.7012
 4546SOL    HW114033   6.758   4.438   6.002 -0.3992  1.2810  0.1751
 4546SOL    HW214034   6.787   4.456   5.854 -0.6066 -0.4320 -0.0998
 4547SOL     OW14035   3.911   1.062   4.650  0.3908 -0.2333 -0.1365
 4547SOL    HW114036   3.851   1.112   4.705  1.1550 -0.3887  0.8687
 4547SOL    HW214037   3.997   1.079   4.688  1.0081  0.0422 -1.5877
 4548SOL     OW14038   0.310   2.612   5.718  0.1034  0.0541  0.8209
 4548SOL    HW114039   0.370   2.576   5.652  0.2647  0.2037  0.8838
 4548SOL    HW214040   0.228   2.627   5.670  0.1707  0.0139  0.6918
 4549SOL     OW14041   4.106   1.874   0.596  0.1622  0.1990  0.4802
 4549SOL    HW114042   4.189   1.917   0.615  0.0253  0.7009 -0.0348
 4549SOL    HW214043   4.080   1.907   0.510 -0.2735 -0.4104  0.3643
 4550SOL     OW14044   3.434   4.425   5.989  0.1681 -0.5792 -0.7264
 4550SOL    HW114045   3.365   4.436   6.054 -0.1600  2.5158 -1.4409
 4550SOL    HW214046   3.388   4.409   5.907  0.1485  1.9127 -1.2835
 4551SOL     OW14047   0.774   3.823   2.682  0.0259 -0.4708 -0.4367
 4551SOL    HW114048   0.782   3.905   2.634 -0.7252 -0.0642  0.1142
 4551SOL    HW214049   0.681   3.802   2.680 -0.0999 -0.2076  1.2105
 4552SOL     OW14050   6.247   3.423   6.493 -0.7607 -0.4251 -0.0791
 4552SOL    HW114051   6.249   3.330   6.516 -0.9453 -0.7357 -1.2999
 4552SOL    HW214052   6.156   3.440   6.471 -0.6064 -0.1032 -0.4749
 4553SOL     OW14053   6.433   0.082   0.631  0.6186 -0.4347  0.0671
 4553SOL    HW114054   6.464  -0.006   0.608 -0.8176 -0.8287 -0.4844
 4553SOL    HW214055   6.361   0.066   0.692  0.7506  0.3935  0.4432
 4554SOL     OW14056   3.422   1.187   6.027  0.0538 -0.2872  0.1964
 4554SOL    HW114057   3.461   1.126   6.090  0.6109  0.6262  0.7632
 4554SOL    HW214058   3.432   1.273   6.068 -1.9005  0.0646  0.0149
 4555SOL     OW14059   2.367   0.881   5.176  0.2817  0.1563 -0.6191
 4555SOL    HW114060   2.304   0.811   5.158 -1.6509  1.5834  0.2420
 4555SOL    HW214061   2.421   0.846   5.247 -0.5638 -0.5272 -0.2924
 4556SOL     OW14062   5.703   4.254   3.284 -0.4594 -0.2720  0.2155
 4556SOL    HW114063   5.623   4.244   3.232 -1.5994  1.4415  1.5464
 4556SOL    HW214064   5.768   4.285   3.221 -1.5418  0.7756 -0.4360
 4557SOL     OW14065   0.903   4.232   0.113  0.2374  0.1053  0.4696
 4557SOL    HW114066   0.902   4.204   0.204  1.8691  2.4672  1.3160
 4557SOL    HW214067   0.932   4.323   0.116  1.6958 -0.1302 -2.5048
 4558SOL     OW14068   1.047   0.200   2.444  0.0602 -0.3691  0.3564
 4558SOL    HW114069   1.093   0.223   2.525 -0.8183  1.3114  0.4444
 4558SOL    HW214070   0.955   0.197   2.471 -0.2740  0.5513 -0.6151
 4559SOL     OW14071   6.112   3.540   4.718  0.3629  0.4073 -0.1187
 4559SOL    HW114072   6.147   3.539   4.807 -1.8750 -0.9250  0.8207
 4559SOL    HW214073   6.165   3.476   4.671  1.7288  1.2998  0.1541
 4560SOL     OW14074   4.521   3.758   3.368  0.1488  0.1779 -0.1276
 4560SOL    HW114075   4.541   3.664   3.369 -1.6477 -0.2268  0.8671
 4560SOL    HW214076   4.594   3.798   3.415  1.0133 -0.6764 -0.6957
 4561SOL     OW14077   1.298   4.532   0.288  0.2915 -0.0111  0.1050
 4561SOL    HW114078   1.347   4.453   0.306  1.2437  0.5123 -0.1187
 4561SOL    HW214079   1.364   4.596   0.262 -0.6674  0.1961 -2.0615
 4562SOL     OW14080   0.592   0.030   0.411 -0.4810 -0.2416  0.1608
 4562SOL    HW114081   0.668   0.085   0.431  1.8586 -3.0695 -0.2735
 4562SOL    HW214082   0.583  -0.027   0.487 -2.1115 -0.0861  0.1188
 4563SOL     OW14083   3.706   5.758   4.577  0.4516  0.0880  0.3092
 4563SOL    HW114084   3.732   5.845   4.547 -1.2305  0.6348  0.3300
 4563SOL    HW214085   3.685   5.770   4.670 -2.7994  0.4549 -0.3608
 4564SOL     OW14086   6.249   2.087   0.036  0.3118  0.3040 -0.0465
 4564SOL    HW114087   6.308   2.102  -0.038  0.8510 -0.9631  0.0993
 4564SOL    HW214088   6.261   2.164   0.092  0.4878  0.8969 -0.8846
 4565SOL     OW14089   1.782   1.112   0.199 -0.2705  0.2329 -0.1375
 4565SOL    HW114090   1.836   1.072   0.268  1.3463  2.6473  0.1144
 4565SOL    HW214091   1.735   1.182   0.243 -1.7104 -0.2133 -0.9024
 4566SOL     OW14092   1.402   4.145   2.771  0.0793 -0.1475  0.6135
 4566SOL    HW114093   1.364   4.185   2.849 -0.9407 -0.4008  0.2572
 4566SOL    HW214094   1.496   4.161   2.779  0.0942 -0.8535  2.3027
 4567SOL     OW14095   5.590   2.656   1.637 -0.0822  0.2260  0.1335
 4567SOL    HW114096   5.677   2.691   1.615 -0.2014  0.4673  0.0457
 4567SOL    HW214097   5.530   2.728   1.619 -0.1978  0.3968  1.1459
 4568SOL     OW14098   4.499   1.437   2.479  0.2123  0.1667  0.2040
 4568SOL    HW114099   4.580   1.402   2.443  0.1326  2.2536 -2.2832
 4568SOL    HW214100   4.527   1.507   2.538  0.2557 -0.1932  0.6091
 4569SOL     OW14101   2.142   3.418   4.519 -0.4438 -0.7635 -0.2144
 4569SOL    HW114102   2.090   3.426   4.440  0.0359  0.1229 -0.4502
 4569SOL    HW214103   2.089   3.458   4.588 -0.2057 -0.1053 -0.4033
 4570SOL     OW14104   2.017   0.731   2.017  0.3323 -0.2246 -0.0096
 4570SOL    HW114105   1.929   0.757   1.988 -0.3176 -1.4799  0.7169
 4570SOL    HW214106   2.000   0.673   2.092  1.7838 -0.6898 -0.0246
 4571SOL     OW14107   0.350   2.258   5.705 -0.3475 -0.2694  0.0761
 4571SOL    HW114108   0.395   2.262   5.620 -2.3326  0.2746 -0.9999
 4571SOL    HW214109   0.411   2.300   5.766  1.1040 -0.6220 -1.0771
 4572SOL     OW14110   3.663   0.469   5.403  0.2078  0.4962  0.0277
 4572SOL    HW114111   3.697   0.542   5.456  1.3165  1.7293 -2.2199
 4572SOL    HW214112   3.644   0.400   5.467  1.6247  1.8055  1.9993
 4573SOL     OW14113   1.926   0.293   2.519 -0.0069 -0.9041  0.9351
 4573SOL    HW114114   2.001   0.249   2.558  0.7262 -0.3831  0.1762
 4573SOL    HW214115   1.850   0.240   2.543  0.1948  0.0050  4.0333
 4574SOL     OW14116   6.399   6.561   0.690  0.1662 -0.0618  0.4611
 4574SOL    HW114117   6.487   6.525   0.706 -0.3820 -0.5800  2.7342
 4574SOL    HW214118   6.415   6.649   0.657  1.5289 -0.7832 -0.9669
 4575SOL     OW14119   5.004   6.932   3.514 -0.3650 -0.2281 -0.1976
 4575SOL    HW114120   4.997   7.005   3.453  1.4680  0.0238 -0.1762
 4575SOL    HW214121   5.017   6.973   3.599  0.3338 -0.5595 -0.1374
 4576SOL     OW14122   5.680   4.415   0.407  0.6779  0.3087  0.5655
 4576SOL    HW114123   5.589   4.397   0.430  0.0816  1.7769 -0.4645
 4576SOL    HW214124   5.725   4.331   0.418 -1.1440 -0.8754 -0.4968
 4577SOL     OW14125   6.385   3.379   6.102  0.2081  0.4112  0.0435
 4577SOL    HW114126   6.412   3.349   6.189 -1.0809 -0.0370  0.3093
 4577SOL    HW214127   6.378   3.299   6.050  1.5598  0.7297 -0.6701
 4578SOL     OW14128   0.964   4.990   3.920 -0.2673 -0.2532 -0.1487
 4578SOL    HW114129   0.919   4.996   3.835 -1.4865  0.8177  0.5506
 4578SOL    HW214130   0.915   4.924   3.968 -0.2382 -0.0750  0.1244
 4579SOL     OW14131   0.490   1.183   0.042 -0.7483  0.1673  0.3124
 4579SOL    HW114132   0.458   1.269   0.015 -0.9827 -0.3812 -1.2370
 4579SOL    HW214133   0.445   1.121  -0.015  1.5715 -0.7858 -0.6100
 4580SOL     OW14134   4.123   1.979   5.483 -0.6057 -0.3297 -0.2438
 4580SOL    HW114135   4.124   1.923   5.406 -0.5389  0.1814 -0.6200
 4580SOL    HW214136   4.062   2.050   5.460 -1.6806 -0.9138  0.7038
 4581SOL     OW14137   0.742   1.456   5.785 -0.1744 -0.2382 -0.5074
 4581SOL    HW114138   0.702   1.371   5.799 -1.0645  0.2674  0.1267
 4581SOL    HW214139   0.680   1.504   5.729  0.7704 -0.3215 -1.6706
 4582SOL     OW14140   2.012   2.154   4.472  0.7230 -0.1506 -0.3388
 4582SOL    HW114141   1.919   2.138   4.455  0.3644  0.7211  0.6869
 4582SOL    HW214142   2.046   2.190   4.391  0.4969 -1.7241 -1.1710
 4583SOL     OW14143   6.555   5.013   4.952 -0.1937  0.2827 -0.7001
 4583SOL    HW114144   6.545   5.064   4.871 -0.6989  1.2663 -0.0335
 4583SOL    HW214145   6.553   4.921   4.923 -2.9193  0.5240 -1.5806
 4584SOL     OW14146   2.194   1.874   3.396 -0.7459  0.0198  0.0796
 4584SOL    HW114147   2.244   1.950   3.367 -1.1938  0.2749 -0.0405
 4584SOL    HW214148   2.260   1.807   3.416 -0.3843  0.1770 -0.5632
 4585SOL     OW14149   3.611   0.266   3.519 -0.0986  0.0756  0.1338
 4585SOL    HW114150   3.551   0.309   3.580  2.4815  0.9055  2.2719
 4585SOL    HW214151   3.603   0.172   3.539  1.7484  0.4047  2.9827
 4586SOL     OW14152   0.346   6.170   0.486 -0.3066  0.2772 -0.3637
 4586SOL    HW114153   0.305   6.228   0.550  0.0916  1.8599 -1.4880
 4586SOL    HW214154   0.439   6.191   0.491  0.2913 -2.2671  1.1361
 4587SOL     OW14155   5.875   5.777   3.715 -0.2365 -0.3983 -0.0268
 4587SOL    HW114156   5.835   5.806   3.633  1.6879  1.2702 -0.4275
 4587SOL    HW214157   5.809   5.718   3.753 -2.6418  1.3727 -1.1253
 4588SOL     OW14158   1.729   5.727   5.575  0.1364  0.1087 -0.4186
 4588SOL    HW114159   1.767   5.715   5.488  3.4631  2.0018  0.6130
 4588SOL    HW214160   1.690   5.814   5.572 -2.0970 -0.8207 -0.6678
 4589SOL     OW14161   6.363   1.331   5.435  0.4269 -0.1072  0.0937
 4589SOL    HW114162   6.359   1.342   5.530  0.4537 -2.2734  0.3841
 4589SOL    HW214163   6.440   1.382   5.409  1.3901 -0.7990  1.4711
 4590SOL     OW14164   3.708   6.450   2.857 -0.0278 -0.0149 -0.1971
 4590SOL    HW114165   3.666   6.535   2.842  0.2238  0.4598  1.5279
 4590SOL    HW214166   3.700   6.404   2.773 -1.4740  1.1395 -0.7484
 4591SOL     OW14167   6.039   3.428   1.304 -0.5358 -0.1276  0.5017
 4591SOL    HW114168   6.065   3.407   1.214 -2.7512 -2.2738  0.2608
 4591SOL    HW214169   5.992   3.511   1.296 -1.4470 -0.7020 -0.5154
 4592SOL     OW14170   5.048   3.122   0.357  0.0225 -0.2884 -0.2768
 4592SOL    HW114171   5.009   3.204   0.388 -0.1340 -0.7738  0.8956
 4592SOL    HW214172   5.057   3.070   0.437  0.1842 -1.3816 -0.9995
 4593SOL     OW14173   0.752   2.045   6.504  0.2683  0.2170 -0.2790
 4593SOL    HW114174   0.812   2.059   6.578  0.0304  1.2505 -0.2690
 4593SOL    HW214175   0.673   2.011   6.545  1.0147 -1.7534 -0.3532
 4594SOL     OW14176   0.955   3.052   0.748 -0.1594  0.5840 -0.3930
 4594SOL    HW114177   1.024   2.989   0.726 -1.2373 -1.0001  0.5042
 4594SOL    HW214178   0.945   3.105   0.669  2.6561  1.4778 -0.2664
 4595SOL     OW14179   2.858   2.407   2.681 -0.1630 -0.1853  0.5501
 4595SOL    HW114180   2.939   2.403   2.732  0.1185  1.4417  0.2696
 4595SOL    HW214181   2.801   2.342   2.722  0.8155 -0.4391  1.5645
 4596SOL     OW14182   6.400   0.094   4.636  0.1400 -0.0775  0.4369
 4596SOL    HW114183   6.464   0.025   4.654 -0.2760 -0.6613 -0.2602
 4596SOL    HW214184   6.400   0.103   4.541 -0.9833 -0.2631  0.4024
 4597SOL     OW14185   4.862   0.405   6.381 -0.1376 -0.7435 -0.2968
 4597SOL    HW114186   4.819   0.416   6.466 -1.2754 -3.4122 -0.4196
 4597SOL    HW214187   4.934   0.344   6.399 -0.0361 -0.8821 -1.1501
 4598SOL     OW14188   3.884   4.225   0.523  0.6898 -0.4265 -0.1182
 4598SOL    HW114189   3.890   4.199   0.431 -1.2993 -0.2626 -0.3199
 4598SOL    HW214190   3.829   4.159   0.564 -0.4183  0.7850  0.4137
 4599SOL     OW14191   6.704   0.886   4.715  0.1780  1.2182  0.2149
 4599SOL    HW114192   6.675   0.976   4.726 -1.3950  0.8610 -0.6965
 4599SOL    HW214193   6.696   0.847   4.803 -0.3136  1.6501  0.3657
 4600SOL     OW14194   3.567   2.317   2.334 -0.6397  0.4291 -0.0572
 4600SOL    HW114195   3.605   2.383   2.276 -0.6371  0.2100 -0.3070
 4600SOL    HW214196   3.526   2.367   2.404 -0.3092  0.6829 -0.0446
 4601SOL     OW14197   4.143   4.102   2.260 -0.2377 -0.5713  0.3185
 4601SOL    HW114198   4.168   4.136   2.346  0.5959  1.1297 -0.5582
 4601SOL    HW214199   4.085   4.169   2.224  0.8798 -0.3565 -1.1640
 4602SOL     OW14200   1.393   4.286   1.384  0.0034  0.7304  0.2896
 4602SOL    HW114201   1.409   4.274   1.478  0.1904 -0.1542  0.1567
 4602SOL    HW214202   1.480   4.280   1.344 -0.1334  0.6073  0.0095
 4603SOL     OW14203   5.385   5.358   2.516 -0.1628 -0.0038 -0.1685
 4603SOL    HW114204   5.462   5.377   2.462 -1.1802 -0.3401 -1.8182
 4603SOL    HW214205   5.353   5.274   2.484 -0.9100 -0.1416  0.8746
 4604SOL     OW14206   0.472   3.376   2.178  0.2793  0.3036  0.4927
 4604SOL    HW114207   0.409   3.359   2.108  0.8004 -2.4461  0.5876
 4604SOL    HW214208   0.439   3.455   2.221 -0.4682  1.6660 -2.3301
 4605SOL     OW14209   5.323   3.898   2.391 -0.0928 -0.1081 -0.5002
 4605SOL    HW114210   5.375   3.971   2.359  0.3207 -0.6840 -1.1672
 4605SOL    HW214211   5.246   3.896   2.335 -0.8349  0.7032  0.4448
 4606SOL     OW14212   6.441   2.938   4.809  0.1484 -0.0997  0.1935
 4606SOL    HW114213   6.432   2.856   4.760  1.5056 -0.1625  0.0099
 4606SOL    HW214214   6.465   3.002   4.742 -0.0181  0.2591  0.4793
 4607SOL     OW14215   3.316   1.862   1.534 -0.2189  0.0709  0.1056
 4607SOL    HW114216   3.255   1.936   1.529 -2.4343 -1.6699 -0.7692
 4607SOL    HW214217   3.288   1.813   1.611  1.0718  0.0043  0.5458
 4608SOL     OW14218   0.862   3.817   5.284 -0.1173 -0.2648  0.5683
 4608SOL    HW114219   0.827   3.890   5.335  0.6719  1.4288 -1.1897
 4608SOL    HW214220   0.920   3.771   5.345 -0.1496  0.9613  1.5697
 4609SOL     OW14221   0.769   3.749   3.171 -0.3654  0.0087  0.2495
 4609SOL    HW114222   0.695   3.689   3.160  0.2664 -0.5655 -1.0989
 4609SOL    HW214223   0.784   3.785   3.084  1.3817 -0.4196  0.3330
 4610SOL     OW14224   0.973   4.559   0.679 -0.0425 -0.3554 -0.2429
 4610SOL    HW114225   0.905   4.499   0.650  1.0146 -1.2788 -0.9355
 4610SOL    HW214226   1.049   4.536   0.626  0.8716  0.4892  0.6470
 4611SOL     OW14227   2.014   0.406   2.003 -0.0093 -0.6752  0.3127
 4611SOL    HW114228   2.012   0.446   2.089 -0.9958  1.8544 -0.7861
 4611SOL    HW214229   2.101   0.426   1.969 -0.0304 -0.6453  0.2765
 4612SOL     OW14230   0.440   5.985   3.141  0.2630  1.0912 -0.3538
 4612SOL    HW114231   0.455   6.079   3.139 -0.4988  1.2593  0.7055
 4612SOL    HW214232   0.351   5.974   3.108 -0.7644  1.0681  2.1794
 4613SOL     OW14233   5.990   3.900   4.937  0.6890 -0.0952  0.3026
 4613SOL    HW114234   6.037   3.834   4.885  0.1139 -0.6774  0.5142
 4613SOL    HW214235   6.049   3.919   5.009  0.6766 -0.7136  0.4854
 4614SOL     OW14236   1.068   4.039   1.418 -0.0588  0.1949 -0.2166
 4614SOL    HW114237   1.043   4.128   1.441 -1.8996  0.0379 -1.3185
 4614SOL    HW214238   0.984   3.994   1.405  0.7412 -2.2065  2.0420
 4615SOL     OW14239   0.210   4.714   4.647 -0.1911  0.2108  0.0935
 4615SOL    HW114240   0.259   4.785   4.689  1.0355  0.8108 -2.1779
 4615SOL    HW214241   0.241   4.714   4.557 -1.7474 -1.8460 -0.5139
 4616SOL     OW14242   2.202   2.216   6.831  0.2282 -0.1682  0.0812
 4616SOL    HW114243   2.173   2.127   6.850 -0.6996  0.2516  0.6923
 4616SOL    HW214244   2.177   2.230   6.739  0.3594 -0.5330 -0.0097
 4617SOL     OW14245   0.836   4.266   0.953  0.7082  0.2959  0.2083
 4617SOL    HW114246   0.923   4.239   0.926  1.2232  1.5351  0.5676
 4617SOL    HW214247   0.847   4.356   0.984 -0.7987  0.6795 -0.2719
 4618SOL     OW14248   6.241   2.906   5.568 -0.1057  0.0544 -0.0251
 4618SOL    HW114249   6.219   2.824   5.611 -0.2155  1.2252  2.3125
 4618SOL    HW214250   6.157   2.951   5.558  0.0291  0.1702 -0.6657
 4619SOL     OW14251   3.208   0.293   6.084 -0.6322  0.0737 -0.0034
 4619SOL    HW114252   3.198   0.330   6.172 -0.5829  0.9328 -0.3551
 4619SOL    HW214253   3.275   0.226   6.095  0.2921  1.0280  0.3799
 4620SOL     OW14254   2.144   3.589   2.721  0.2860  0.0667 -0.0491
 4620SOL    HW114255   2.153   3.682   2.744 -0.0760 -0.4033  2.2314
 4620SOL    HW214256   2.231   3.564   2.692  0.1985  1.2900 -1.4846
 4621SOL     OW14257   1.508   3.706   4.693 -0.4303  0.2757 -0.2296
 4621SOL    HW114258   1.414   3.687   4.687 -0.9069  1.4288  2.4797
 4621SOL    HW214259   1.530   3.693   4.785  2.2346 -0.4710 -0.8759
 4622SOL     OW14260   2.984   6.099   4.012 -0.1299 -0.1688  0.1546
 4622SOL    HW114261   2.930   6.029   4.048  0.7871 -1.1069 -0.2255
 4622SOL    HW214262   3.051   6.114   4.079 -0.7081  0.8363  0.5330
 4623SOL     OW14263   4.853   1.507   3.759  0.1904  0.2655 -0.2587
 4623SOL    HW114264   4.813   1.449   3.824 -1.0571  1.6223  0.2594
 4623SOL    HW214265   4.924   1.550   3.806  0.7189 -0.3617 -0.4651
 4624SOL     OW14266   2.794   5.003   2.141  0.3167 -0.0939  0.6168
 4624SOL    HW114267   2.810   4.948   2.218  0.8516  1.8356  1.9501
 4624SOL    HW214268   2.788   5.092   2.175 -0.5081  0.7290 -1.4655
 4625SOL     OW14269   2.615   0.127   4.758 -0.4331 -0.2771 -0.1632
 4625SOL    HW114270   2.694   0.168   4.724 -0.2137 -0.4503  0.1251
 4625SOL    HW214271   2.647   0.056   4.815 -0.7262  1.1679  1.9176
 4626SOL     OW14272   5.008   3.157   5.776  0.5136 -0.5880  0.0334
 4626SOL    HW114273   5.019   3.230   5.837 -1.9857 -1.1290  1.2772
 4626SOL    HW214274   4.952   3.192   5.707  2.2302 -0.3726 -1.3068
 4627SOL     OW14275   3.997   4.411   3.622 -0.4841  0.0402 -0.4082
 4627SOL    HW114276   4.079   4.388   3.666 -0.5544  0.0922 -0.2489
 4627SOL    HW214277   3.998   4.360   3.541  0.4966  1.2859 -1.2360
 4628SOL     OW14278   2.915   5.613   0.695  0.2052 -0.1516 -0.3587
 4628SOL    HW114279   2.859   5.691   0.700 -1.2176 -1.1749  0.3398
 4628SOL    HW214280   2.945   5.599   0.785  0.9060 -0.1075 -0.5793
 4629SOL     OW14281   0.720   3.938   2.079  0.0453 -0.7023 -0.7942
 4629SOL    HW114282   0.671   3.869   2.124  0.1828 -1.1751 -1.3559
 4629SOL    HW214283   0.791   3.892   2.035  1.2877  0.0156  0.3548
 4630SOL     OW14284   3.560   4.399   0.837 -0.0085  0.1727 -0.0568
 4630SOL    HW114285   3.482   4.452   0.853  1.1490  2.1696 -0.5671
 4630SOL    HW214286   3.616   4.415   0.913  0.1551 -0.7779  0.0374
 4631SOL     OW14287   0.700   0.620   6.841  0.2683  0.0810  0.2543
 4631SOL    HW114288   0.699   0.643   6.934  1.2718  1.2405  0.0028
 4631SOL    HW214289   0.717   0.525   6.840  0.7140  0.1392  1.2333
 4632SOL     OW14290   4.057   5.295   0.600  0.2038 -0.0565  0.2054
 4632SOL    HW114291   4.018   5.253   0.677 -0.3998  0.2023  0.0452
 4632SOL    HW214292   4.001   5.267   0.527  0.4789  0.1064 -0.0665
 4633SOL     OW14293   6.859   1.380   3.731 -0.2460 -0.0205  0.1395
 4633SOL    HW114294   6.789   1.412   3.674 -0.3729 -0.6628 -0.0700
 4633SOL    HW214295   6.901   1.310   3.682 -0.8805 -1.1470  1.1334
 4634SOL     OW14296   4.915   5.173   6.675 -0.7064 -0.0452  0.8350
 4634SOL    HW114297   4.894   5.261   6.706  0.2547 -0.2324  2.1021
 4634SOL    HW214298   4.979   5.186   6.606 -0.5983  0.2511  0.9890
 4635SOL     OW14299   4.023   3.989   0.060  0.1749 -0.5371  0.7226
 4635SOL    HW114300   4.112   4.021   0.072  1.0464 -2.0240 -1.2742
 4635SOL    HW214301   3.977   4.063   0.018  1.1418 -0.5635 -0.4330
 4636SOL     OW14302   5.065   5.492   0.986 -0.3452  0.0859 -0.1361
 4636SOL    HW114303   5.135   5.557   0.982 -0.9230  0.6337 -1.9876
 4636SOL    HW214304   4.988   5.541   1.015 -0.6850  0.1762 -1.1486
 4637SOL     OW14305   6.857   1.318   6.544 -0.1995  0.2119  0.6015
 4637SOL    HW114306   6.944   1.278   6.550 -0.5528 -0.8674 -0.8710
 4637SOL    HW214307   6.809   1.282   6.619 -0.3333 -1.7365 -0.3702
 4638SOL     OW14308   2.890   0.505   4.781  0.1710 -0.2207  0.2289
 4638SOL    HW114309   2.946   0.460   4.718  1.1286 -0.3868  1.1589
 4638SOL    HW214310   2.900   0.455   4.862 -0.3603  0.4761  0.7417
 4639SOL     OW14311   4.522   1.780   0.808  0.2941 -0.1279 -0.3495
 4639SOL    HW114312   4.475   1.827   0.740 -0.0790  0.5095  0.3381
 4639SOL    HW214313   4.470   1.793   0.887  0.5232 -1.1564 -0.0101
 4640SOL     OW14314   4.557   4.482   1.947 -0.2625 -0.0720 -0.0789
 4640SOL    HW114315   4.471   4.441   1.937 -0.0547 -0.4534 -0.3384
 4640SOL    HW214316   4.538   4.575   1.962 -0.6849  0.0455 -1.2275
 4641SOL     OW14317   0.993   0.779   1.045  1.0180  0.0702  0.0531
 4641SOL    HW114318   0.980   0.862   0.999  1.5964 -0.5682 -1.3121
 4641SOL    HW214319   1.077   0.789   1.090  0.7450  0.4753  0.4809
 4642SOL     OW14320   4.451   2.245   4.884  0.8431  0.3548 -0.1006
 4642SOL    HW114321   4.507   2.167   4.884  1.1709  0.5884 -0.4514
 4642SOL    HW214322   4.484   2.299   4.956 -0.4308 -0.5574  1.2520
 4643SOL     OW14323   5.472   6.779   0.984 -0.5403 -0.5391  0.2850
 4643SOL    HW114324   5.557   6.814   0.960 -1.0790  0.0173 -0.9135
 4643SOL    HW214325   5.415   6.801   0.910 -2.5197  1.9075  2.3496
 4644SOL     OW14326   4.539   2.322   5.592  0.3648 -0.7438  0.1963
 4644SOL    HW114327   4.623   2.285   5.616  1.3078  0.1162 -1.6055
 4644SOL    HW214328   4.539   2.323   5.496 -0.9677  0.8404  0.1531
 4645SOL     OW14329   3.464   5.472   3.004  0.7381 -0.5407  0.4802
 4645SOL    HW114330   3.433   5.436   2.921 -0.4842 -1.7511  1.4007
 4645SOL    HW214331   3.494   5.560   2.983 -0.5047 -0.4359 -1.0585
 4646SOL     OW14332   5.674   1.595   3.030 -0.2194  0.0642  0.2129
 4646SOL    HW114333   5.697   1.683   3.061  1.1735 -0.7154  1.5886
 4646SOL    HW214334   5.731   1.580   2.955 -1.2225  0.7111 -0.7009
 4647SOL     OW14335   1.309   4.876   6.602 -0.4323  0.1987  0.2392
 4647SOL    HW114336   1.283   4.843   6.688  1.2589 -1.4539  0.1512
 4647SOL    HW214337   1.276   4.966   6.601 -2.7300 -0.5264  1.5849
 4648SOL     OW14338   4.171   1.539   0.582 -0.1468 -0.3792  0.4001
 4648SOL    HW114339   4.213   1.453   0.576  0.4474 -0.0891  0.2814
 4648SOL    HW214340   4.083   1.526   0.549  0.4175 -0.6288 -1.0896
 4649SOL     OW14341   0.439   6.524   3.602 -0.6451 -0.4459  0.6235
 4649SOL    HW114342   0.489   6.573   3.536 -2.1019 -0.1897 -0.3300
 4649SOL    HW214343   0.485   6.542   3.684  0.1099  0.7851 -0.0347
 4650SOL     OW14344   5.466   3.890   1.028  0.3278 -0.6140 -0.0097
 4650SOL    HW114345   5.548   3.844   1.006  0.1308 -0.4900 -1.0539
 4650SOL    HW214346   5.493   3.959   1.088  1.0268 -0.4824 -0.4568
 4651SOL     OW14347   6.286   6.871   1.253  0.1466  0.3774 -0.3380
 4651SOL    HW114348   6.239   6.849   1.333 -0.7926 -0.3460 -1.0506
 4651SOL    HW214349   6.225   6.925   1.203  0.0892 -0.4927 -1.2384
 4652SOL     OW14350   6.434   0.505   3.816  0.2319  0.2452  0.3130
 4652SOL    HW114351   6.470   0.455   3.742 -0.2728  1.8077 -1.0350
 4652SOL    HW214352   6.512   0.540   3.861  0.6685 -2.5458  1.9636
 4653SOL     OW14353   5.874   5.428   5.476 -0.1626 -0.0320 -0.5765
 4653SOL    HW114354   5.896   5.346   5.432  0.1975 -0.3589  0.2022
 4653SOL    HW214355   5.795   5.409   5.526  0.1392 -0.0184 -0.0871
 4654SOL     OW14356   2.883   3.911   0.557  0.6354 -0.0292  0.6228
 4654SOL    HW114357   2.909   3.936   0.646 -0.3247  1.2496  0.5654
 4654SOL    HW214358   2.913   3.820   0.548  0.5448 -0.2605  2.3267
 4655SOL     OW14359   6.285   2.417   1.952  0.4932  0.4068 -0.1648
 4655SOL    HW114360   6.282   2.512   1.945  0.3492  0.2658 -4.1064
 4655SOL    HW214361   6.229   2.386   1.881  0.3945 -2.6614  1.1086
 4656SOL     OW14362   4.168   5.584   1.935 -0.1176  0.2685 -0.1809
 4656SOL    HW114363   4.151   5.658   1.993  1.5035  0.9930 -0.5534
 4656SOL    HW214364   4.112   5.514   1.968  0.3321  0.8114  1.9260
 4657SOL     OW14365   0.342   1.799   5.237  0.2136  0.1081 -0.1731
 4657SOL    HW114366   0.420   1.744   5.248 -0.8383 -1.1098  2.0324
 4657SOL    HW214367   0.288   1.752   5.173  0.6011  0.0983 -0.4909
 4658SOL     OW14368   6.631   6.562   3.301  0.5808 -0.0312 -0.3456
 4658SOL    HW114369   6.625   6.657   3.313 -0.4794  0.4460 -3.6390
 4658SOL    HW214370   6.540   6.533   3.302  0.8762 -0.9541  0.1080
 4659SOL     OW14371   1.151   3.598   0.710  0.1677 -0.0021 -0.2602
 4659SOL    HW114372   1.244   3.574   0.708  0.5090  1.0119  1.3423
 4659SOL    HW214373   1.105   3.516   0.732  0.9319 -0.0730  1.2457
 4660SOL     OW14374   1.531   3.495   5.070 -0.1549  0.3194  0.2450
 4660SOL    HW114375   1.536   3.591   5.070  1.2579  0.2567  0.1463
 4660SOL    HW214376   1.618   3.466   5.098  0.1104 -0.9672 -1.7414
 4661SOL     OW14377   5.488   2.558   3.569  0.0230 -0.1080  0.5456
 4661SOL    HW114378   5.567   2.609   3.589  1.3145 -0.6351 -2.6224
 4661SOL    HW214379   5.506   2.471   3.606  2.1356 -0.9382 -2.0803
 4662SOL     OW14380   2.288   1.205   5.821  0.0341 -0.2981 -0.0369
 4662SOL    HW114381   2.255   1.221   5.732 -2.0536  0.2651  0.7713
 4662SOL    HW214382   2.353   1.135   5.810  0.0685 -0.0272 -2.0333
 4663SOL     OW14383   5.262   5.691   0.255 -0.6081  0.1249  0.6124
 4663SOL    HW114384   5.321   5.752   0.301  0.8313 -1.0322  0.3863
 4663SOL    HW214385   5.253   5.729   0.167 -1.9682  1.4299  1.2718
 4664SOL     OW14386   1.613   1.265   6.510 -0.3141  0.2178 -0.2082
 4664SOL    HW114387   1.668   1.245   6.586  0.0762 -0.2510 -0.6038
 4664SOL    HW214388   1.668   1.242   6.435 -0.6653  0.7568 -0.6344
 4665SOL     OW14389   4.962   2.631   2.223 -0.7421 -0.2242 -0.5539
 4665SOL    HW114390   5.021   2.685   2.275 -1.5048  1.5168 -1.4000
 4665SOL    HW214391   4.875   2.647   2.262 -1.2912  0.9317 -2.1291
 4666SOL     OW14392   0.909   0.383   2.263 -0.5491 -1.0527 -0.1542
 4666SOL    HW114393   0.966   0.329   2.318 -0.9263 -0.4237  0.8855
 4666SOL    HW214394   0.890   0.460   2.317  0.0361  0.1755 -1.6321
 4667SOL     OW14395   6.585   2.212   3.229  0.8387  0.6754 -0.0055
 4667SOL    HW114396   6.516   2.194   3.292  1.2057  1.5036  0.6509
 4667SOL    HW214397   6.572   2.147   3.160  1.0178 -0.8930  1.3748
 4668SOL     OW14398   2.699   5.140   2.556  0.5291  0.1671 -0.5539
 4668SOL    HW114399   2.695   5.168   2.465 -0.6034  1.6544 -0.0897
 4668SOL    HW214400   2.628   5.077   2.565  1.2374 -0.7051 -0.8983
 4669SOL     OW14401   5.706   5.451   5.804  0.0397 -0.2960 -0.4690
 4669SOL    HW114402   5.772   5.390   5.837 -1.5277 -1.0115  1.5798
 4669SOL    HW214403   5.664   5.404   5.732 -2.4566 -2.7004  2.2724
 4670SOL     OW14404   6.756   6.092   3.319 -0.3120  0.2506 -0.5950
 4670SOL    HW114405   6.848   6.088   3.294  0.1973  0.3830  1.0938
 4670SOL    HW214406   6.738   6.008   3.361 -0.8610  0.3454 -0.6262
 4671SOL     OW14407   1.420   0.173   0.834  0.0335  0.1386 -0.3060
 4671SOL    HW114408   1.353   0.141   0.895  0.6517  0.5845  0.6391
 4671SOL    HW214409   1.433   0.265   0.859  0.5878  0.2129 -0.8444
 4672SOL     OW14410   2.286   1.724   0.701 -0.4680  0.0971  0.7260
 4672SOL    HW114411   2.326   1.797   0.749  0.4167  0.3722 -0.3831
 4672SOL    HW214412   2.343   1.712   0.625 -0.7617 -1.5778  0.7444
 4673SOL     OW14413   1.017   2.070   4.335  0.1298  0.4538 -0.1235
 4673SOL    HW114414   0.981   2.158   4.332 -0.2724  0.3695  1.5817
 4673SOL    HW214415   0.968   2.025   4.403  1.2892 -0.6596  0.0348
 4674SOL     OW14416   1.800   3.636   3.904  0.3686  0.0921  0.3635
 4674SOL    HW114417   1.777   3.713   3.852  0.4929  0.3433  0.6760
 4674SOL    HW214418   1.716   3.601   3.935  0.0225 -1.6888 -2.2458
 4675SOL     OW14419   5.495   3.659   4.067 -0.4419  0.2339 -0.0774
 4675SOL    HW114420   5.561   3.686   4.002 -0.0920  1.1802  0.6468
 4675SOL    HW214421   5.428   3.727   4.063 -0.5337  0.1742  0.3898
 4676SOL     OW14422   4.173   1.440   3.863  0.2230 -0.2887  0.6977
 4676SOL    HW114423   4.109   1.369   3.860  1.0096 -0.9804 -0.4881
 4676SOL    HW214424   4.211   1.442   3.775  0.8129  1.0559  0.9530
 4677SOL     OW14425   6.808   0.246   2.868 -0.0409  0.0762  0.6507
 4677SOL    HW114426   6.792   0.339   2.853 -4.1794 -0.4050  0.9565
 4677SOL    HW214427   6.852   0.242   2.953  1.7206  1.7181 -0.1052
 4678SOL     OW14428   0.393   2.676   2.404 -0.2324 -0.1028 -0.7029
 4678SOL    HW114429   0.465   2.734   2.380  0.2275 -0.3264  0.0968
 4678SOL    HW214430   0.433   2.590   2.413  0.0139  0.2258  2.4887
 4679SOL     OW14431   4.635   2.336   3.610  0.3139  0.0432 -0.7439
 4679SOL    HW114432   4.663   2.389   3.536  0.7320  1.3219  0.3070
 4679SOL    HW214433   4.711   2.282   3.632  0.0856 -0.5770 -1.4167
 4680SOL     OW14434   6.567   4.815   5.299 -0.0756  0.7076  0.3205
 4680SOL    HW114435   6.537   4.905   5.304 -2.9873 -0.1972  0.8197
 4680SOL    HW214436   6.490   4.762   5.319  0.8574 -1.9752 -2.3686
 4681SOL     OW14437   0.532   4.803   3.376  0.0495 -0.4264 -0.0723
 4681SOL    HW114438   0.572   4.859   3.310  1.4986 -1.1696  0.1329
 4681SOL    HW214439   0.539   4.853   3.457  2.8831 -1.4807  0.4411
 4682SOL     OW14440   4.950   2.819   5.509  0.2256 -0.9675  0.5133
 4682SOL    HW114441   4.900   2.845   5.587  1.8024 -0.8964  1.5375
 4682SOL    HW214442   4.927   2.726   5.497  0.8075 -1.2841  1.7405
 4683SOL     OW14443   5.127   0.383   4.007 -0.4386  0.8656 -0.4624
 4683SOL    HW114444   5.053   0.443   3.993  1.3003  3.0104 -1.1219
 4683SOL    HW214445   5.145   0.389   4.101 -2.4046 -1.4059  0.1417
 4684SOL     OW14446   4.100   5.289   1.123  0.2258 -0.2196 -0.0507
 4684SOL    HW114447   4.107   5.236   1.203  1.5069 -1.9072 -1.2031
 4684SOL    HW214448   4.191   5.304   1.097 -0.1669  1.0749 -0.7144
 4685SOL     OW14449   5.454   5.276   3.388  0.0535 -0.0730  0.0396
 4685SOL    HW114450   5.466   5.215   3.460 -1.5829 -0.2318  0.2246
 4685SOL    HW214451   5.375   5.325   3.411 -0.2474  0.1767 -1.4212
 4686SOL     OW14452   3.003   4.704   5.032 -0.5554 -0.3326  0.1500
 4686SOL    HW114453   2.955   4.628   5.064 -1.2754  0.3102  0.6154
 4686SOL    HW214454   3.027   4.681   4.942 -2.6274 -0.2712 -0.4642
 4687SOL     OW14455   5.810   0.865   1.829  0.4311 -0.4191 -0.0006
 4687SOL    HW114456   5.839   0.793   1.774  2.5092 -0.0844  0.5727
 4687SOL    HW214457   5.751   0.825   1.893  0.3614 -1.3198 -0.6217
 4688SOL     OW14458   0.535   0.531   4.901  0.1608  0.0322  0.2237
 4688SOL    HW114459   0.462   0.535   4.839  1.5157 -1.1798 -1.5699
 4688SOL    HW214460   0.532   0.615   4.948 -2.8695 -0.3267  0.8821
 4689SOL     OW14461   5.402   2.148   4.478 -0.1614 -0.4118 -0.6232
 4689SOL    HW114462   5.490   2.132   4.443  0.0689 -1.4767  0.3852
 4689SOL    HW214463   5.345   2.093   4.425  0.1295 -1.6737  0.3197
 4690SOL     OW14464   2.984   1.277   5.747 -0.1552 -0.4716  0.1056
 4690SOL    HW114465   2.925   1.215   5.790 -1.1269  0.9903  0.9693
 4690SOL    HW214466   3.029   1.320   5.820  0.4042 -0.0732 -0.4740
 4691SOL     OW14467   5.291   6.349   4.665 -0.4252  0.5929 -0.4106
 4691SOL    HW114468   5.201   6.317   4.676 -0.6859  0.8764 -1.5358
 4691SOL    HW214469   5.320   6.310   4.582  0.7956 -0.1521  0.3280
 4692SOL     OW14470   6.672   5.854   0.445 -0.1404  0.4486  0.8129
 4692SOL    HW114471   6.664   5.778   0.502  0.1413 -0.3187 -0.1353
 4692SOL    HW214472   6.755   5.841   0.399 -1.5520 -0.3421 -1.6798
 4693SOL     OW14473   3.429   0.227   1.872  0.4366 -0.0442  0.3651
 4693SOL    HW114474   3.357   0.283   1.901  0.8543  0.5258  0.3285
 4693SOL    HW214475   3.473   0.278   1.804 -0.1070 -1.0685 -0.8003
 4694SOL     OW14476   3.798   5.104   2.301  0.0528 -0.1395  0.1093
 4694SOL    HW114477   3.775   5.190   2.265 -0.0414  0.0300  0.5673
 4694SOL    HW214478   3.746   5.042   2.250 -0.6151  0.1552  0.4119
 4695SOL     OW14479   1.038   3.178   4.546 -0.4560  0.4977  0.1018
 4695SOL    HW114480   1.104   3.166   4.478  1.1598 -1.8922  1.8979
 4695SOL    HW214481   0.979   3.104   4.535  0.1981 -0.2914  1.5909
 4696SOL     OW14482   5.760   5.520   1.439  0.2369 -0.1069  0.7805
 4696SOL    HW114483   5.775   5.594   1.380  1.0508 -1.6407 -1.0458
 4696SOL    HW214484   5.831   5.527   1.503 -0.5291  1.4520  1.5296
 4697SOL     OW14485   2.120   3.199   0.168  0.2327  0.0034 -0.5246
 4697SOL    HW114486   2.040   3.234   0.207  0.9364 -1.1099  2.1596
 4697SOL    HW214487   2.190   3.250   0.209  1.0942 -2.2343  0.9836
 4698SOL     OW14488   1.707   2.276   4.174 -0.0672  0.5016  0.2671
 4698SOL    HW114489   1.673   2.290   4.262  0.2225  1.9032  0.1733
 4698SOL    HW214490   1.709   2.181   4.164  0.2229  0.3189  1.8933
 4699SOL     OW14491   0.029   4.537   5.354 -0.2666 -1.0666  0.0957
 4699SOL    HW114492   0.077   4.485   5.419 -0.2649 -0.5448  0.5209
 4699SOL    HW214493  -0.063   4.526   5.377 -0.1994  0.4503  1.2450
 4700SOL     OW14494   4.684   6.747   3.277 -0.0290  0.3353 -0.6858
 4700SOL    HW114495   4.772   6.712   3.290 -0.3651 -0.2952 -0.0220
 4700SOL    HW214496   4.686   6.835   3.315 -0.2015 -0.4062  1.1422
 4701SOL     OW14497   0.077   0.469   4.072  0.2203  0.0848  0.2912
 4701SOL    HW114498   0.170   0.478   4.053  0.2031  0.4031  0.3564
 4701SOL    HW214499   0.042   0.557   4.066 -0.0948 -0.0450  0.1842
 4702SOL     OW14500   6.424   5.808   4.718 -0.3512  0.2791  0.1313
 4702SOL    HW114501   6.437   5.759   4.637 -0.4215 -1.5834  1.1878
 4702SOL    HW214502   6.474   5.888   4.705 -0.9057  0.3383 -1.9977
 4703SOL     OW14503   1.548   3.200   5.620 -0.4033  0.0304 -0.0558
 4703SOL    HW114504   1.530   3.232   5.709 -0.1741  1.8987 -0.6312
 4703SOL    HW214505   1.462   3.196   5.579 -0.4803 -0.5602  0.1568
 4704SOL     OW14506   3.762   2.380   0.159 -0.2617  0.8525  0.2585
 4704SOL    HW114507   3.735   2.290   0.145  0.1521  0.5381  1.4393
 4704SOL    HW214508   3.688   2.432   0.127 -1.9150  0.0249  2.4836
 4705SOL     OW14509   4.746   5.799   3.301 -0.0329  0.1405 -0.7919
 4705SOL    HW114510   4.737   5.866   3.233  0.2937 -1.3665 -2.3942
 4705SOL    HW214511   4.791   5.727   3.258 -1.3807 -1.5764  0.5262
 4706SOL     OW14512   2.325   4.512   5.826  0.0465 -0.0608  0.3759
 4706SOL    HW114513   2.382   4.534   5.753  0.3795 -0.4805  0.5094
 4706SOL    HW214514   2.384   4.492   5.899 -0.2695 -0.2727  0.5788
 4707SOL     OW14515   5.407   3.025   3.989 -0.2884 -0.5526 -0.3202
 4707SOL    HW114516   5.324   3.065   4.013 -0.1112  0.5493 -1.4681
 4707SOL    HW214517   5.453   3.092   3.939  1.7735 -0.7288  1.2139
 4708SOL     OW14518   3.983   5.197   0.875 -0.0867  0.3820 -0.5001
 4708SOL    HW114519   3.983   5.236   0.962  0.8968  0.4236 -0.5056
 4708SOL    HW214520   4.056   5.135   0.876 -1.0545 -0.7883 -0.7880
 4709SOL     OW14521   5.921   4.483   6.592  0.5356 -0.1492  0.1013
 4709SOL    HW114522   5.975   4.404   6.594 -0.4500 -0.8544  2.9152
 4709SOL    HW214523   5.838   4.457   6.631 -0.2621  2.0009  0.0042
 4710SOL     OW14524   5.839   1.539   0.405  0.3064  0.8649  0.0397
 4710SOL    HW114525   5.923   1.514   0.444  0.5456 -0.0952 -1.0442
 4710SOL    HW214526   5.862   1.598   0.334  0.1046  0.3321 -0.4767
 4711SOL     OW14527   0.945   1.258   0.072 -0.6660 -0.1843  0.5788
 4711SOL    HW114528   0.883   1.329   0.091 -1.2200 -0.7113  0.7569
 4711SOL    HW214529   0.926   1.192   0.138 -1.0804 -1.0796 -0.4166
 4712SOL     OW14530   2.503   4.605   5.648  0.0429 -0.1274  0.0030
 4712SOL    HW114531   2.490   4.655   5.567 -0.4189 -0.5012 -0.1623
 4712SOL    HW214532   2.556   4.662   5.703  0.3442  0.1439 -0.5535
 4713SOL     OW14533   1.232   5.815   4.794  0.7309  0.1372 -0.4336
 4713SOL    HW114534   1.214   5.764   4.872  0.3734  0.4881 -0.2811
 4713SOL    HW214535   1.218   5.755   4.721  2.2507 -0.5414 -0.2023
 4714SOL     OW14536   6.633   6.176   2.638 -0.4518 -0.0550  0.5934
 4714SOL    HW114537   6.662   6.266   2.623  1.3869 -0.5508  0.8577
 4714SOL    HW214538   6.555   6.184   2.691  0.3844  1.3756  1.6785
 4715SOL     OW14539   0.866   5.100   1.584  0.2552  0.4875 -0.1399
 4715SOL    HW114540   0.889   5.046   1.509 -1.2748  0.8009 -0.8801
 4715SOL    HW214541   0.870   5.041   1.659  1.0101 -0.0280 -0.5779
 4716SOL     OW14542   3.097   6.720   2.180  0.4114 -0.3247 -0.4268
 4716SOL    HW114543   3.004   6.736   2.200  0.5130  1.5689 -1.2922
 4716SOL    HW214544   3.130   6.675   2.257 -0.8359  0.5508  0.6720
 4717SOL     OW14545   1.268   0.862   1.137 -0.2679 -0.1151 -0.0291
 4717SOL    HW114546   1.260   0.769   1.161 -0.7622  0.0717  0.5666
 4717SOL    HW214547   1.297   0.861   1.046  0.8477 -0.8500  0.3200
 4718SOL     OW14548   0.607   4.739   6.707  0.0811 -0.0895 -0.7224
 4718SOL    HW114549   0.647   4.663   6.665 -0.3288 -1.5280  1.3544
 4718SOL    HW214550   0.650   4.745   6.792 -0.7569  1.2867 -0.3555
 4719SOL     OW14551   2.219   1.240   5.567  0.3097  0.2244  0.9328
 4719SOL    HW114552   2.303   1.284   5.574  0.4501  0.0237  0.5431
 4719SOL    HW214553   2.223   1.193   5.484  0.0564 -0.2942  1.2072
 4720SOL     OW14554   6.446   2.290   0.469  0.1373  0.6760  0.5381
 4720SOL    HW114555   6.454   2.386   0.475  1.3867  0.5464  1.1772
 4720SOL    HW214556   6.358   2.272   0.503  0.0150  1.5728  0.7346
 4721SOL     OW14557   2.759   1.156   5.460  0.3079 -0.3775  0.3813
 4721SOL    HW114558   2.767   1.196   5.547  0.1646  0.1775  0.1488
 4721SOL    HW214559   2.671   1.179   5.431  1.2926  1.9775 -1.1056
 4722SOL     OW14560   6.680   2.809   6.079  0.1953  0.8085  0.4237
 4722SOL    HW114561   6.739   2.751   6.032  0.3590 -0.1160  1.7127
 4722SOL    HW214562   6.722   2.895   6.074  0.3575  0.6730 -0.8128
 4723SOL     OW14563   3.350   5.375   0.775 -0.0174  0.2588  0.3980
 4723SOL    HW114564   3.403   5.312   0.824 -0.4168 -0.8164 -0.4984
 4723SOL    HW214565   3.299   5.421   0.842  0.5234 -0.1347  1.0993
 4724SOL     OW14566   3.300   2.959   2.551 -0.9017 -0.3005 -0.4294
 4724SOL    HW114567   3.286   2.866   2.531 -0.4092 -0.3644 -0.4794
 4724SOL    HW214568   3.308   2.962   2.646 -2.1152 -0.1447 -0.3155
 4725SOL     OW14569   5.987   1.860   0.318  0.1824  0.2121  0.8098
 4725SOL    HW114570   5.997   1.890   0.228 -0.3943 -2.3851 -0.2214
 4725SOL    HW214571   5.925   1.920   0.357  0.9057  1.7581 -0.3199
 4726SOL     OW14572   1.339   2.359   1.816 -0.2943 -0.2333  0.5105
 4726SOL    HW114573   1.407   2.406   1.767 -0.1346  0.4330  1.3283
 4726SOL    HW214574   1.388   2.307   1.880 -0.4975 -1.0847 -0.0113
 4727SOL     OW14575   4.736   6.083   0.478 -0.3611 -0.5289  0.4487
 4727SOL    HW114576   4.783   6.156   0.437  0.4788 -0.5880  1.2588
 4727SOL    HW214577   4.647   6.089   0.443  0.4029 -0.8378 -1.7021
 4728SOL     OW14578   0.595   4.174   1.037  0.0050  0.0960 -0.8778
 4728SOL    HW114579   0.682   4.200   1.007 -0.0849  0.3161 -0.9482
 4728SOL    HW214580   0.539   4.248   1.015 -0.1593  0.0438 -0.6331
 4729SOL     OW14581   5.271   0.018   0.153 -0.3359 -0.3348  0.2724
 4729SOL    HW114582   5.285   0.004   0.247 -1.1388  0.7223  0.5802
 4729SOL    HW214583   5.181  -0.010   0.138 -1.0492  1.7272  0.3557
 4730SOL     OW14584   3.536   0.680   5.697 -0.3488  0.1711 -0.2745
 4730SOL    HW114585   3.538   0.595   5.742 -2.4399 -0.1097 -0.6225
 4730SOL    HW214586   3.460   0.674   5.639 -0.8412  2.4530  0.0623
 4731SOL     OW14587   1.800   6.635   0.666  0.4163  0.4262  0.1225
 4731SOL    HW114588   1.754   6.552   0.676 -1.0763  1.0685 -1.0284
 4731SOL    HW214589   1.778   6.685   0.745  0.6255  0.0490  0.4187
 4732SOL     OW14590   4.987   1.399   5.664  0.0689 -0.1525 -0.1182
 4732SOL    HW114591   4.917   1.463   5.675 -0.9952 -1.1247 -1.0506
 4732SOL    HW214592   5.057   1.448   5.621 -0.3432  0.6272  0.0672
 4733SOL     OW14593   1.159   5.365   4.880 -0.1102 -0.1340 -0.6537
 4733SOL    HW114594   1.078   5.408   4.854  0.6765  1.8719  0.0022
 4733SOL    HW214595   1.134   5.309   4.953 -0.6760  1.7043  0.6208
 4734SOL     OW14596   0.373   0.896   4.238  0.1427 -0.3410  0.0207
 4734SOL    HW114597   0.467   0.912   4.248  0.1787 -1.3551  1.6659
 4734SOL    HW214598   0.338   0.980   4.207  1.5758  0.0383 -0.6776
 4735SOL     OW14599   2.956   0.380   4.085  0.0518 -0.6309 -0.1555
 4735SOL    HW114600   2.861   0.372   4.072  0.1766 -1.4184 -0.6093
 4735SOL    HW214601   2.989   0.409   3.999  0.0223  1.4687  0.4913
 4736SOL     OW14602   0.201   2.395   0.357 -0.0725  0.0414 -0.3649
 4736SOL    HW114603   0.252   2.369   0.280 -1.0383  1.0377 -1.3971
 4736SOL    HW214604   0.179   2.313   0.400  3.0523 -0.4024  0.6251
 4737SOL     OW14605   3.710   4.821   4.620 -0.1651  0.0562 -0.5945
 4737SOL    HW114606   3.748   4.908   4.632 -0.0144 -0.2686  1.6428
 4737SOL    HW214607   3.634   4.836   4.563 -1.1968  1.9836  1.1633
 4738SOL     OW14608   6.311   1.638   5.611 -0.1707  0.3705  0.0236
 4738SOL    HW114609   6.222   1.642   5.647 -0.6128 -0.4745 -0.9164
 4738SOL    HW214610   6.358   1.579   5.669 -0.3793  0.3888  0.2159
 4739SOL     OW14611   6.323   4.296   0.075 -0.8298 -0.2379  0.6302
 4739SOL    HW114612   6.414   4.268   0.086 -0.3294  0.1131 -1.8747
 4739SOL    HW214613   6.329   4.380   0.029 -2.4068 -0.7475 -0.6086
 4740SOL     OW14614   2.514   3.141   3.168  0.4936 -0.2741 -0.2959
 4740SOL    HW114615   2.486   3.222   3.124  0.0304 -0.7630 -0.9161
 4740SOL    HW214616   2.552   3.171   3.250 -2.1394  0.4128  0.7673
 4741SOL     OW14617   6.144   4.549   2.494  0.7533 -0.2109  0.0512
 4741SOL    HW114618   6.237   4.537   2.515  0.7196 -1.9289 -0.5877
 4741SOL    HW214619   6.109   4.460   2.489 -1.0208  0.4091  0.5894
 4742SOL     OW14620   1.987   3.954   4.291  0.8669 -0.1907  0.3292
 4742SOL    HW114621   1.963   3.978   4.381  1.5233 -2.1502  1.0758
 4742SOL    HW214622   1.948   3.868   4.278 -0.0631  0.4659 -1.6614
 4743SOL     OW14623   3.654   6.579   1.495  0.1256 -0.3970  0.2314
 4743SOL    HW114624   3.688   6.619   1.575  2.7862 -0.3546 -0.8225
 4743SOL    HW214625   3.612   6.652   1.448  0.9395  0.1873  0.3864
 4744SOL     OW14626   6.133   1.287   3.604  0.1783 -0.1036 -0.5270
 4744SOL    HW114627   6.112   1.209   3.656  2.2136 -0.1592  0.3082
 4744SOL    HW214628   6.218   1.316   3.638  0.1571  1.6265 -1.8279
 4745SOL     OW14629   3.856   5.628   3.601  0.0287  0.2060 -0.8256
 4745SOL    HW114630   3.788   5.613   3.667  0.2315  1.4999 -0.2950
 4745SOL    HW214631   3.924   5.565   3.621 -0.4283 -0.2021 -0.5342
 4746SOL     OW14632   4.627   0.493   0.938 -1.1255 -0.4164  0.2277
 4746SOL    HW114633   4.652   0.573   0.983  1.0095 -0.8063 -0.1393
 4746SOL    HW214634   4.532   0.487   0.949 -1.2496  1.8233  0.7666
 4747SOL     OW14635   1.109   5.077   2.247 -0.4398 -0.7120 -0.4336
 4747SOL    HW114636   1.103   5.155   2.302  1.4265 -0.1018 -1.0001
 4747SOL    HW214637   1.019   5.056   2.224 -1.0596  0.6100  0.6446
 4748SOL     OW14638   0.974   2.481   3.345  0.0522 -0.3824  0.1771
 4748SOL    HW114639   0.948   2.570   3.324 -0.8195  0.1191  2.9725
 4748SOL    HW214640   0.892   2.432   3.347  0.1402 -0.5178  1.6194
 4749SOL     OW14641   3.084   0.819   0.502 -0.3282 -0.1892  0.2170
 4749SOL    HW114642   3.113   0.908   0.524 -0.0713  0.0838 -1.1248
 4749SOL    HW214643   3.164   0.775   0.472 -0.0351 -1.5402  2.7148
 4750SOL     OW14644   5.597   1.040   4.048 -0.1041  0.9266  0.2313
 4750SOL    HW114645   5.583   0.994   4.131 -0.9212 -1.4701 -1.1156
 4750SOL    HW214646   5.510   1.071   4.022 -0.0283  0.7988 -0.1854
 4751SOL     OW14647   4.960   4.123   3.186 -0.3684  0.8912 -0.1446
 4751SOL    HW114648   4.917   4.090   3.264 -2.2919 -0.2336 -1.5748
 4751SOL    HW214649   4.904   4.093   3.114  1.9840  0.7920 -2.0469
 4752SOL     OW14650   1.827   6.332   2.633 -0.2738 -0.3047 -0.9454
 4752SOL    HW114651   1.841   6.279   2.555 -0.0305 -0.9977 -0.4348
 4752SOL    HW214652   1.863   6.280   2.705  1.5083  1.2470 -0.6311
 4753SOL     OW14653   3.294   0.852   1.113  0.2561 -0.2646 -0.5529
 4753SOL    HW114654   3.211   0.873   1.071 -0.3106 -0.9655  0.1649
 4753SOL    HW214655   3.323   0.934   1.153 -0.5491 -0.2167 -0.0570
 4754SOL     OW14656   1.533   4.777   5.133 -0.3555  0.0449 -1.0022
 4754SOL    HW114657   1.465   4.732   5.183  0.2487  1.7832  1.5690
 4754SOL    HW214658   1.516   4.870   5.147  3.6271  0.6449  1.6150
 4755SOL     OW14659   1.413   2.547   5.365 -0.4520  0.9951 -0.2287
 4755SOL    HW114660   1.445   2.553   5.275 -1.0005  1.5900 -0.3949
 4755SOL    HW214661   1.345   2.480   5.362 -0.8318  1.3839 -0.3715
 4756SOL     OW14662   3.232   6.795   6.522 -0.2168 -0.1479 -0.2799
 4756SOL    HW114663   3.150   6.756   6.550  0.2268 -0.6934  0.2852
 4756SOL    HW214664   3.206   6.867   6.464 -1.1210  0.4204  0.7901
 4757SOL     OW14665   3.284   1.412   0.978 -0.0016 -0.2695  0.2386
 4757SOL    HW114666   3.325   1.485   0.933  0.7660 -1.6476 -1.4035
 4757SOL    HW214667   3.330   1.406   1.062 -0.8082  1.7399  0.8865
 4758SOL     OW14668   3.445   1.319   6.824  0.2163 -0.1366 -0.1799
 4758SOL    HW114669   3.371   1.339   6.882 -0.3676 -0.6169 -0.7411
 4758SOL    HW214670   3.523   1.337   6.877 -0.3008 -0.5817  0.7630
 4759SOL     OW14671   3.536   6.641   5.558  0.1331 -0.5523  0.3154
 4759SOL    HW114672   3.454   6.629   5.606  0.2558  3.2478  1.8212
 4759SOL    HW214673   3.601   6.660   5.626  2.2560 -2.9134 -0.8840
 4760SOL     OW14674   2.667   2.497   3.462 -0.5190 -0.4039 -0.6651
 4760SOL    HW114675   2.667   2.498   3.366  4.2532 -3.3040 -1.0507
 4760SOL    HW214676   2.663   2.404   3.485  2.7532 -0.2006  1.4929
 4761SOL     OW14677   0.528   1.912   2.078  0.6130  0.1259 -0.1730
 4761SOL    HW114678   0.583   1.987   2.103 -0.3919  0.2706  1.8253
 4761SOL    HW214679   0.515   1.921   1.984  3.2480  0.5757 -0.5689
 4762SOL     OW14680   0.204   2.265   5.090  0.5336  0.1592  0.3874
 4762SOL    HW114681   0.109   2.262   5.099  0.4017 -0.3299 -0.9532
 4762SOL    HW214682   0.231   2.333   5.152 -0.6447  0.0998  1.0068
 4763SOL     OW14683   1.146   1.214   4.662 -0.1916 -0.1170  0.2696
 4763SOL    HW114684   1.148   1.272   4.738 -0.1413  1.6096 -0.9943
 4763SOL    HW214685   1.054   1.212   4.635  0.3133  2.8360 -2.1462
 4764SOL     OW14686   3.307   3.278   2.212 -0.5320  0.6874  0.2392
 4764SOL    HW114687   3.365   3.281   2.289  1.1285 -0.5197 -0.8870
 4764SOL    HW214688   3.247   3.206   2.231 -1.6853  1.9041  1.3908
 4765SOL     OW14689   3.971   1.867   4.113 -0.3139  0.3935  0.3948
 4765SOL    HW114690   4.034   1.860   4.041 -2.3861 -0.6124 -1.4244
 4765SOL    HW214691   4.000   1.944   4.162  1.2427  1.0811 -1.4651
 4766SOL     OW14692   5.756   4.168   2.366 -0.0389  0.3054  0.3375
 4766SOL    HW114693   5.729   4.220   2.290  0.5333 -1.3905 -1.1135
 4766SOL    HW214694   5.851   4.161   2.356  0.1841  0.9486  1.8365
 4767SOL     OW14695   3.137   4.072   5.306 -0.2385  0.1354  0.6818
 4767SOL    HW114696   3.154   3.981   5.332  0.6791 -0.0947 -0.6293
 4767SOL    HW214697   3.077   4.105   5.373 -0.3136 -1.3246  1.3778
 4768SOL     OW14698   4.960   5.630   4.000 -0.8226  0.5904 -0.0329
 4768SOL    HW114699   4.990   5.658   4.087  2.2331  0.7657 -1.0145
 4768SOL    HW214700   5.008   5.549   3.982 -2.7488 -0.4400 -0.9058
 4769SOL     OW14701   3.052   2.953   1.089 -0.2030 -0.3490 -0.0072
 4769SOL    HW114702   2.997   2.922   1.161 -0.0953 -1.2132 -0.2911
 4769SOL    HW214703   3.124   2.890   1.085 -0.9325 -1.1551 -1.7618
 4770SOL     OW14704   0.826   2.367   5.869  0.6698 -0.6322 -0.7877
 4770SOL    HW114705   0.841   2.453   5.909  1.9948 -0.6598 -1.1765
 4770SOL    HW214706   0.787   2.314   5.939 -0.2108  0.2808 -0.5595
 4771SOL     OW14707   2.654   0.124   1.962 -0.3467 -0.2900 -0.3276
 4771SOL    HW114708   2.589   0.120   2.032  1.7884 -0.1104  1.7886
 4771SOL    HW214709   2.712   0.049   1.979  2.4812  1.9008  0.5930
 4772SOL     OW14710   3.179   5.389   4.547 -0.0351 -0.0468  0.3660
 4772SOL    HW114711   3.101   5.341   4.520 -0.5563  1.4352 -0.8973
 4772SOL    HW214712   3.229   5.402   4.466  1.5729 -0.9990  1.1456
 4773SOL     OW14713   2.766   0.014   5.259 -0.5533 -0.4406  0.2649
 4773SOL    HW114714   2.793   0.022   5.167  0.9578  1.2927  0.8034
 4773SOL    HW214715   2.783  -0.077   5.282 -2.3210 -1.3075 -1.5402
 4774SOL     OW14716   6.120   5.917   3.298  0.1763 -0.2638  0.5289
 4774SOL    HW114717   6.071   5.886   3.222  0.4431  0.2506  0.1384
 4774SOL    HW214718   6.187   5.851   3.312  0.2447 -0.2678  0.1941
 4775SOL     OW14719   6.310   6.401   1.164  0.1206  0.0869 -0.3367
 4775SOL    HW114720   6.311   6.496   1.179  1.0034  0.2453 -1.2797
 4775SOL    HW214721   6.311   6.392   1.069  0.6754 -0.8684 -0.2501
 4776SOL     OW14722   1.833   0.350   4.416 -0.2847 -0.6570  0.2077
 4776SOL    HW114723   1.833   0.441   4.386  0.7106 -0.6363  0.2130
 4776SOL    HW214724   1.895   0.306   4.358 -1.6502 -1.6158 -0.5711
 4777SOL     OW14725   2.886   0.121   0.202  0.1607  0.2385  0.4493
 4777SOL    HW114726   2.913   0.138   0.112 -1.6028  0.1845 -0.1196
 4777SOL    HW214727   2.936   0.043   0.228  0.1412 -0.1838 -0.7364
 4778SOL     OW14728   4.821   2.452   1.541 -0.2173  0.0945  0.1538
 4778SOL    HW114729   4.849   2.363   1.520 -1.7215 -0.4739  0.3690
 4778SOL    HW214730   4.727   2.443   1.560 -0.2530  1.6168  0.8402
 4779SOL     OW14731   0.541   6.186   5.025 -0.2819  0.4710  0.1964
 4779SOL    HW114732   0.616   6.189   4.967  1.8371  1.1680  2.7756
 4779SOL    HW214733   0.468   6.219   4.972  0.8313 -1.5309 -2.7999
 4780SOL     OW14734   1.021   2.622   5.538  0.3638 -0.1879  0.4010
 4780SOL    HW114735   0.994   2.710   5.565 -0.3480 -0.4230  0.4759
 4780SOL    HW214736   1.098   2.603   5.592 -0.2537 -0.1205  1.3186
 4781SOL     OW14737   2.633   1.191   4.393 -0.2953  0.7526  0.1553
 4781SOL    HW114738   2.641   1.126   4.323 -0.5725  0.1555  0.6708
 4781SOL    HW214739   2.544   1.225   4.382 -0.7238 -0.1000  0.8544
 4782SOL     OW14740   0.637   4.210   0.475  0.5241  0.0031 -0.0460
 4782SOL    HW114741   0.630   4.148   0.548  0.6844  2.0966  1.8474
 4782SOL    HW214742   0.552   4.206   0.431 -0.9786  1.2891  2.5255
 4783SOL     OW14743   0.103   5.262   1.163  0.6506 -0.3878  0.4587
 4783SOL    HW114744   0.028   5.276   1.105  1.3886  0.5849 -0.2765
 4783SOL    HW214745   0.124   5.349   1.196  1.1234 -0.7385  1.0979
 4784SOL     OW14746   2.982   0.346   5.494 -1.3604 -0.5150 -0.0783
 4784SOL    HW114747   2.974   0.391   5.578  0.9101 -2.2638  1.1716
 4784SOL    HW214748   2.915   0.277   5.497 -0.5485 -1.2813  0.8024
 4785SOL     OW14749   4.754   0.601   6.733 -0.2342 -0.4174 -0.1230
 4785SOL    HW114750   4.785   0.517   6.766 -0.8780 -0.8612 -0.6322
 4785SOL    HW214751   4.750   0.590   6.638  0.0930  0.3330 -0.2369
 4786SOL     OW14752   0.933   1.186   4.176  0.0535  0.1419 -0.5234
 4786SOL    HW114753   0.955   1.119   4.112  0.2545 -1.3168  0.9935
 4786SOL    HW214754   0.909   1.137   4.255  2.1273  1.8059  1.3036
 4787SOL     OW14755   3.174   5.561   3.937  0.3323  0.3167 -0.1662
 4787SOL    HW114756   3.167   5.583   3.844  0.2439  0.9327 -0.0190
 4787SOL    HW214757   3.268   5.566   3.956  0.2810  0.9592 -0.0484
 4788SOL     OW14758   2.366   6.586   2.665  0.3620  0.1103 -0.4144
 4788SOL    HW114759   2.438   6.535   2.701  1.2349  1.8777  0.4839
 4788SOL    HW214760   2.288   6.532   2.681  1.4560 -1.9956 -1.7302
 4789SOL     OW14761   4.068   1.992   2.803 -1.3086 -0.4849 -0.1967
 4789SOL    HW114762   4.047   1.904   2.837  0.2398 -1.1439 -0.8351
 4789SOL    HW214763   4.143   2.020   2.857  0.7648 -1.2659 -2.4933
 4790SOL     OW14764   0.432   5.125   4.803  0.2514 -0.2835 -0.0702
 4790SOL    HW114765   0.405   5.174   4.881  0.7224  0.8838 -0.6173
 4790SOL    HW214766   0.380   5.045   4.806 -0.9672  0.4954  0.5699
 4791SOL     OW14767   6.565   1.517   0.809  0.1607 -0.5477 -0.1435
 4791SOL    HW114768   6.558   1.541   0.902  0.1803  1.6411 -0.6467
 4791SOL    HW214769   6.640   1.458   0.805 -0.6082 -1.7250  1.3769
 4792SOL     OW14770   3.874   3.000   6.483  0.2279  0.3958 -0.6533
 4792SOL    HW114771   3.859   2.933   6.416  1.2154 -0.3422 -0.1597
 4792SOL    HW214772   3.918   2.953   6.554  1.5516  1.6927 -0.5646
 4793SOL     OW14773   5.138   4.390   5.321 -0.4730 -0.0296 -0.0594
 4793SOL    HW114774   5.148   4.363   5.229 -0.9850  0.6409 -0.3170
 4793SOL    HW214775   5.227   4.386   5.357 -0.2059  0.0944 -0.6956
 4794SOL     OW14776   0.921   6.353   5.674  0.2459 -0.2288  0.2186
 4794SOL    HW114777   0.865   6.359   5.596 -0.7844  0.6796  0.9886
 4794SOL    HW214778   0.945   6.261   5.680 -3.6194 -1.3544  1.4657
 4795SOL     OW14779   0.251   2.860   6.623  0.1553 -0.0327 -0.0837
 4795SOL    HW114780   0.207   2.944   6.637  0.3690 -0.1633  1.6372
 4795SOL    HW214781   0.296   2.870   6.539  0.0649  1.5354  0.0197
 4796SOL     OW14782   5.188   0.001   6.461  0.1698  0.3966 -0.4712
 4796SOL    HW114783   5.281  -0.011   6.440  0.2716 -0.0439  0.1871
 4796SOL    HW214784   5.186   0.009   6.557 -0.2860  2.2067 -0.5932
 4797SOL     OW14785   2.559   1.056   2.845 -0.5027 -0.4357 -0.0727
 4797SOL    HW114786   2.547   0.989   2.777 -0.7511  0.1351 -0.6106
 4797SOL    HW214787   2.478   1.109   2.841 -1.4846 -1.6415  2.1321
 4798SOL     OW14788   2.795   5.595   1.756 -0.1720  0.3310 -0.0697
 4798SOL    HW114789   2.727   5.538   1.792  0.2549  0.3893  0.8600
 4798SOL    HW214790   2.759   5.625   1.672  0.5826 -3.2299 -1.8608
 4799SOL     OW14791   4.248   0.643   2.096  0.0335 -0.7226  0.3448
 4799SOL    HW114792   4.288   0.729   2.107  1.1752 -1.0802 -0.7889
 4799SOL    HW214793   4.163   0.650   2.139  0.0539  1.0080  0.1427
 4800SOL     OW14794   1.249   1.811   5.379  0.1737  0.3351  0.4253
 4800SOL    HW114795   1.226   1.792   5.470  1.4118 -0.1823  0.6364
 4800SOL    HW214796   1.330   1.861   5.385  1.8864 -2.1771 -0.4635
 4801SOL     OW14797   3.480   6.810   1.409 -0.6860 -0.3498 -0.5577
 4801SOL    HW114798   3.404   6.758   1.434 -0.2039 -0.4643  0.7908
 4801SOL    HW214799   3.518   6.838   1.493  0.4547  0.1316 -1.2120
 4802SOL     OW14800   0.020   6.303   3.526  0.5111  0.1442 -0.2159
 4802SOL    HW114801   0.076   6.308   3.448  2.7079 -1.6931  1.1186
 4802SOL    HW214802  -0.069   6.305   3.492  1.3703  0.9890 -2.6309
 4803SOL     OW14803   2.449   3.319   6.361 -0.1116  0.0131 -0.0523
 4803SOL    HW114804   2.422   3.375   6.434 -0.3008 -0.8835  0.5828
 4803SOL    HW214805   2.511   3.257   6.399 -0.1337 -0.4018 -0.6718
 4804SOL     OW14806   6.876   4.976   4.449  0.8127 -0.9682 -0.1821
 4804SOL    HW114807   6.789   5.006   4.421  0.3997 -1.1209  0.8847
 4804SOL    HW214808   6.860   4.929   4.531  1.7099 -2.3489 -0.7744
 4805SOL     OW14809   0.425   3.861   3.799 -0.1290  0.1634 -0.3394
 4805SOL    HW114810   0.466   3.855   3.713  1.2450  1.7316  0.1613
 4805SOL    HW214811   0.378   3.778   3.809  1.7214 -1.0965 -1.5659
 4806SOL     OW14812   0.042   1.748   3.220  0.4465  0.2528 -0.0199
 4806SOL    HW114813   0.050   1.662   3.260 -1.0310  0.0867 -0.0029
 4806SOL    HW214814   0.105   1.749   3.149  1.5399 -0.2719  0.9192
 4807SOL     OW14815   5.908   0.885   0.794 -0.0036 -0.2134 -0.8337
 4807SOL    HW114816   5.968   0.952   0.760 -0.7199  0.2358 -1.2407
 4807SOL    HW214817   5.829   0.934   0.817  0.3992 -0.5093  1.4153
 4808SOL     OW14818   5.911   2.429   2.516  0.1173 -0.0164 -0.1062
 4808SOL    HW114819   5.995   2.410   2.556  0.0232  0.1514  0.1737
 4808SOL    HW214820   5.854   2.455   2.589 -0.1527 -0.0492 -0.3010
 4809SOL     OW14821   1.463   6.940   6.804 -0.2076  0.0755  0.0651
 4809SOL    HW114822   1.520   6.944   6.727  1.6988  1.4808  1.4502
 4809SOL    HW214823   1.474   7.025   6.847 -0.9172 -0.7928  2.0938
 4810SOL     OW14824   1.179   4.851   1.716 -0.0827 -0.0584 -0.2785
 4810SOL    HW114825   1.200   4.906   1.640  0.0290 -1.4520 -1.3012
 4810SOL    HW214826   1.100   4.804   1.689  0.4075 -1.1454  0.1543
 4811SOL     OW14827   5.716   4.092   1.483 -0.1319  0.2594  0.2163
 4811SOL    HW114828   5.803   4.103   1.444  0.2369  0.4576  1.0653
 4811SOL    HW214829   5.674   4.177   1.473 -0.0044  0.3353  0.3196
 4812SOL     OW14830   5.871   1.346   2.434  0.0760  1.0783 -0.2888
 4812SOL    HW114831   5.834   1.434   2.434  1.2112  1.5926  1.6404
 4812SOL    HW214832   5.794   1.288   2.436 -0.6622  2.0376 -0.1593
 4813SOL     OW14833   0.938   2.651   4.126  0.5475 -0.8205  0.3724
 4813SOL    HW114834   0.970   2.741   4.137 -1.1301 -0.4486  3.2968
 4813SOL    HW214835   0.868   2.659   4.061 -0.6387  0.3450  1.7295
 4814SOL     OW14836   6.075   5.560   2.254 -0.7036  0.1277  0.1532
 4814SOL    HW114837   6.079   5.506   2.333 -2.3124 -0.3027 -0.0127
 4814SOL    HW214838   6.080   5.497   2.182  0.6687  0.5115 -0.1038
 4815SOL     OW14839   4.512   6.672   1.053 -0.3001 -0.0623  0.4937
 4815SOL    HW114840   4.546   6.705   1.136 -1.9948 -0.9694  1.6181
 4815SOL    HW214841   4.589   6.643   1.005  0.9416  2.5065  0.7709
 4816SOL     OW14842   2.995   6.691   6.599  0.2379  0.0124  0.0627
 4816SOL    HW114843   2.945   6.734   6.668 -0.5755 -0.4170 -0.2387
 4816SOL    HW214844   2.932   6.681   6.527  0.8035 -0.3980 -0.3844
 4817SOL     OW14845   1.362   3.867   2.803 -0.2661 -0.6135  0.4677
 4817SOL    HW114846   1.358   3.962   2.794 -0.5166 -0.5792  0.9025
 4817SOL    HW214847   1.436   3.841   2.749  0.3602 -0.0768  1.0522
 4818SOL     OW14848   1.261   1.313   6.720 -0.2350  0.1841  0.2288
 4818SOL    HW114849   1.342   1.280   6.757  0.4562  1.0881 -0.4449
 4818SOL    HW214850   1.279   1.404   6.698 -1.3129  0.2980 -0.2609
 4819SOL     OW14851   1.211   2.934   3.356 -0.2049 -0.4735  0.0348
 4819SOL    HW114852   1.270   2.958   3.427  0.5026 -1.8678 -0.0421
 4819SOL    HW214853   1.124   2.962   3.386  0.1637 -0.5036  1.1785
 4820SOL     OW14854   5.557   3.367   4.701  0.1066 -0.4154  0.4804
 4820SOL    HW114855   5.484   3.322   4.658 -0.9346  1.3747  0.2497
 4820SOL    HW214856   5.545   3.350   4.794 -0.9870  0.3401  0.4957
 4821SOL     OW14857   6.150   6.479   0.897 -0.7838 -0.2973  0.0639
 4821SOL    HW114858   6.108   6.425   0.831 -0.1622 -0.4223 -0.2377
 4821SOL    HW214859   6.243   6.477   0.875 -0.6794  0.4345  0.3772
 4822SOL     OW14860   4.141   6.722   2.408 -0.6613  0.1205 -0.1527
 4822SOL    HW114861   4.125   6.806   2.365 -0.3489  0.3896  0.2603
 4822SOL    HW214862   4.067   6.711   2.468 -0.8537 -0.0374 -0.4171
 4823SOL     OW14863   1.373   6.392   0.231  0.0763 -0.2554 -0.6372
 4823SOL    HW114864   1.402   6.429   0.314 -0.0964 -0.4431 -0.4917
 4823SOL    HW214865   1.428   6.315   0.218  0.1397 -0.1964 -0.7252
 4824SOL     OW14866   5.850   2.285   1.147  0.1379  0.3041 -0.4686
 4824SOL    HW114867   5.889   2.263   1.231 -0.0036 -0.3010 -0.5526
 4824SOL    HW214868   5.801   2.366   1.162  2.3767  1.7575 -0.6414
 4825SOL     OW14869   0.211   1.869   1.800 -0.0192 -0.2287 -0.3345
 4825SOL    HW114870   0.301   1.893   1.822 -0.5913  1.9595 -0.0990
 4825SOL    HW214871   0.165   1.871   1.884 -0.4134 -0.7736 -0.5308
 4826SOL     OW14872   6.046   3.222   0.303 -0.2104 -0.5967 -0.2578
 4826SOL    HW114873   6.054   3.137   0.261  1.6623  0.4814 -2.2173
 4826SOL    HW214874   6.127   3.232   0.353 -0.2068  0.2291 -0.4205
 4827SOL     OW14875   6.700   5.078   0.716 -0.3974 -0.2107 -0.7347
 4827SOL    HW114876   6.788   5.074   0.679 -0.5729  0.3634 -1.2319
 4827SOL    HW214877   6.646   5.112   0.644 -0.7266  1.0248  0.0691
 4828SOL     OW14878   2.859   4.898   2.926 -0.4676 -0.4349 -0.4414
 4828SOL    HW114879   2.768   4.895   2.955  0.0344 -0.6146  1.1778
 4828SOL    HW214880   2.870   4.820   2.872 -0.7568 -1.5104  1.0016
 4829SOL     OW14881   3.984   1.868   3.401  0.1201 -0.0609 -0.7813
 4829SOL    HW114882   3.945   1.826   3.478  0.7618 -2.8994 -1.8834
 4829SOL    HW214883   3.928   1.841   3.328  1.8062 -0.8802 -1.8291
 4830SOL     OW14884   1.200   0.106   1.807 -0.4820  0.6942  0.0475
 4830SOL    HW114885   1.157   0.103   1.721 -0.0441 -1.2024 -0.1567
 4830SOL    HW214886   1.267   0.038   1.802 -2.8127 -2.1389  3.0467
 4831SOL     OW14887   4.923   6.185   4.941  0.6480 -0.7719  0.4933
 4831SOL    HW114888   4.901   6.169   5.033 -1.0973  0.6624  0.3797
 4831SOL    HW214889   4.888   6.109   4.895  0.1273 -0.7714  0.8677
 4832SOL     OW14890   3.552   3.021   4.028  0.1022 -0.6254  0.5089
 4832SOL    HW114891   3.611   3.032   4.103  0.4690 -0.4606  0.2045
 4832SOL    HW214892   3.495   3.098   4.031  0.9158  0.0246 -0.0746
 4833SOL     OW14893   3.795   0.323   4.201  0.2659 -0.0210  0.4195
 4833SOL    HW114894   3.840   0.353   4.122  0.7717  1.2201  1.1386
 4833SOL    HW214895   3.849   0.358   4.273 -0.3127 -0.9152  1.3107
 4834SOL     OW14896   1.690   0.148   0.840  0.0071  0.2187  0.1474
 4834SOL    HW114897   1.596   0.167   0.849 -0.1710 -0.8562  0.8032
 4834SOL    HW214898   1.733   0.232   0.851 -0.8868  0.7381 -0.2222
 4835SOL     OW14899   5.577   6.587   1.758  0.4467  0.3651 -0.1047
 4835SOL    HW114900   5.495   6.636   1.748 -1.3531 -2.5151 -0.7048
 4835SOL    HW214901   5.615   6.586   1.671 -0.7435 -1.2056 -0.6426
 4836SOL     OW14902   5.600   3.329   1.212 -0.4512  0.3531 -0.1004
 4836SOL    HW114903   5.595   3.374   1.296  0.9596  0.0977  0.1339
 4836SOL    HW214904   5.523   3.271   1.211 -0.8927  0.9189  0.6684
 4837SOL     OW14905   5.761   5.064   1.074  0.0424  0.3699 -0.2416
 4837SOL    HW114906   5.838   5.104   1.114  0.8333  0.0169 -1.3843
 4837SOL    HW214907   5.712   5.137   1.037  0.5252  0.4652 -0.6957
 4838SOL     OW14908   0.782   5.501   5.942 -0.2731  0.6580 -0.1442
 4838SOL    HW114909   0.802   5.409   5.958  0.0539  0.7156 -0.1976
 4838SOL    HW214910   0.768   5.539   6.029 -1.5059  0.3219 -0.1901
 4839SOL     OW14911   2.412   1.998   5.911 -0.6971 -0.3922  0.6074
 4839SOL    HW114912   2.465   2.077   5.902 -1.2017  0.1408  2.0126
 4839SOL    HW214913   2.475   1.927   5.920 -0.2177  0.1062  1.2645
 4840SOL     OW14914   0.855   1.941   2.129 -0.9741  0.3629 -0.5339
 4840SOL    HW114915   0.846   1.924   2.035 -2.7223  1.8699 -0.6996
 4840SOL    HW214916   0.808   1.868   2.170  0.4898 -0.7524 -0.7355
 4841SOL     OW14917   2.497   1.947   3.485  0.0257 -0.4261  0.0677
 4841SOL    HW114918   2.535   2.010   3.422  2.0537  0.6207  2.1729
 4841SOL    HW214919   2.548   1.867   3.472  0.9376  0.0157  0.8123
 4842SOL     OW14920   3.237   1.639   6.775 -0.2818  0.1208 -0.6256
 4842SOL    HW114921   3.276   1.687   6.848 -1.2755 -0.2679  0.1863
 4842SOL    HW214922   3.155   1.685   6.757  0.6633  1.1748 -2.5793
 4843SOL     OW14923   6.471   4.560   1.580  0.1745 -0.0412  0.3979
 4843SOL    HW114924   6.530   4.634   1.595  0.5623 -0.3169  0.2485
 4843SOL    HW214925   6.464   4.554   1.485 -1.1052  0.7753  0.4082
 4844SOL     OW14926   6.055   6.328   0.589 -0.2073  0.0970  0.4066
 4844SOL    HW114927   6.057   6.281   0.506  0.5918  2.2005 -0.8362
 4844SOL    HW214928   6.103   6.272   0.650 -0.4197 -1.2747 -0.6360
 4845SOL     OW14929   0.151   3.926   2.854 -0.5810  0.7342  0.3827
 4845SOL    HW114930   0.157   4.018   2.827  1.3961  1.0386  1.6417
 4845SOL    HW214931   0.062   3.900   2.830 -1.5506  3.2642  0.8682
 4846SOL     OW14932   5.346   3.420   3.246  0.2239  0.1117 -0.2620
 4846SOL    HW114933   5.409   3.349   3.247 -0.2755 -0.4781 -2.7210
 4846SOL    HW214934   5.286   3.400   3.318 -0.1788 -2.2637 -1.1625
 4847SOL     OW14935   0.397   5.565   2.402 -0.1457  0.2395  0.6905
 4847SOL    HW114936   0.396   5.568   2.498 -1.1540 -0.5295  0.7090
 4847SOL    HW214937   0.310   5.595   2.376 -0.2496 -0.5766  0.0526
 4848SOL     OW14938   1.184   1.872   5.694  0.2532 -0.2579 -0.5458
 4848SOL    HW114939   1.122   1.892   5.763  0.7349 -1.2273  0.1985
 4848SOL    HW214940   1.247   1.813   5.735  0.7684 -0.5462 -1.7104
 4849SOL     OW14941   0.084   1.771   0.563 -0.2297 -0.6877 -0.2974
 4849SOL    HW114942   0.118   1.861   0.560  1.9884 -1.4723 -1.0089
 4849SOL    HW214943  -0.003   1.779   0.602  0.5525  1.5820  1.1727
 4850SOL     OW14944   6.009   2.441   0.846  0.1512  0.6732 -0.3699
 4850SOL    HW114945   6.047   2.360   0.880  0.5490  0.7307 -0.6666
 4850SOL    HW214946   6.036   2.508   0.909 -0.3554  0.5453 -0.0111
 4851SOL     OW14947   5.756   5.980   0.131  0.6273 -0.1288  0.7249
 4851SOL    HW114948   5.750   6.076   0.131 -0.2599 -0.1678  0.4042
 4851SOL    HW214949   5.809   5.959   0.054  2.7338  0.1666  2.0340
 4852SOL     OW14950   5.018   0.585   0.960  0.2119 -0.1399 -0.6722
 4852SOL    HW114951   4.923   0.593   0.963  0.3699  2.4205  1.4038
 4852SOL    HW214952   5.044   0.631   0.880 -0.1655  3.7149  1.2011
 4853SOL     OW14953   5.849   6.846   2.295  0.6623 -0.1196 -0.0287
 4853SOL    HW114954   5.862   6.933   2.259  0.9655  0.4782  1.4694
 4853SOL    HW214955   5.900   6.845   2.376 -1.5155 -0.7478  1.4241
 4854SOL     OW14956   1.743   3.486   2.174  0.4129  0.1097  0.0054
 4854SOL    HW114957   1.748   3.401   2.131 -1.0394 -0.1344  0.2561
 4854SOL    HW214958   1.826   3.495   2.221  0.4646 -1.2982  0.2219
 4855SOL     OW14959   6.925   6.007   3.795  0.0179  0.0702  0.1578
 4855SOL    HW114960   6.889   6.014   3.884  1.5727  0.4079  0.7933
 4855SOL    HW214961   6.850   5.981   3.741 -1.3919  1.6472  1.2354
 4856SOL     OW14962   4.809   4.785   0.389 -0.3388 -0.4065  0.2355
 4856SOL    HW114963   4.840   4.701   0.353  2.3630  0.0179  1.2785
 4856SOL    HW214964   4.796   4.841   0.312  1.5332 -0.6858 -0.3465
 4857SOL     OW14965   0.155   2.999   2.153 -0.0465 -0.0568  0.0278
 4857SOL    HW114966   0.221   3.028   2.216 -1.1043  0.0171  1.1355
 4857SOL    HW214967   0.142   2.906   2.174  0.6667 -0.4262 -1.0826
 4858SOL     OW14968   1.420   1.529   0.926  0.3071  0.0563  0.1489
 4858SOL    HW114969   1.419   1.437   0.949 -1.4507 -0.1901 -0.7179
 4858SOL    HW214970   1.356   1.570   0.985  0.2952  0.5150 -0.1728
 4859SOL     OW14971   0.510   5.538   2.027  0.4297  0.4513  0.7129
 4859SOL    HW114972   0.582   5.592   1.993 -0.5143  1.4720  0.2757
 4859SOL    HW214973   0.545   5.449   2.027  1.8726  0.9955  1.0252
 4860SOL     OW14974   5.760   3.843   1.676  0.1776 -0.2330  0.2119
 4860SOL    HW114975   5.750   3.930   1.637 -0.2270 -0.1454  0.5113
 4860SOL    HW214976   5.747   3.782   1.603  0.5355 -0.0453 -0.0136
 4861SOL     OW14977   1.828   4.628   3.335  0.3379 -0.1332 -0.2189
 4861SOL    HW114978   1.854   4.548   3.290  1.0551  0.7122 -1.3750
 4861SOL    HW214979   1.771   4.673   3.272 -1.5886 -0.5640  1.1312
 4862SOL     OW14980   1.980   3.817   6.250 -0.4908 -0.4089  0.3483
 4862SOL    HW114981   1.968   3.891   6.310 -0.8101  1.5599 -1.9914
 4862SOL    HW214982   1.905   3.822   6.191  0.8016 -1.0337 -1.4082
 4863SOL     OW14983   3.687   5.496   3.830  0.2771  0.4691 -0.2342
 4863SOL    HW114984   3.624   5.466   3.765 -0.3835 -0.2645  0.7174
 4863SOL    HW214985   3.744   5.420   3.844 -1.3362 -0.4306  2.1109
 4864SOL     OW14986   0.553   5.656   3.892  0.3015 -0.2809  0.5603
 4864SOL    HW114987   0.629   5.609   3.925  2.0861  0.9451 -1.5147
 4864SOL    HW214988   0.590   5.732   3.847 -2.2061  0.6313 -0.1247
 4865SOL     OW14989   2.098   4.818   6.474 -0.1220 -0.3589 -0.2910
 4865SOL    HW114990   2.127   4.732   6.506  0.8497 -0.0521 -0.3407
 4865SOL    HW214991   2.003   4.809   6.467 -0.0162 -1.5079 -0.5054
 4866SOL     OW14992   2.759   2.653   2.665 -0.1757  0.3617 -0.1287
 4866SOL    HW114993   2.787   2.562   2.677  0.8055  0.3987 -1.8339
 4866SOL    HW214994   2.840   2.704   2.670 -0.8012  1.2776  1.5689
 4867SOL     OW14995   4.516   1.608   6.512 -0.1694  0.1307  0.2910
 4867SOL    HW114996   4.495   1.520   6.483 -0.2014  0.1594  0.2280
 4867SOL    HW214997   4.596   1.597   6.564 -1.4390 -0.2871  2.2597
 4868SOL     OW14998   4.520   6.158   2.991  0.1527  0.6642  0.0318
 4868SOL    HW114999   4.429   6.129   2.999  0.4457 -0.4325 -0.3954
 4868SOL    HW215000   4.524   6.239   3.041 -0.6912 -0.1060  1.4227
 4869SOL     OW15001   1.336   4.496   6.304 -0.0666  0.1026  0.4073
 4869SOL    HW115002   1.264   4.466   6.248 -0.7603  1.7316  0.3568
 4869SOL    HW215003   1.309   4.584   6.332  1.0559  0.0045  1.9218
 4870SOL     OW15004   5.980   2.666   2.379  0.3290 -0.0486  0.3053
 4870SOL    HW115005   5.929   2.612   2.440  1.2203 -1.5115 -0.1895
 4870SOL    HW215006   5.999   2.607   2.306 -0.2265  1.4995 -1.1444
 4871SOL     OW15007   2.072   5.606   3.276  0.4727  0.4627 -0.0627
 4871SOL    HW115008   2.101   5.686   3.319  0.6661 -0.4938  1.6826
 4871SOL    HW215009   2.108   5.612   3.188  1.9138  1.5277  0.5573
 4872SOL     OW15010   1.693   0.770   6.657 -0.1671 -0.1487 -0.4132
 4872SOL    HW115011   1.685   0.675   6.658  2.8526 -0.5046  0.3571
 4872SOL    HW215012   1.679   0.794   6.566 -2.8537 -1.0450 -0.3097
 4873SOL     OW15013   2.783   1.474   1.808 -0.7186  0.0334  0.7436
 4873SOL    HW115014   2.817   1.399   1.758 -1.4643  1.0445 -1.4158
 4873SOL    HW215015   2.856   1.499   1.865  0.1763 -1.2135  0.2169
 4874SOL     OW15016   5.429   1.975   3.621  0.2599  0.4125 -0.4646
 4874SOL    HW115017   5.507   1.935   3.660  1.0921  2.0087 -0.4045
 4874SOL    HW215018   5.463   2.028   3.549 -0.9905 -0.3705 -1.6815
 4875SOL     OW15019   4.058   4.125   5.790  0.2023  0.0369  0.1477
 4875SOL    HW115020   4.065   4.066   5.865  1.3874  0.0460  0.0644
 4875SOL    HW215021   4.053   4.212   5.829 -0.4524 -0.0419  0.2441
 4876SOL     OW15022   5.893   1.302   4.233  0.0747  0.2774 -0.0292
 4876SOL    HW115023   5.863   1.379   4.185  1.2484  0.3241 -0.7211
 4876SOL    HW215024   5.966   1.333   4.286 -1.1365  0.2011  1.7748
 4877SOL     OW15025   6.832   2.146   6.213 -0.3769  0.0020 -0.1929
 4877SOL    HW115026   6.875   2.151   6.127  0.3237  2.5465  0.2435
 4877SOL    HW215027   6.896   2.105   6.270 -0.3610 -0.5258 -0.5796
 4878SOL     OW15028   2.207   5.078   2.535 -0.2943 -0.0187 -0.5748
 4878SOL    HW115029   2.178   5.024   2.461 -3.8945  0.7817  0.0368
 4878SOL    HW215030   2.154   5.158   2.526  1.9129  1.6855  0.8161
 4879SOL     OW15031   3.103   6.906   1.430  0.2143  0.4378 -0.1026
 4879SOL    HW115032   3.183   6.917   1.380 -0.2000  2.1419 -0.4494
 4879SOL    HW215033   3.116   6.956   1.510  0.1219 -0.6725  0.6400
 4880SOL     OW15034   5.056   1.445   2.267  0.4404  0.4338  0.0007
 4880SOL    HW115035   5.148   1.463   2.284  0.2565  1.7540 -0.2406
 4880SOL    HW215036   5.055   1.363   2.217  1.4474  0.2040  0.3581
 4881SOL     OW15037   1.256   5.451   5.178  0.6700  0.2045  0.3591
 4881SOL    HW115038   1.235   5.469   5.270 -0.8014 -1.2788  0.3608
 4881SOL    HW215039   1.228   5.361   5.164 -0.6737  0.8789 -1.9382
 4882SOL     OW15040   0.601   2.991   1.469  0.3458 -0.7853  0.5800
 4882SOL    HW115041   0.576   2.939   1.545  0.2981 -1.5583  0.0376
 4882SOL    HW215042   0.690   3.021   1.488 -0.6006  1.2964  2.1549
 4883SOL     OW15043   6.369   5.719   2.000  0.1376 -0.0367  0.5267
 4883SOL    HW115044   6.440   5.781   2.020 -0.5322  0.7631  0.4483
 4883SOL    HW215045   6.289   5.771   2.005 -0.2574 -0.2651 -2.1950
 4884SOL     OW15046   6.660   3.477   0.867 -0.5262  0.2920 -0.1955
 4884SOL    HW115047   6.681   3.404   0.808 -0.1016 -1.0439  1.5306
 4884SOL    HW215048   6.635   3.435   0.949 -1.8461  2.0857  0.3735
 4885SOL     OW15049   2.011   1.331   3.616  0.3252  0.2125  0.7066
 4885SOL    HW115050   2.026   1.290   3.530 -1.2162 -1.7697  1.3001
 4885SOL    HW215051   2.028   1.424   3.602  2.3045 -0.3517 -1.1829
 4886SOL     OW15052   6.490   3.561   6.539  0.0953 -0.4260 -0.6009
 4886SOL    HW115053   6.406   3.527   6.568 -0.2789  0.4939 -0.5528
 4886SOL    HW215054   6.471   3.652   6.513  1.2916  0.1702  0.4981
 4887SOL     OW15055   3.445   6.238   3.770  0.1452 -0.6343 -0.3484
 4887SOL    HW115056   3.469   6.233   3.862  1.2095 -1.0307 -0.6255
 4887SOL    HW215057   3.529   6.245   3.724 -0.4119  0.4711 -1.2365
 4888SOL     OW15058   3.935   2.964   5.703 -0.1234  0.3708  0.1928
 4888SOL    HW115059   3.971   2.964   5.791 -1.9239  1.2197  0.9809
 4888SOL    HW215060   4.003   3.006   5.649  0.7817  0.3149  1.2627
 4889SOL     OW15061   5.686   3.162   5.678 -0.3589 -0.0460 -0.1885
 4889SOL    HW115062   5.648   3.106   5.746  1.8582  1.0128  2.1126
 4889SOL    HW215063   5.729   3.102   5.618  1.1571 -0.9688  1.6900
 4890SOL     OW15064   0.484   0.795   3.058 -0.0551 -0.3446 -0.0689
 4890SOL    HW115065   0.493   0.727   3.124 -1.7022 -0.9687 -0.4348
 4890SOL    HW215066   0.497   0.749   2.975  3.4943  0.7008 -0.2258
 4891SOL     OW15067   6.369   4.172   6.336  0.3692  0.7122 -0.2469
 4891SOL    HW115068   6.418   4.198   6.415  3.8691  0.9596 -2.3059
 4891SOL    HW215069   6.348   4.080   6.350 -0.1721  1.0557  1.4499
 4892SOL     OW15070   3.296   4.967   5.735 -0.3273  0.1453  0.4731
 4892SOL    HW115071   3.227   5.016   5.780 -0.5916 -0.1439  0.3936
 4892SOL    HW215072   3.350   5.034   5.693 -1.1589  0.3468 -0.3237
 4893SOL     OW15073   6.778   6.016   6.049 -0.3532  0.8498  0.5110
 4893SOL    HW115074   6.867   5.993   6.023 -1.4690 -0.0711 -3.1831
 4893SOL    HW215075   6.764   6.103   6.012 -2.4597 -1.0571 -3.9043
 4894SOL     OW15076   4.873   4.186   2.115  0.0894 -0.2173 -0.5373
 4894SOL    HW115077   4.825   4.106   2.137  1.4054 -0.4114  1.8869
 4894SOL    HW215078   4.804   4.248   2.090 -0.9846 -1.9231 -2.1299
 4895SOL     OW15079   4.674   5.958   5.501  0.0855  0.0310 -0.7725
 4895SOL    HW115080   4.638   5.870   5.497 -1.4677  0.5330  0.9238
 4895SOL    HW215081   4.762   5.950   5.463  1.0196 -2.8093  1.5924
 4896SOL     OW15082   2.377   2.423   5.897  0.4495  0.7916 -0.2361
 4896SOL    HW115083   2.421   2.485   5.956 -1.1948  0.8127  1.0388
 4896SOL    HW215084   2.322   2.369   5.955  0.6084 -0.8026 -1.5027
 4897SOL     OW15085   6.050   2.200   1.649 -0.1674 -0.4507  0.2369
 4897SOL    HW115086   5.966   2.205   1.694 -1.0469  0.2299 -1.3789
 4897SOL    HW215087   6.084   2.289   1.650 -0.2796 -0.3878 -0.5404
 4898SOL     OW15088   1.022   3.875   3.218  0.2816 -0.1690 -0.4446
 4898SOL    HW115089   1.034   3.911   3.306  2.5454 -0.3007 -0.6306
 4898SOL    HW215090   0.939   3.828   3.222  1.2926 -1.9397  2.2465
 4899SOL     OW15091   4.995   3.130   1.260  0.3671 -0.4956  0.4239
 4899SOL    HW115092   5.033   3.061   1.314 -0.6033 -0.9221  0.5823
 4899SOL    HW215093   5.021   3.108   1.171 -0.4960 -1.4624  0.3965
 4900SOL     OW15094   0.632   1.742   6.663 -0.3682 -0.6332 -0.2446
 4900SOL    HW115095   0.692   1.679   6.623  0.5144  0.6769 -1.0719
 4900SOL    HW215096   0.675   1.766   6.745  0.0313 -0.0443 -0.6169
 4901SOL     OW15097   0.469   2.824   4.567  0.3626  0.4470 -0.0960
 4901SOL    HW115098   0.420   2.869   4.636  1.3844  0.6429  0.5298
 4901SOL    HW215099   0.522   2.760   4.615  1.0176  0.5254 -0.7052
 4902SOL     OW15100   3.870   4.393   2.033 -0.2428  0.1605 -0.2706
 4902SOL    HW115101   3.941   4.397   2.097  0.9497 -0.2069 -1.5208
 4902SOL    HW215102   3.887   4.467   1.974 -1.3189  0.4927 -0.1868
 4903SOL     OW15103   5.411   2.049   4.849 -0.4432  0.2128  0.5415
 4903SOL    HW115104   5.350   2.114   4.815 -3.7453 -2.6759  0.3893
 4903SOL    HW215105   5.497   2.090   4.839 -2.0358  3.4558 -1.9345
 4904SOL     OW15106   4.377   4.694   4.790 -0.1956 -0.3029  0.3222
 4904SOL    HW115107   4.458   4.703   4.741  0.0457  0.1069  0.7934
 4904SOL    HW215108   4.339   4.611   4.759 -0.3403  0.2290 -0.9683
 4905SOL     OW15109   1.761   4.209   4.970 -0.3359 -0.1767  0.0819
 4905SOL    HW115110   1.758   4.271   5.043 -4.1501 -0.4286  0.3247
 4905SOL    HW215111   1.769   4.264   4.893  2.2487  0.1619  0.4845
 4906SOL     OW15112   3.421   5.035   6.068  0.0479  0.2608 -0.1190
 4906SOL    HW115113   3.398   4.956   6.020 -3.3362  0.0870  1.5228
 4906SOL    HW215114   3.459   5.004   6.150 -1.1420  0.2847  0.4610
 4907SOL     OW15115   3.987   5.321   4.721  0.3257 -0.1033  0.2710
 4907SOL    HW115116   4.020   5.405   4.688  1.0017 -0.6311 -0.4409
 4907SOL    HW215117   4.061   5.261   4.713 -0.7747 -1.3342 -1.3874
 4908SOL     OW15118   2.813   5.895   2.729  0.2905  0.6778  0.4361
 4908SOL    HW115119   2.737   5.913   2.673  0.9100  0.5278 -0.4597
 4908SOL    HW215120   2.809   5.801   2.745  0.6371  0.5605 -0.1380
 4909SOL     OW15121   2.814   2.921   6.128  0.1279  0.0592 -0.3651
 4909SOL    HW115122   2.854   2.853   6.073 -1.7360 -1.0561 -0.4338
 4909SOL    HW215123   2.772   2.980   6.066 -0.6717 -0.3448 -0.2254
 4910SOL     OW15124   5.930   1.571   3.708 -0.1540  0.4051 -0.0799
 4910SOL    HW115125   5.846   1.618   3.706  0.4414  1.5086  0.2272
 4910SOL    HW215126   5.966   1.585   3.620 -0.9970 -1.4462 -0.7755
 4911SOL     OW15127   5.462   0.150   2.280 -0.3088  0.3612  0.3883
 4911SOL    HW115128   5.461   0.183   2.370 -0.2258 -1.4681  1.1022
 4911SOL    HW215129   5.518   0.211   2.233 -0.0605  1.1527  1.6602
 4912SOL     OW15130   1.704   0.206   5.656 -0.4631  0.1030 -0.0727
 4912SOL    HW115131   1.765   0.275   5.628  0.0254 -0.5469 -0.6199
 4912SOL    HW215132   1.627   0.219   5.601 -0.2619  0.0365 -0.3691
 4913SOL     OW15133   0.980   1.132   1.796 -0.2831 -0.5569  0.1628
 4913SOL    HW115134   1.037   1.064   1.759  1.8346  1.8398 -1.3712
 4913SOL    HW215135   1.031   1.169   1.868 -1.2495 -0.3325  0.7482
 4914SOL     OW15136   3.734   6.006   4.501  0.0870  0.5286 -0.3475
 4914SOL    HW115137   3.655   6.042   4.461  1.0548  2.0226 -0.9726
 4914SOL    HW215138   3.760   6.071   4.566 -0.6209 -1.1648  1.7682
 4915SOL     OW15139   4.371   3.490   1.111  0.9405 -0.2919  0.1936
 4915SOL    HW115140   4.320   3.559   1.069 -0.8626 -1.5640  0.1786
 4915SOL    HW215141   4.347   3.495   1.203 -2.1859 -3.1375 -0.2717
 4916SOL     OW15142   2.354   6.224   5.490 -0.0511 -0.3201 -0.4178
 4916SOL    HW115143   2.405   6.279   5.430 -2.5407  2.2117 -0.4214
 4916SOL    HW215144   2.334   6.145   5.438 -1.3922  1.3995 -2.7124
 4917SOL     OW15145   1.960   4.083   1.903 -0.1053  0.5070 -0.6469
 4917SOL    HW115146   2.038   4.047   1.944 -0.6500 -1.6770 -1.4026
 4917SOL    HW215147   1.985   4.172   1.878  1.2894  0.7426  1.3615
 4918SOL     OW15148   5.848   1.545   6.122 -0.2510  0.0320 -0.2203
 4918SOL    HW115149   5.933   1.503   6.138  0.3941  1.6274  0.7524
 4918SOL    HW215150   5.787   1.472   6.116  1.3804 -1.2618 -2.4771
 4919SOL     OW15151   4.857   4.880   6.126  0.0789 -0.1315 -0.1850
 4919SOL    HW115152   4.941   4.885   6.172  0.1893 -0.8047 -0.2886
 4919SOL    HW215153   4.846   4.786   6.108 -1.0747 -0.1435  0.5252
 4920SOL     OW15154   2.838   6.878   3.475 -0.1301  0.0014 -0.2018
 4920SOL    HW115155   2.825   6.875   3.570 -1.6219  0.3110 -0.3791
 4920SOL    HW215156   2.921   6.926   3.464  0.5180 -0.8099  0.9526
 4921SOL     OW15157   1.500   5.532   6.620 -0.4966 -0.1376 -0.0455
 4921SOL    HW115158   1.589   5.557   6.648 -0.0343 -0.2605 -1.3234
 4921SOL    HW215159   1.469   5.474   6.689  0.7607 -0.7902  0.0132
 4922SOL     OW15160   3.079   2.666   1.878 -0.2818  0.4072  0.3931
 4922SOL    HW115161   3.141   2.735   1.899  1.6614 -1.2006  0.2759
 4922SOL    HW215162   3.105   2.593   1.934 -1.9917 -0.3960  0.2184
 4923SOL     OW15163   6.135   3.267   2.426 -0.5744 -0.1617 -0.2360
 4923SOL    HW115164   6.053   3.263   2.476 -1.9765  2.3652 -2.0948
 4923SOL    HW215165   6.118   3.212   2.349 -0.2862 -0.1298 -0.3243
 4924SOL     OW15166   0.773   3.894   3.403 -0.3724  0.6874 -0.5336
 4924SOL    HW115167   0.727   3.972   3.371 -0.6412  0.3346 -1.0024
 4924SOL    HW215168   0.787   3.840   3.326  1.9912  1.3513 -0.6488
 4925SOL     OW15169   3.761   0.988   6.620  0.4065 -0.2954 -0.1207
 4925SOL    HW115170   3.777   1.069   6.668  1.2822 -1.4369  1.5955
 4925SOL    HW215171   3.752   1.016   6.529 -1.0575  1.9096  0.6277
 4926SOL     OW15172   2.250   4.958   6.900  0.4636 -0.3767 -0.0210
 4926SOL    HW115173   2.289   4.875   6.874  0.7912 -0.3686  0.4240
 4926SOL    HW215174   2.156   4.942   6.902  0.5811 -1.0930  1.2272
 4927SOL     OW15175   2.818   2.303   5.738  0.0419 -0.3110 -0.2091
 4927SOL    HW115176   2.880   2.299   5.811  1.5472 -0.4864 -1.4392
 4927SOL    HW215177   2.825   2.394   5.707 -2.0934  0.3517  1.0644
 4928SOL     OW15178   3.458   3.417   4.321 -0.6116  0.3910  0.0169
 4928SOL    HW115179   3.421   3.358   4.256 -0.1600  0.2877 -0.1450
 4928SOL    HW215180   3.381   3.453   4.367 -0.8611 -0.7857  0.5408
 4929SOL     OW15181   4.801   4.565   6.764 -0.4946 -0.0605  0.2282
 4929SOL    HW115182   4.818   4.529   6.677 -2.1540  0.8637 -0.5154
 4929SOL    HW215183   4.713   4.603   6.759 -1.0227 -0.7564  2.5655
 4930SOL     OW15184   1.876   2.050   3.218 -0.1906  0.1619 -0.7420
 4930SOL    HW115185   1.799   1.998   3.194  0.0965  0.1123 -1.5916
 4930SOL    HW215186   1.920   2.066   3.135  0.6827  0.2517 -0.2692
 4931SOL     OW15187   2.620   0.941   2.396  0.2337 -0.0396  0.1068
 4931SOL    HW115188   2.614   1.035   2.412 -1.0320 -0.2590  1.0986
 4931SOL    HW215189   2.696   0.913   2.445  1.0687  0.5687 -0.7999
 4932SOL     OW15190   6.772   6.376   3.724 -0.2180  0.0123 -0.0280
 4932SOL    HW115191   6.854   6.358   3.679 -0.9123 -0.6610 -1.0623
 4932SOL    HW215192   6.744   6.292   3.760 -0.0094  0.4147  1.1323
 4933SOL     OW15193   2.947   3.242   0.124 -0.0495 -0.1644  0.0763
 4933SOL    HW115194   2.989   3.323   0.154  1.2053 -0.8193  0.1507
 4933SOL    HW215195   2.869   3.272   0.077 -1.8237  0.9428  3.4123
 4934SOL     OW15196   0.517   5.374   6.486  0.2262 -0.1805  0.3218
 4934SOL    HW115197   0.541   5.407   6.573  2.6965  0.6782 -0.6051
 4934SOL    HW215198   0.430   5.411   6.470  0.8061  1.8244  1.4037
 4935SOL     OW15199   5.423   5.857   1.148  0.2725  0.6586 -0.3538
 4935SOL    HW115200   5.453   5.892   1.231 -2.1444 -0.4676  1.1065
 4935SOL    HW215201   5.393   5.934   1.099 -0.7100  1.1336  0.9251
 4936SOL     OW15202   6.712   0.777   1.247  0.1145 -0.2999  0.6335
 4936SOL    HW115203   6.744   0.813   1.330 -0.3799 -1.0907  1.1851
 4936SOL    HW215204   6.661   0.849   1.209  0.5196  0.1430  0.9099
 4937SOL     OW15205   3.132   0.111   3.403 -0.0332 -0.8578  0.5348
 4937SOL    HW115206   3.195   0.062   3.351 -0.2880  0.1364 -0.7668
 4937SOL    HW215207   3.166   0.200   3.404  0.0608 -0.8712  2.2748
 4938SOL     OW15208   5.993   1.555   1.861  0.4004  0.6794  0.4787
 4938SOL    HW115209   6.025   1.488   1.921  0.2385  0.9934  0.9215
 4938SOL    HW215210   6.060   1.560   1.793  0.7901  0.6130  0.8533
 4939SOL     OW15211   3.042   5.874   1.361 -0.2283 -0.4004  0.6238
 4939SOL    HW115212   3.120   5.896   1.412  0.2922 -1.0988  0.1485
 4939SOL    HW215213   3.025   5.782   1.383 -0.1123 -0.6485 -0.2981
 4940SOL     OW15214   0.021   4.768   2.446  0.0884 -0.4225 -0.3930
 4940SOL    HW115215  -0.024   4.710   2.507  0.9574 -0.4463  0.2604
 4940SOL    HW215216   0.011   4.727   2.360 -0.9520 -0.5182 -0.2386
 4941SOL     OW15217   3.507   1.723   5.238 -0.3948 -0.2722  0.0891
 4941SOL    HW115218   3.590   1.694   5.199  0.7449  3.8558 -1.0811
 4941SOL    HW215219   3.521   1.713   5.333  2.2329  1.7872  0.0444
 4942SOL     OW15220   3.185   2.711   0.994 -0.2646  0.3780  0.1037
 4942SOL    HW115221   3.277   2.707   1.020 -0.3706 -0.0610  0.4286
 4942SOL    HW215222   3.177   2.649   0.922 -0.6732 -0.9365  1.2506
 4943SOL     OW15223   6.913   2.750   0.050 -0.1467 -0.1452  0.0339
 4943SOL    HW115224   6.994   2.746   0.101 -1.2921 -1.2203  1.8870
 4943SOL    HW215225   6.904   2.662   0.012  0.7107  0.6490 -2.1663
 4944SOL     OW15226   6.089   3.064   5.012  0.6315 -0.1666  0.8900
 4944SOL    HW115227   6.128   2.998   5.069  1.6315  0.6294  1.1495
 4944SOL    HW215228   6.159   3.089   4.952 -0.2711 -0.6458 -0.4003
 4945SOL     OW15229   1.394   2.368   1.334  0.2203  0.9286  0.5011
 4945SOL    HW115230   1.486   2.348   1.314  0.9405  1.9689  2.5106
 4945SOL    HW215231   1.394   2.461   1.357 -1.7080  1.4331 -1.2364
 4946SOL     OW15232   6.103   5.726   1.529 -0.0381 -0.2869 -0.8819
 4946SOL    HW115233   6.161   5.740   1.604 -2.4323  2.6940  0.6141
 4946SOL    HW215234   6.142   5.777   1.458 -0.1005  0.6187 -0.2795
 4947SOL     OW15235   0.179   4.414   5.509 -0.3748  0.2867  0.1720
 4947SOL    HW115236   0.188   4.319   5.517  0.1712  0.2046 -1.2496
 4947SOL    HW215237   0.198   4.447   5.597  0.7178 -0.8362  0.3744
 4948SOL     OW15238   6.695   4.404   4.175 -0.1403 -0.0946 -0.2871
 4948SOL    HW115239   6.783   4.371   4.158  0.0047 -0.8526  1.7295
 4948SOL    HW215240   6.708   4.493   4.208 -0.0479 -0.5942  1.0393
 4949SOL     OW15241   4.151   5.855   4.610 -0.2660 -0.3437 -0.0703
 4949SOL    HW115242   4.161   5.871   4.517  0.5639 -0.9256 -0.0916
 4949SOL    HW215243   4.241   5.850   4.644 -0.5342  0.8783  0.9511
 4950SOL     OW15244   5.046   6.537   6.879 -0.3464  0.2579 -0.5796
 4950SOL    HW115245   5.090   6.484   6.945  1.0857  0.8263 -1.0483
 4950SOL    HW215246   5.017   6.474   6.814  3.4405  0.0769 -2.3704
 4951SOL     OW15247   2.075   0.572   6.002 -0.4389  0.1525  0.1722
 4951SOL    HW115248   2.041   0.484   6.016 -0.5485  0.4604  2.0067
 4951SOL    HW215249   2.049   0.621   6.079 -1.7742  2.2813 -1.5124
 4952SOL     OW15250   6.406   1.201   3.507 -0.0006 -0.4008  0.8402
 4952SOL    HW115251   6.443   1.115   3.525  0.9226 -0.1575  0.1837
 4952SOL    HW215252   6.313   1.185   3.490 -0.0705 -1.1168  1.8147
 4953SOL     OW15253   5.188   6.049   0.191 -0.2586  0.3472 -0.1311
 4953SOL    HW115254   5.136   6.115   0.237 -1.8685 -0.6971 -0.3442
 4953SOL    HW215255   5.259   6.027   0.251  0.5502  2.5140 -0.2188
 4954SOL     OW15256   0.376   0.527   4.045 -0.3929  0.1997  0.3617
 4954SOL    HW115257   0.417   0.441   4.051  0.0544  0.3590 -0.3139
 4954SOL    HW215258   0.448   0.589   4.053 -0.6244  0.4988  0.1789
 4955SOL     OW15259   6.906   1.841   4.948  0.5653  0.3857  0.4200
 4955SOL    HW115260   6.825   1.823   4.901  0.4484  1.7776  0.0568
 4955SOL    HW215261   6.902   1.934   4.969  0.7969 -0.0644  2.8389
 4956SOL     OW15262   6.012   5.703   6.562 -0.2053 -0.2732 -0.3525
 4956SOL    HW115263   6.063   5.780   6.538 -0.2874 -0.3909 -0.9101
 4956SOL    HW215264   6.057   5.630   6.520  0.4974 -0.6923  1.0413
 4957SOL     OW15265   2.359   0.472   4.943 -0.3829 -0.3101  0.2600
 4957SOL    HW115266   2.405   0.551   4.970  0.0458 -0.2149 -0.6921
 4957SOL    HW215267   2.267   0.492   4.956 -0.2056 -0.3549  1.8162
 4958SOL     OW15268   5.986   2.362   4.532 -0.6482  0.7735 -0.2404
 4958SOL    HW115269   5.935   2.422   4.587 -0.4336  0.3000  0.4801
 4958SOL    HW215270   6.070   2.407   4.520 -0.6007  0.7582  0.0345
 4959SOL     OW15271   4.176   5.724   6.168  0.5033  0.0064 -0.0502
 4959SOL    HW115272   4.173   5.817   6.190  1.3270  0.6346 -2.3793
 4959SOL    HW215273   4.239   5.717   6.097 -0.6752 -2.1231 -1.0007
 4960SOL     OW15274   3.074   3.851   6.429 -0.2322 -0.4256  0.3584
 4960SOL    HW115275   3.151   3.879   6.478 -0.7255  1.0137  0.3461
 4960SOL    HW215276   3.062   3.760   6.455  0.3227 -0.1021  1.8737
 4961SOL     OW15277   3.123   5.510   1.025  0.5301 -0.2603  0.0200
 4961SOL    HW115278   3.153   5.597   1.052  0.2849  0.5635 -2.1663
 4961SOL    HW215279   3.031   5.522   1.004  0.5235 -1.0236 -0.4300
 4962SOL     OW15280   0.378   1.535   0.787 -0.0694 -0.0716  0.5002
 4962SOL    HW115281   0.462   1.540   0.832  1.4265 -0.2661 -2.0596
 4962SOL    HW215282   0.391   1.468   0.719 -2.8312 -1.2396  0.9857
 4963SOL     OW15283   2.187   1.433   0.649 -0.0939  0.1020 -0.1093
 4963SOL    HW115284   2.224   1.521   0.659  1.3655 -0.7717  3.9060
 4963SOL    HW215285   2.257   1.382   0.608 -0.9097  0.6548 -2.3570
 4964SOL     OW15286   0.605   4.553   2.863  0.4154 -0.1716  0.4009
 4964SOL    HW115287   0.698   4.537   2.855  0.4168 -0.1847  0.4407
 4964SOL    HW215288   0.599   4.633   2.916  0.4335  0.6172 -0.7715
 4965SOL     OW15289   6.301   6.133   1.877  0.0799 -0.1115 -0.0980
 4965SOL    HW115290   6.248   6.199   1.832 -0.2541 -0.6430 -0.4881
 4965SOL    HW215291   6.362   6.184   1.930 -1.8153  0.5386  1.5872
 4966SOL     OW15292   2.296   4.797   1.619  0.1974 -0.0693 -0.4396
 4966SOL    HW115293   2.386   4.826   1.612  0.2261  0.5818  1.7396
 4966SOL    HW215294   2.277   4.802   1.713 -2.2156  0.1611 -0.8773
 4967SOL     OW15295   1.340   4.541   3.794 -0.0175  0.3723 -0.0979
 4967SOL    HW115296   1.245   4.544   3.797 -0.0693 -0.4333 -0.5987
 4967SOL    HW215297   1.367   4.540   3.886 -0.4613  1.1822  0.0469
 4968SOL     OW15298   5.905   0.075   0.065 -0.3325  0.2566  0.2904
 4968SOL    HW115299   5.873   0.133   0.134 -0.3019  1.5533 -0.7523
 4968SOL    HW215300   5.938   0.134  -0.003  0.8652 -1.0039 -0.2647
 4969SOL     OW15301   1.647   0.829   6.395  0.6851  0.4913  0.8673
 4969SOL    HW115302   1.735   0.867   6.392  0.3968  1.1545  0.7074
 4969SOL    HW215303   1.604   0.861   6.316 -0.0159  0.9712  1.4257
 4970SOL     OW15304   1.279   4.022   0.565  0.7055  0.4225 -0.4069
 4970SOL    HW115305   1.205   3.992   0.618  1.7945  1.8533  2.1252
 4970SOL    HW215306   1.336   3.946   0.558  0.8609  0.3609  1.1583
 4971SOL     OW15307   3.601   2.429   1.861  0.2598  0.2801 -0.4074
 4971SOL    HW115308   3.617   2.523   1.871 -1.5958  0.5150  0.7168
 4971SOL    HW215309   3.627   2.391   1.945  0.6430 -0.1718 -0.7223
 4972SOL     OW15310   4.007   2.773   6.630  0.3603  0.2761 -0.2529
 4972SOL    HW115311   4.072   2.763   6.701  1.0585 -0.2480 -0.9461
 4972SOL    HW215312   4.054   2.746   6.551 -0.6870 -0.0165 -0.7882
 4973SOL     OW15313   0.209   1.552   2.072 -0.0710  0.1869 -0.1964
 4973SOL    HW115314   0.118   1.538   2.100  0.5161 -1.8303  0.9117
 4973SOL    HW215315   0.206   1.541   1.977 -0.8878 -0.6992 -0.0874
 4974SOL     OW15316   5.530   5.599   1.110  0.2272 -0.4571  0.1258
 4974SOL    HW115317   5.524   5.563   1.198 -0.1387 -1.6566 -0.3747
 4974SOL    HW215318   5.513   5.693   1.121  0.8495 -0.4824  1.4040
 4975SOL     OW15319   0.651   4.089   4.558  0.3074  0.5739 -0.2090
 4975SOL    HW115320   0.711   4.163   4.556  2.1325 -0.8494 -0.4683
 4975SOL    HW215321   0.602   4.095   4.476  0.5383  1.4004 -0.2905
 4976SOL     OW15322   0.455   1.962   6.635  0.0771 -0.0425  0.0707
 4976SOL    HW115323   0.364   1.946   6.610  0.3301 -0.4903 -0.5777
 4976SOL    HW215324   0.479   1.885   6.687 -0.7642  1.3222  2.7039
 4977SOL     OW15325   4.406   5.384   3.447  0.0257  0.3382  0.0930
 4977SOL    HW115326   4.336   5.351   3.391 -0.2611  1.3435 -0.1566
 4977SOL    HW215327   4.451   5.305   3.477 -0.0043 -0.2506 -1.3025
 4978SOL     OW15328   1.865   4.928   0.585  0.5646 -0.1400 -0.0940
 4978SOL    HW115329   1.858   4.978   0.503 -0.5512 -1.5955 -0.9313
 4978SOL    HW215330   1.789   4.869   0.584  1.0073 -0.7968  1.5886
 4979SOL     OW15331   1.142   2.246   1.646  0.0680 -0.7553 -0.6067
 4979SOL    HW115332   1.215   2.272   1.702  2.2510 -1.2759 -3.0143
 4979SOL    HW215333   1.125   2.323   1.591 -2.0398 -0.2474  0.6254
 4980SOL     OW15334   1.387   1.283   1.453  0.0206 -0.1042 -0.3130
 4980SOL    HW115335   1.418   1.340   1.524 -0.0717  0.4791 -0.7305
 4980SOL    HW215336   1.456   1.217   1.443  1.3618  1.4075 -1.5092
 4981SOL     OW15337   4.322   1.620   2.210  0.0092 -0.0846 -0.2186
 4981SOL    HW115338   4.408   1.652   2.236 -0.4647  1.1736 -0.1360
 4981SOL    HW215339   4.311   1.538   2.258  0.9397  0.0150  0.1778
 4982SOL     OW15340   3.014   3.277   1.735  0.3033 -0.2733  0.0085
 4982SOL    HW115341   2.943   3.218   1.760  1.1669 -1.2376  0.2694
 4982SOL    HW215342   2.992   3.304   1.646 -0.4220 -0.4990  0.1104
 4983SOL     OW15343   6.526   0.113   3.314 -0.5207 -0.4271  0.1581
 4983SOL    HW115344   6.525   0.199   3.356  1.6171 -0.8934  1.3093
 4983SOL    HW215345   6.435   0.099   3.287 -1.2578  1.4826  1.3973
 4984SOL     OW15346   6.393   3.408   1.807 -0.0640 -0.2913 -0.0421
 4984SOL    HW115347   6.482   3.411   1.842  0.5376  0.2808 -1.5392
 4984SOL    HW215348   6.340   3.374   1.879  0.9628  1.5563  1.6889
 4985SOL     OW15349   0.501   1.942   6.283  0.2154  0.5821 -0.3429
 4985SOL    HW115350   0.568   1.878   6.304 -0.5444 -0.7321 -1.7179
 4985SOL    HW215351   0.424   1.913   6.331 -0.1679  0.3759 -1.0702
 4986SOL     OW15352   4.058   2.138   5.016  0.5877 -1.0189 -0.3612
 4986SOL    HW115353   4.081   2.184   5.097 -0.4916 -0.8080 -0.1655
 4986SOL    HW215354   3.971   2.170   4.993  1.0634 -0.7251 -1.8712
 4987SOL     OW15355   5.589   3.090   1.403 -0.4267 -0.2744 -0.2824
 4987SOL    HW115356   5.654   3.149   1.363  0.4782 -1.0035  0.0843
 4987SOL    HW215357   5.530   3.149   1.451 -0.2807  0.4286 -0.9366
 4988SOL     OW15358   3.722   1.860   0.909  0.0210  0.2397 -0.0309
 4988SOL    HW115359   3.700   1.948   0.877  0.0367  0.8795  1.6127
 4988SOL    HW215360   3.807   1.871   0.953  0.0495 -0.6126  0.1406
 4989SOL     OW15361   2.238   4.739   4.828 -0.2137  0.1733  0.1641
 4989SOL    HW115362   2.209   4.665   4.775  0.5500 -0.2031  0.2526
 4989SOL    HW215363   2.332   4.745   4.811 -0.3156  1.3281 -0.0893
 4990SOL     OW15364   1.445   5.945   4.650 -0.3664  0.4899  0.1884
 4990SOL    HW115365   1.484   5.928   4.736  1.9870  0.9464 -0.7064
 4990SOL    HW215366   1.376   6.008   4.667  1.4267  2.2268  1.5682
 4991SOL     OW15367   1.879   4.492   1.182 -0.0805  0.2908 -0.3483
 4991SOL    HW115368   1.945   4.472   1.116 -0.6597  2.4900 -1.7110
 4991SOL    HW215369   1.904   4.577   1.216 -0.8952  0.0752  0.8541
 4992SOL     OW15370   3.969   2.661   5.982 -0.1960 -0.3459  0.0362
 4992SOL    HW115371   4.018   2.744   5.975  0.6267 -0.8431 -0.3518
 4992SOL    HW215372   3.913   2.661   5.904 -1.4590  0.6110  0.9125
 4993SOL     OW15373   6.377   5.440   3.281 -0.0882 -0.2338  0.3238
 4993SOL    HW115374   6.446   5.458   3.345  0.9947  0.6039 -1.0099
 4993SOL    HW215375   6.423   5.435   3.197 -1.4764 -1.1562 -0.4212
 4994SOL     OW15376   0.733   6.355   5.462 -0.2533 -0.4505 -0.6540
 4994SOL    HW115377   0.713   6.295   5.390 -0.0937 -1.3805  0.0672
 4994SOL    HW215378   0.672   6.428   5.449  0.3572 -0.1798 -2.2287
 4995SOL     OW15379   3.494   1.254   3.176 -0.0025 -0.0327 -0.1227
 4995SOL    HW115380   3.549   1.190   3.221  1.4671  1.4979  0.3443
 4995SOL    HW215381   3.412   1.207   3.159 -0.0818 -1.1450  2.7872
 4996SOL     OW15382   4.272   3.078   3.379 -0.4477 -0.0575  0.0418
 4996SOL    HW115383   4.293   3.010   3.443 -2.0561  0.2835  1.0177
 4996SOL    HW215384   4.200   3.041   3.328  1.2360 -0.5800 -2.0911
 4997SOL     OW15385   3.127   0.722   5.351  0.5047 -0.0667  0.4644
 4997SOL    HW115386   3.181   0.716   5.272 -0.5070 -0.1555 -0.2481
 4997SOL    HW215387   3.097   0.813   5.352  0.9683  0.0796  1.0615
 4998SOL     OW15388   4.153   1.603   3.141 -0.0025  0.5155  0.1814
 4998SOL    HW115389   4.191   1.677   3.189 -0.9575  0.9593  0.2844
 4998SOL    HW215390   4.144   1.534   3.206 -1.5498  1.2057  0.7571
 4999SOL     OW15391   1.512   1.910   0.115 -0.4298  0.7314  0.1193
 4999SOL    HW115392   1.472   1.823   0.111  1.9090 -0.3831 -1.1567
 4999SOL    HW215393   1.474   1.957   0.041 -1.2679  0.6137  0.4635
 5000SOL     OW15394   2.454   0.156   5.056  0.2636  0.8119 -0.2334
 5000SOL    HW115395   2.441   0.239   5.103  0.7834  1.5806 -1.4003
 5000SOL    HW215396   2.406   0.167   4.974  0.1546 -0.1328 -0.2989
 5001SOL     OW15397   2.607   4.794   3.684 -0.0962  0.3394 -0.2204
 5001SOL    HW115398   2.539   4.843   3.638 -2.2760 -1.2779  1.1115
 5001SOL    HW215399   2.602   4.825   3.775 -2.0113 -2.6578  0.8261
 5002SOL     OW15400   5.245   1.489   2.810 -0.1077 -0.4956 -0.4881
 5002SOL    HW115401   5.266   1.402   2.779 -0.9511  0.0167 -2.6495
 5002SOL    HW215402   5.152   1.501   2.789 -0.3021  0.5282  0.7854
 5003SOL     OW15403   1.477   5.837   2.326  0.2966  0.1610 -0.2679
 5003SOL    HW115404   1.394   5.885   2.322 -0.9736 -1.9792 -1.1834
 5003SOL    HW215405   1.453   5.750   2.357  2.0320 -0.8067 -1.4943
 5004SOL     OW15406   3.037   4.502   3.122  0.1292  0.0043  0.3505
 5004SOL    HW115407   3.016   4.551   3.201 -0.6399 -1.5946  1.1970
 5004SOL    HW215408   2.953   4.466   3.092  0.5476 -0.1761 -0.6562
 5005SOL     OW15409   2.265   2.998   2.725 -0.1063  0.0177  0.0162
 5005SOL    HW115410   2.174   2.983   2.700 -0.5044  2.0425  0.0831
 5005SOL    HW215411   2.290   3.078   2.680  1.2246  0.2173  1.0366
 5006SOL     OW15412   6.488   5.066   1.624  0.1432 -0.4243 -0.2328
 5006SOL    HW115413   6.395   5.071   1.644 -0.0711 -1.0277 -1.0482
 5006SOL    HW215414   6.492   5.041   1.532  1.1051  0.9412 -0.5946
 5007SOL     OW15415   1.756   1.727   6.514 -0.4442 -0.0704 -0.2755
 5007SOL    HW115416   1.721   1.801   6.562  2.7880  0.0322  2.2064
 5007SOL    HW215417   1.691   1.657   6.526  0.0241  0.0151  4.2777
 5008SOL     OW15418   3.805   6.405   1.309  0.1266  0.2253  0.0901
 5008SOL    HW115419   3.882   6.443   1.267 -0.1969  0.2465 -0.4950
 5008SOL    HW215420   3.758   6.479   1.345 -0.0398  0.2970 -0.2683
 5009SOL     OW15421   1.657   6.414   4.528  0.5506  0.3620 -0.1101
 5009SOL    HW115422   1.713   6.484   4.561  0.0696  2.1250 -2.6658
 5009SOL    HW215423   1.574   6.456   4.509 -0.0106 -1.0590 -1.0345
 5010SOL     OW15424   4.928   1.222   2.046  0.1527 -0.0323  0.4373
 5010SOL    HW115425   4.907   1.312   2.022 -1.7190 -0.4396  0.4118
 5010SOL    HW215426   4.942   1.178   1.962 -0.4215 -0.0944  0.3701
 5011SOL     OW15427   2.309   3.283   2.574  0.2803  0.2305  0.1340
 5011SOL    HW115428   2.355   3.222   2.517 -0.3034  0.1394 -0.2446
 5011SOL    HW215429   2.357   3.365   2.566  1.4693 -0.3314  1.1447
 5012SOL     OW15430   1.576   0.630   4.497 -0.3093 -0.0564  0.1169
 5012SOL    HW115431   1.629   0.605   4.421 -0.5135  0.2427 -0.1231
 5012SOL    HW215432   1.583   0.726   4.501  2.2128 -0.1945  2.2666
 5013SOL     OW15433   6.099   3.721   0.075  1.0641  0.0131  0.1094
 5013SOL    HW115434   6.013   3.749   0.041  1.9646  0.5233 -1.8812
 5013SOL    HW215435   6.084   3.631   0.105 -0.5356  0.6376  1.3881
 5014SOL     OW15436   3.503   4.526   6.629  0.0100  0.1720 -0.3891
 5014SOL    HW115437   3.504   4.549   6.536 -1.1891 -0.5760 -0.6197
 5014SOL    HW215438   3.446   4.449   6.634  0.2361  0.0595  0.9364
 5015SOL     OW15439   1.770   1.316   3.397 -0.1348 -0.2424  0.3153
 5015SOL    HW115440   1.727   1.276   3.322  0.4166 -0.5429  0.1527
 5015SOL    HW215441   1.850   1.265   3.409  0.4673  0.6512  0.2474
 5016SOL     OW15442   6.053   0.165   2.035  0.4956  0.2697 -0.4473
 5016SOL    HW115443   5.980   0.103   2.043  0.2497  0.5249 -0.6798
 5016SOL    HW215444   6.011   0.251   2.035  0.9456  0.5170  1.2927
 5017SOL     OW15445   2.207   6.360   2.463 -0.4769 -0.4925  0.2157
 5017SOL    HW115446   2.240   6.443   2.430  0.3185 -0.4167  1.1574
 5017SOL    HW215447   2.202   6.372   2.558  2.3621 -2.4023  0.7232
 5018SOL     OW15448   0.292   4.052   6.610 -0.0605  0.4824 -0.1052
 5018SOL    HW115449   0.328   4.008   6.687  0.3866  1.5370  0.3021
 5018SOL    HW215450   0.208   4.009   6.595  0.3408 -0.4896  0.2868
 5019SOL     OW15451   3.997   5.498   2.438 -0.2333 -0.8695  0.1861
 5019SOL    HW115452   3.968   5.422   2.488 -1.3307  0.2986  1.4078
 5019SOL    HW215453   4.039   5.555   2.503 -0.5199  0.1087 -0.4603
 5020SOL     OW15454   4.473   4.372   5.229 -0.6580  0.2341  0.5642
 5020SOL    HW115455   4.402   4.417   5.275 -2.5928 -0.7826 -1.2446
 5020SOL    HW215456   4.520   4.441   5.183 -1.2499  0.7922  0.7793
 5021SOL     OW15457   5.778   3.114   2.060  0.9457  0.1814 -0.1963
 5021SOL    HW115458   5.713   3.184   2.064  1.2057  0.4535 -0.6299
 5021SOL    HW215459   5.728   3.035   2.042  0.4984  0.0292  1.5497
 5022SOL     OW15460   4.842   3.230   2.121 -0.1225  0.4200  0.1815
 5022SOL    HW115461   4.905   3.262   2.185  0.5750 -0.3993 -0.0801
 5022SOL    HW215462   4.804   3.309   2.083  0.7629  0.9289  0.3290
 5023SOL     OW15463   0.288   3.167   1.339  0.2824 -0.4261  0.4727
 5023SOL    HW115464   0.209   3.141   1.387  0.0238  0.4977  0.5685
 5023SOL    HW215465   0.352   3.184   1.408  0.0118  0.5701  0.5063
 5024SOL     OW15466   1.533   1.313   4.233 -0.3725  0.1171  0.0132
 5024SOL    HW115467   1.488   1.367   4.298  2.0232  0.6057  1.3897
 5024SOL    HW215468   1.585   1.375   4.182  0.0933 -0.5793 -0.3784
 5025SOL     OW15469   3.142   6.418   0.877 -0.3209 -0.4116 -0.5342
 5025SOL    HW115470   3.165   6.390   0.966 -1.6631  0.1923  0.0162
 5025SOL    HW215471   3.173   6.508   0.872 -0.0426 -0.5178 -0.7704
 5026SOL     OW15472   2.401   0.221   1.014  0.0500  0.1155  0.1913
 5026SOL    HW115473   2.445   0.302   1.039  1.0462 -0.5222  0.5582
 5026SOL    HW215474   2.396   0.169   1.094 -2.0572  0.4381  0.3385
 5027SOL     OW15475   2.805   3.481   5.210 -0.1360  0.4409 -0.4275
 5027SOL    HW115476   2.869   3.476   5.139  1.2819  2.9033  0.5601
 5027SOL    HW215477   2.829   3.408   5.268  0.4520  0.1034 -1.0722
 5028SOL     OW15478   2.055   6.771   0.782 -0.5397  0.3220  0.2435
 5028SOL    HW115479   2.078   6.856   0.746  0.8183  0.6745  1.7873
 5028SOL    HW215480   1.961   6.775   0.797 -0.7482  0.9602 -1.1025
 5029SOL     OW15481   2.705   6.405   0.400 -0.4896 -0.3269  0.3853
 5029SOL    HW115482   2.779   6.455   0.435  1.0892 -2.4115  0.1932
 5029SOL    HW215483   2.722   6.315   0.427 -2.6648 -0.9808 -0.2156
 5030SOL     OW15484   6.012   4.584   2.915  0.2558 -0.2526  0.7381
 5030SOL    HW115485   6.044   4.655   2.970  1.7736  0.7041 -1.2659
 5030SOL    HW215486   5.956   4.532   2.973 -0.3363  2.1417  2.4645
 5031SOL     OW15487   4.595   1.108   3.654 -0.1543 -0.0963  0.0461
 5031SOL    HW115488   4.615   1.194   3.692 -0.5340 -0.1150  0.2903
 5031SOL    HW215489   4.681   1.069   3.638  0.0311  0.4281 -0.2993
 5032SOL     OW15490   0.895   5.233   3.683  0.6091 -0.3109  0.7882
 5032SOL    HW115491   0.864   5.147   3.653  1.7268 -0.5466  0.2792
 5032SOL    HW215492   0.891   5.227   3.779 -0.6429 -0.4239  0.7466
 5033SOL     OW15493   2.719   6.197   0.819 -0.2953 -0.1128  0.1667
 5033SOL    HW115494   2.774   6.130   0.860  0.0175 -0.4708 -0.7939
 5033SOL    HW215495   2.638   6.197   0.870 -1.7522 -3.7016 -1.7331
 5034SOL     OW15496   5.628   1.253   0.176  0.0045  0.0964  0.0079
 5034SOL    HW115497   5.626   1.220   0.086  0.7736 -0.8030  0.3069
 5034SOL    HW215498   5.720   1.249   0.202  0.2207  2.8444 -0.0342
 5035SOL     OW15499   1.901   3.805   2.607 -0.0210  0.2192  0.2540
 5035SOL    HW115500   1.989   3.826   2.639  0.1295 -1.7935  1.2848
 5035SOL    HW215501   1.842   3.853   2.666  0.3407 -1.0378  1.6959
 5036SOL     OW15502   2.329   2.413   1.755 -0.0408  0.0726 -0.5125
 5036SOL    HW115503   2.304   2.376   1.671 -0.8784  0.4362 -0.4288
 5036SOL    HW215504   2.310   2.344   1.819  1.8358 -0.7233 -0.7230
 5037SOL     OW15505   1.519   0.250   5.471 -0.3025 -0.7864  0.0363
 5037SOL    HW115506   1.581   0.244   5.398  0.6948 -1.1122  0.8925
 5037SOL    HW215507   1.459   0.177   5.457 -1.6025  0.5497 -1.7731
 5038SOL     OW15508   5.663   0.261   4.787  0.2948  0.5409 -0.2298
 5038SOL    HW115509   5.574   0.247   4.821  0.9187 -1.3732  0.7758
 5038SOL    HW215510   5.653   0.252   4.692 -0.5477  0.0026 -0.1100
 5039SOL     OW15511   6.857   4.836   0.262 -0.0136  0.1488 -0.1167
 5039SOL    HW115512   6.908   4.758   0.242  0.8645  0.7671 -0.3498
 5039SOL    HW215513   6.831   4.870   0.176  0.9873  0.9987 -0.1030
 5040SOL     OW15514   5.752   0.856   1.448 -0.1550 -0.0416 -0.0595
 5040SOL    HW115515   5.737   0.781   1.391 -0.6358  0.9423 -1.2554
 5040SOL    HW215516   5.846   0.855   1.464 -0.3488 -1.9272  1.4489
 5041SOL     OW15517   5.107   2.980   0.580 -0.0914  0.1529 -0.0603
 5041SOL    HW115518   5.070   3.013   0.662  2.7809  0.9211  1.0339
 5041SOL    HW215519   5.117   2.886   0.596 -0.7371  0.0751 -0.0627
 5042SOL     OW15520   0.854   3.523   4.822 -0.2991  0.0071  0.2136
 5042SOL    HW115521   0.892   3.437   4.804  1.7278  0.9179 -0.1845
 5042SOL    HW215522   0.861   3.533   4.917  0.1925  0.0248  0.1802
 5043SOL     OW15523   5.766   3.087   1.040  0.0635 -0.6993  0.5095
 5043SOL    HW115524   5.719   3.023   0.987  0.2491  0.6861 -1.4084
 5043SOL    HW215525   5.698   3.145   1.074  0.1047 -0.4887  0.2367
 5044SOL     OW15526   3.692   0.047   0.782 -0.0016 -0.1806  0.4315
 5044SOL    HW115527   3.769   0.086   0.740 -0.0522 -1.8676 -1.3505
 5044SOL    HW215528   3.639   0.122   0.808  1.7106  1.0019  0.7046
 5045SOL     OW15529   5.530   0.904   0.322 -0.2449  0.0706  0.2922
 5045SOL    HW115530   5.555   0.942   0.238  0.6579 -0.2730  0.3908
 5045SOL    HW215531   5.599   0.839   0.340 -0.3125  0.2851  1.3879
 5046SOL     OW15532   1.071   0.760   4.574 -0.1357  0.3812  0.3836
 5046SOL    HW115533   1.167   0.771   4.571 -0.1136 -0.0094 -0.6920
 5046SOL    HW215534   1.055   0.713   4.656  0.9604 -2.8592 -1.1150
 5047SOL     OW15535   2.608   1.888   0.586 -0.0238 -0.2980  0.4659
 5047SOL    HW115536   2.551   1.964   0.594  2.8956  2.1407 -0.2397
 5047SOL    HW215537   2.678   1.903   0.649  1.0225 -2.0659 -0.1877
 5048SOL     OW15538   1.969   0.276   3.281 -0.1775 -0.2303 -0.6689
 5048SOL    HW115539   2.013   0.300   3.363 -0.7976  3.3506 -1.2091
 5048SOL    HW215540   2.026   0.211   3.240  0.8097 -1.1274  1.9313
 5049SOL     OW15541   3.603   0.122   1.061  0.2662  1.0584  0.0282
 5049SOL    HW115542   3.558   0.204   1.083  0.8383  0.7800  2.5977
 5049SOL    HW215543   3.693   0.136   1.089  0.7794  0.1092 -1.0788
 5050SOL     OW15544   4.552   1.969   3.723 -0.1615  0.2999  0.8228
 5050SOL    HW115545   4.599   1.887   3.706  0.4320  0.5525  1.1986
 5050SOL    HW215546   4.597   2.007   3.799 -1.1952  0.3879  1.4110
 5051SOL     OW15547   1.556   6.723   4.811 -0.5145  0.1093 -0.2297
 5051SOL    HW115548   1.491   6.793   4.808  0.7417  1.2676 -1.0810
 5051SOL    HW215549   1.634   6.763   4.850 -0.4634 -1.4419  1.4305
 5052SOL     OW15550   1.986   3.433   3.857 -0.3827 -0.1448 -0.2121
 5052SOL    HW115551   1.914   3.496   3.856 -0.1605  0.1510 -2.3809
 5052SOL    HW215552   1.948   3.354   3.897 -1.3702  0.5783  0.3246
 5053SOL     OW15553   2.216   4.459   2.767  0.2407  0.2245  0.1673
 5053SOL    HW115554   2.121   4.461   2.778  0.4853  0.6007  2.6218
 5053SOL    HW215555   2.229   4.414   2.683 -2.1243  1.9397 -1.2357
 5054SOL     OW15556   1.252   2.720   2.757 -0.4399  0.0005 -0.4483
 5054SOL    HW115557   1.232   2.728   2.850 -0.5909  0.8959 -0.5565
 5054SOL    HW215558   1.195   2.650   2.727  1.9495 -2.7369  0.8067
 5055SOL     OW15559   2.477   0.666   3.747  0.1516  0.1956 -0.7685
 5055SOL    HW115560   2.405   0.683   3.687  1.1182 -0.2104 -2.0864
 5055SOL    HW215561   2.464   0.729   3.818 -2.2614 -0.7982 -0.2313
 5056SOL     OW15562   1.387   0.091   4.192  0.4512  0.6605 -0.1343
 5056SOL    HW115563   1.332   0.067   4.267  0.0025  1.3348 -0.2407
 5056SOL    HW215564   1.348   0.171   4.158 -0.4266 -0.5638 -2.2004
 5057SOL     OW15565   6.116   0.722   1.867 -0.2471  0.6108  0.0700
 5057SOL    HW115566   6.152   0.654   1.924  1.9529  0.7127 -1.1097
 5057SOL    HW215567   6.056   0.676   1.809 -0.2370  0.0264  0.5156
 5058SOL     OW15568   0.880   4.805   2.714 -0.0469  0.4517  0.2906
 5058SOL    HW115569   0.822   4.867   2.669 -1.4571 -0.6490  0.4931
 5058SOL    HW215570   0.866   4.823   2.807  1.6366  1.6351  0.3613
 5059SOL     OW15571   0.483   2.431   3.358 -0.4515 -0.5353 -0.3487
 5059SOL    HW115572   0.447   2.363   3.415  0.6041 -0.4268  0.4787
 5059SOL    HW215573   0.578   2.423   3.368 -0.2951  0.6789 -0.6895
 5060SOL     OW15574   3.594   0.336   2.492 -0.1413  0.3268 -0.1858
 5060SOL    HW115575   3.607   0.269   2.559  0.9006 -0.1230 -0.8075
 5060SOL    HW215576   3.667   0.396   2.504 -0.8186  1.1040  0.0719
 5061SOL     OW15577   4.213   5.625   3.109 -0.1049  0.1974  0.2777
 5061SOL    HW115578   4.303   5.615   3.078 -0.0231  1.7203 -0.0206
 5061SOL    HW215579   4.163   5.651   3.031 -0.6611  0.1339  0.6063
 5062SOL     OW15580   2.747   4.250   1.768  0.0402 -0.3793 -0.2556
 5062SOL    HW115581   2.804   4.192   1.818 -0.9750 -0.7722  0.4821
 5062SOL    HW215582   2.770   4.338   1.798 -1.7990 -0.6733  2.3797
 5063SOL     OW15583   5.374   2.941   2.978  0.1140 -0.2931  1.1130
 5063SOL    HW115584   5.321   2.868   3.010 -2.7035  0.5105 -1.2448
 5063SOL    HW215585   5.332   3.019   3.015 -0.9128  0.4097 -1.3439
 5064SOL     OW15586   5.277   2.741   5.538  0.4487 -0.4659 -0.0073
 5064SOL    HW115587   5.276   2.660   5.591  1.9919 -0.0619  0.6868
 5064SOL    HW215588   5.279   2.710   5.448  0.7255 -1.2084  0.2423
 5065SOL     OW15589   1.684   6.222   5.124 -0.2740  0.3986  0.3299
 5065SOL    HW115590   1.740   6.280   5.072  0.2296 -1.3158 -1.1624
 5065SOL    HW215591   1.603   6.214   5.073  0.1602 -1.1643 -0.1800
 5066SOL     OW15592   1.837   5.143   3.783  0.0547 -0.1961  0.0902
 5066SOL    HW115593   1.807   5.108   3.867  0.8254 -0.3785  0.2978
 5066SOL    HW215594   1.768   5.119   3.721 -0.1283 -0.7786  0.5133
 5067SOL     OW15595   1.218   1.690   0.753 -0.0903 -0.4203 -0.6578
 5067SOL    HW115596   1.266   1.760   0.710 -0.5512 -0.1168 -0.6815
 5067SOL    HW215597   1.263   1.679   0.837 -0.1424  0.0434 -0.5676
 5068SOL     OW15598   0.421   2.008   1.478  0.4499 -0.8814 -0.1100
 5068SOL    HW115599   0.486   2.043   1.417  0.6943  0.2065  0.7286
 5068SOL    HW215600   0.470   1.995   1.559 -0.1448 -1.0568  0.2244
 5069SOL     OW15601   3.785   5.321   2.826  0.2465  0.6862  0.2490
 5069SOL    HW115602   3.765   5.384   2.895 -0.5062  1.1486 -0.3798
 5069SOL    HW215603   3.757   5.237   2.862  1.6339  0.6133  1.2521
 5070SOL     OW15604   4.642   1.386   1.252 -0.0658  0.0834 -0.2299
 5070SOL    HW115605   4.645   1.477   1.223 -0.6335  0.5886  1.2331
 5070SOL    HW215606   4.582   1.343   1.190 -2.2161  1.4023  0.8550
 5071SOL     OW15607   1.654   2.890   5.920 -0.1043  0.2429  0.2378
 5071SOL    HW115608   1.720   2.825   5.893 -0.0565  0.6091 -0.5626
 5071SOL    HW215609   1.631   2.865   6.009  1.3475  0.2915  0.6482
 5072SOL     OW15610   4.108   5.272   4.316 -0.3234  0.6764  0.7663
 5072SOL    HW115611   4.097   5.291   4.223  0.0563  2.4834  1.0516
 5072SOL    HW215612   4.030   5.220   4.339 -0.1683 -0.2518 -0.6393
 5073SOL     OW15613   1.894   2.015   4.819  0.1610  0.4919 -0.4216
 5073SOL    HW115614   1.972   2.052   4.860 -0.4335  0.8098  0.4534
 5073SOL    HW215615   1.844   1.978   4.892 -1.0555  1.2992 -0.8191
 5074SOL     OW15616   4.533   2.943   0.597 -0.4952 -0.5222 -0.4166
 5074SOL    HW115617   4.452   2.909   0.558 -0.8480 -0.6740  0.4097
 5074SOL    HW215618   4.596   2.944   0.526 -0.8927 -1.5373 -0.8033
 5075SOL     OW15619   1.257   0.050   0.997 -0.4763  0.1130 -0.3450
 5075SOL    HW115620   1.302   0.006   1.069 -0.7852  1.3871  0.6567
 5075SOL    HW215621   1.166   0.023   1.006 -0.4260 -0.1426 -0.5870
 5076SOL     OW15622   1.147   0.366   1.059  0.4205  0.6121 -0.4445
 5076SOL    HW115623   1.207   0.303   1.099 -0.8469 -0.5980 -0.3678
 5076SOL    HW215624   1.203   0.424   1.008  1.4707 -1.9979 -2.4522
 5077SOL     OW15625   6.430   0.642   2.047 -0.1829  0.6343  0.0550
 5077SOL    HW115626   6.345   0.600   2.042  1.1137 -2.1522 -0.5345
 5077SOL    HW215627   6.461   0.646   1.956  1.5580 -1.3250  0.4883
 5078SOL     OW15628   4.864   2.476   4.577  0.5184  0.3308 -0.0401
 5078SOL    HW115629   4.957   2.479   4.554  0.9929  1.1017  1.7921
 5078SOL    HW215630   4.846   2.563   4.614 -0.5363 -0.2926  0.9711
 5079SOL     OW15631   4.925   5.005   5.223 -0.3003  0.1835 -0.6564
 5079SOL    HW115632   4.855   4.956   5.267  1.9312 -2.0928  0.6125
 5079SOL    HW215633   4.968   5.053   5.293 -0.3254  1.2801 -1.3714
 5080SOL     OW15634   6.696   3.444   5.785 -0.3270  0.0116 -0.7982
 5080SOL    HW115635   6.632   3.385   5.745 -2.1315  1.1508  0.2662
 5080SOL    HW215636   6.646   3.522   5.809  1.5685  1.1757 -0.3403
 5081SOL     OW15637   6.464   4.918   0.779 -0.5645  1.1497 -0.2216
 5081SOL    HW115638   6.417   4.998   0.758  0.2391  1.7340  0.1308
 5081SOL    HW215639   6.555   4.946   0.793 -0.1179  0.0792 -0.8040
 5082SOL     OW15640   1.093   5.765   5.465  0.2607 -0.8076 -0.2183
 5082SOL    HW115641   1.030   5.779   5.537  0.5235 -0.4544 -0.0527
 5082SOL    HW215642   1.172   5.811   5.494  0.1211  0.0015 -1.0687
 5083SOL     OW15643   1.437   4.324   5.566 -0.1962  0.3207  0.0250
 5083SOL    HW115644   1.444   4.274   5.485 -1.4517  1.7566 -1.0354
 5083SOL    HW215645   1.352   4.368   5.560 -0.4426  0.2866  2.2480
 5084SOL     OW15646   3.770   2.235   4.957 -0.7575  0.2514 -0.5125
 5084SOL    HW115647   3.799   2.229   4.865  0.4587 -1.6296 -0.0715
 5084SOL    HW215648   3.694   2.176   4.962 -2.0861  1.8713 -0.6982
 5085SOL     OW15649   4.938   2.236   2.620  0.3914  0.5375  0.7393
 5085SOL    HW115650   4.858   2.284   2.643 -0.0066 -0.0257  0.5634
 5085SOL    HW215651   4.965   2.273   2.536 -0.1946  0.1342  0.3588
 5086SOL     OW15652   2.932   4.432   5.703 -0.5266  0.1190 -0.2360
 5086SOL    HW115653   2.984   4.364   5.744 -0.9188 -0.1570 -0.1977
 5086SOL    HW215654   2.841   4.407   5.718 -0.7051  1.4974  1.2012
 5087SOL     OW15655   5.709   1.264   6.218  0.5980  0.3414 -0.1623
 5087SOL    HW115656   5.753   1.195   6.269 -0.3576 -1.0266 -1.1168
 5087SOL    HW215657   5.624   1.275   6.261  0.5875  0.6394 -0.2559
 5088SOL     OW15658   1.704   0.610   3.800  0.0112 -0.3654  0.1385
 5088SOL    HW115659   1.777   0.548   3.803 -0.6048 -1.0631  0.8592
 5088SOL    HW215660   1.650   0.582   3.727 -0.4158 -0.8632  0.6354
 5089SOL     OW15661   1.418   5.910   0.586 -0.2408  0.5920 -0.1224
 5089SOL    HW115662   1.330   5.932   0.616 -1.5605 -0.6989 -2.7047
 5089SOL    HW215663   1.473   5.919   0.664 -2.1737  3.7521  1.0626
 5090SOL     OW15664   4.353   6.856   4.022 -0.4264 -0.1482  0.4625
 5090SOL    HW115665   4.388   6.945   4.022  1.5729 -0.8642 -1.0468
 5090SOL    HW215666   4.264   6.865   4.054 -0.4505  2.4620 -0.1715
 5091SOL     OW15667   4.820   0.639   5.381  0.2424 -0.2308  0.4121
 5091SOL    HW115668   4.785   0.618   5.468 -1.1147 -0.7222 -0.2234
 5091SOL    HW215669   4.758   0.599   5.320  2.3840 -1.8782 -0.8023
 5092SOL     OW15670   6.583   3.682   4.155 -0.4276  0.0583 -0.0463
 5092SOL    HW115671   6.643   3.754   4.133  1.6737 -1.0446  1.7284
 5092SOL    HW215672   6.515   3.723   4.209  0.6011  0.7757  0.7447
 5093SOL     OW15673   3.496   6.808   4.590 -0.1701 -0.7486 -0.6046
 5093SOL    HW115674   3.453   6.733   4.630 -0.3053 -0.2450  0.2303
 5093SOL    HW215675   3.503   6.872   4.661 -0.7743  0.3320 -1.4758
 5094SOL     OW15676   4.682   5.034   3.882 -0.0219  0.5342  0.7182
 5094SOL    HW115677   4.716   5.006   3.797 -1.5593 -0.1641  0.2988
 5094SOL    HW215678   4.639   4.957   3.917 -0.0591  1.0341  1.8021
 5095SOL     OW15679   3.487   0.928   2.917  1.3462  0.1759  0.1240
 5095SOL    HW115680   3.413   0.976   2.878  2.2195  1.5595  0.0821
 5095SOL    HW215681   3.528   0.882   2.844 -0.4902 -2.0936  0.4248
 5096SOL     OW15682   3.809   5.961   6.886 -0.6006  0.6283 -0.1803
 5096SOL    HW115683   3.727   5.964   6.837 -0.9208  0.9032  0.3649
 5096SOL    HW215684   3.836   5.869   6.882 -1.1646  0.4508  0.0134
 5097SOL     OW15685   0.394   5.962   2.557 -0.4925 -0.1605 -0.1271
 5097SOL    HW115686   0.365   6.037   2.609 -1.0818 -1.1372  0.9961
 5097SOL    HW215687   0.489   5.975   2.547 -0.6312  0.8788 -0.2284
 5098SOL     OW15688   2.947   5.423   2.496  0.7585  0.1907  1.0320
 5098SOL    HW115689   3.026   5.391   2.538  0.3019 -2.0077  0.3396
 5098SOL    HW215690   2.978   5.474   2.421  1.5137  0.3704  1.4623
 5099SOL     OW15691   1.595   1.686   1.959  0.2979 -0.2221 -0.2969
 5099SOL    HW115692   1.554   1.603   1.985  2.1221 -1.4641 -1.1411
 5099SOL    HW215693   1.561   1.702   1.871 -1.8678  1.2485  0.7112
 5100SOL     OW15694   5.381   3.871   4.266 -0.8020 -0.4202 -0.2412
 5100SOL    HW115695   5.475   3.888   4.258 -0.4974 -2.4868 -2.1894
 5100SOL    HW215696   5.374   3.807   4.337 -0.8603  0.3998  0.5040
 5101SOL     OW15697   2.668   0.053   3.811 -0.0047 -0.1244  0.1532
 5101SOL    HW115698   2.757   0.087   3.804  0.0294 -0.2910 -0.2388
 5101SOL    HW215699   2.676  -0.040   3.793 -0.1415 -0.2923  0.9431
 5102SOL     OW15700   2.777   1.132   4.849 -0.0964 -0.6614 -0.2251
 5102SOL    HW115701   2.783   1.083   4.931 -1.8030  0.1842  0.4631
 5102SOL    HW215702   2.867   1.138   4.818  0.6808 -0.5414  1.8774
 5103SOL     OW15703   5.826   2.367   2.230 -0.9678  0.5522  0.2333
 5103SOL    HW115704   5.846   2.391   2.320  1.5756 -1.2147  0.2592
 5103SOL    HW215705   5.759   2.299   2.237 -0.7770  0.4192  0.7859
 5104SOL     OW15706   4.506   1.771   6.911 -0.2855  0.5229  0.6358
 5104SOL    HW115707   4.543   1.796   6.826 -0.4088 -0.6006  0.2279
 5104SOL    HW215708   4.515   1.676   6.913 -4.5779 -0.1177 -0.2394
 5105SOL     OW15709   6.683   1.638   3.190  0.1704  0.1184  0.4852
 5105SOL    HW115710   6.618   1.707   3.203  1.5742  1.1968  2.2223
 5105SOL    HW215711   6.744   1.648   3.263  2.2136 -0.9243 -0.9706
 5106SOL     OW15712   4.197   1.101   5.633  0.2391 -0.2185  0.1091
 5106SOL    HW115713   4.234   1.013   5.647  1.5816  0.2284 -0.4382
 5106SOL    HW215714   4.224   1.151   5.710 -1.0126 -0.4103  0.6976
 5107SOL     OW15715   6.011   3.696   1.380  0.5111 -0.3359 -0.2241
 5107SOL    HW115716   6.072   3.707   1.454 -1.9259  0.9213  1.7748
 5107SOL    HW215717   6.051   3.744   1.308  1.7015  0.8228  1.1470
 5108SOL     OW15718   6.213   3.463   5.014 -0.0082 -0.0911  0.4261
 5108SOL    HW115719   6.169   3.403   5.075  0.6967 -2.8566 -1.5773
 5108SOL    HW215720   6.300   3.425   5.002  0.3034  1.0591 -1.3376
 5109SOL     OW15721   5.698   4.964   6.893 -0.5397  0.5113  0.3515
 5109SOL    HW115722   5.665   4.884   6.852 -0.1078 -0.1071  1.1778
 5109SOL    HW215723   5.660   4.963   6.981 -0.1627  0.9827  0.5214
 5110SOL     OW15724   5.518   6.488   5.851 -0.5617  0.2227  0.3681
 5110SOL    HW115725   5.586   6.508   5.787 -0.5727  2.2282  0.8870
 5110SOL    HW215726   5.453   6.558   5.839 -1.1476 -0.0534  1.7350
 5111SOL     OW15727   4.684   2.371   0.858 -0.2180  0.8791  0.0315
 5111SOL    HW115728   4.643   2.286   0.843  0.0898  0.7526 -0.1003
 5111SOL    HW215729   4.698   2.407   0.771 -0.2404  1.0152  0.0840
 5112SOL     OW15730   4.072   2.912   2.909  0.2537 -0.4393  0.2212
 5112SOL    HW115731   4.107   2.856   2.839 -0.8598  0.4331 -1.0846
 5112SOL    HW215732   4.004   2.859   2.950  0.0523 -0.5141 -0.2000
 5113SOL     OW15733   6.225   1.143   4.257 -0.2050  0.1640  0.0764
 5113SOL    HW115734   6.214   1.228   4.300  0.0601 -0.4032  1.3111
 5113SOL    HW215735   6.157   1.087   4.296  1.6419 -1.0728  1.7052
 5114SOL     OW15736   0.028   2.191   1.586  0.0467  0.0715 -0.2478
 5114SOL    HW115737   0.089   2.121   1.560 -1.3214 -0.2005 -3.0930
 5114SOL    HW215738   0.085   2.266   1.605  1.4490 -1.3133  1.3552
 5115SOL     OW15739   4.950   6.207   5.614  0.9532  0.3676  0.3543
 5115SOL    HW115740   4.951   6.133   5.675 -0.6695  0.7405  0.8602
 5115SOL    HW215741   4.860   6.239   5.616  0.9255  0.6142 -1.9876
 5116SOL     OW15742   0.482   3.097   2.515 -0.4314  0.8562  0.0057
 5116SOL    HW115743   0.407   3.123   2.460 -0.0870 -0.6430 -1.2521
 5116SOL    HW215744   0.539   3.048   2.456  1.4768  1.7756  0.9867
 5117SOL     OW15745   5.672   3.913   2.760  0.5594 -0.3464  0.1402
 5117SOL    HW115746   5.641   3.854   2.691 -1.0356  0.5143  0.0763
 5117SOL    HW215747   5.660   4.001   2.723  0.4674  0.1014  1.1983
 5118SOL     OW15748   4.028   2.706   2.426  0.2021 -0.2172 -0.2378
 5118SOL    HW115749   4.067   2.621   2.448 -1.1766 -0.9708 -0.5687
 5118SOL    HW215750   4.080   2.737   2.352  0.4369 -0.9957 -0.4131
 5119SOL     OW15751   1.671   6.592   3.330  0.1782  0.0533  0.0374
 5119SOL    HW115752   1.720   6.657   3.381 -0.0953  0.8516 -0.7037
 5119SOL    HW215753   1.582   6.628   3.324 -0.2122 -0.8129  0.3567
 5120SOL     OW15754   3.742   0.000   4.742  0.1251 -0.6471  0.2730
 5120SOL    HW115755   3.709   0.058   4.673  1.5898 -0.2272 -0.1054
 5120SOL    HW215756   3.806  -0.055   4.698 -0.0389 -1.4324  0.9961
 5121SOL     OW15757   3.541   2.574   0.090 -0.5430  0.2292  0.0387
 5121SOL    HW115758   3.572   2.664   0.101 -0.0657 -0.0046  0.6696
 5121SOL    HW215759   3.531   2.542   0.180 -1.7164 -0.0117 -0.1605
 5122SOL     OW15760   6.783   3.235   1.743  0.4530  0.2734 -0.2272
 5122SOL    HW115761   6.823   3.150   1.760  0.3205 -0.3726 -2.8100
 5122SOL    HW215762   6.823   3.265   1.661 -0.5529  2.0379 -0.1254
 5123SOL     OW15763   2.129   3.575   1.621  0.1736  0.3635  0.0162
 5123SOL    HW115764   2.173   3.657   1.598  1.3544  0.2568  1.7216
 5123SOL    HW215765   2.050   3.574   1.566  0.1941  2.5588 -0.1464
 5124SOL     OW15766   0.231   5.038   3.438 -0.0884  0.3366  0.4021
 5124SOL    HW115767   0.262   5.068   3.523  2.2382 -1.0189  0.0919
 5124SOL    HW215768   0.275   5.095   3.375  0.6515 -0.6434  0.0094
 5125SOL     OW15769   6.796   3.676   4.721  0.3758  0.0814 -0.2299
 5125SOL    HW115770   6.734   3.740   4.757 -0.1469 -0.5861  0.0875
 5125SOL    HW215771   6.797   3.694   4.627  0.3553  0.6573 -0.1240
 5126SOL     OW15772   0.979   3.396   2.239 -0.6688  0.4509  0.2376
 5126SOL    HW115773   0.886   3.373   2.236 -0.3086 -1.2177  0.6618
 5126SOL    HW215774   1.019   3.342   2.171  0.1793  0.1363  0.9694
 5127SOL     OW15775   3.875   5.454   6.910 -0.4909  0.2162 -0.0334
 5127SOL    HW115776   3.816   5.409   6.850 -0.9303  2.5350 -1.4939
 5127SOL    HW215777   3.958   5.408   6.901 -1.4529 -1.6910  0.3346
 5128SOL     OW15778   5.402   3.021   0.306  0.3954  0.0488  0.0891
 5128SOL    HW115779   5.332   3.078   0.275  0.7562 -0.0057 -0.8697
 5128SOL    HW215780   5.389   2.939   0.258  0.2471 -0.4800  1.0019
 5129SOL     OW15781   6.319   4.077   1.652  0.0175  0.1315 -0.4718
 5129SOL    HW115782   6.360   4.003   1.608 -1.2776  0.2687 -1.9728
 5129SOL    HW215783   6.365   4.154   1.617  1.2395  0.1025  0.9524
 5130SOL     OW15784   0.230   6.112   5.675 -0.0670 -0.1494  0.3494
 5130SOL    HW115785   0.255   6.039   5.731 -1.2870 -1.6652 -0.9873
 5130SOL    HW215786   0.134   6.105   5.669  0.0716 -0.5550 -2.5103
 5131SOL     OW15787   5.277   2.594   1.052 -0.0485 -0.3344 -0.0450
 5131SOL    HW115788   5.193   2.630   1.079  0.3179 -0.3950  1.2444
 5131SOL    HW215789   5.256   2.532   0.982 -0.8686  1.0109 -1.0499
 5132SOL     OW15790   2.759   3.594   3.572  0.0769  0.3909  0.0451
 5132SOL    HW115791   2.741   3.650   3.647  0.0814  0.6482 -0.1404
 5132SOL    HW215792   2.678   3.595   3.521 -0.1862 -0.4117  0.4400
 5133SOL     OW15793   1.272   3.218   2.183 -0.4680 -0.4497  0.0851
 5133SOL    HW115794   1.342   3.272   2.145 -1.6450  0.6042 -0.6618
 5133SOL    HW215795   1.299   3.205   2.274  2.5234 -3.1619 -0.9783
 5134SOL     OW15796   2.393   4.995   3.610  0.6670 -0.0626  0.3190
 5134SOL    HW115797   2.317   4.993   3.669  0.6609  1.3236  0.3896
 5134SOL    HW215798   2.439   5.075   3.634  1.3372 -0.1174 -0.7439
 5135SOL     OW15799   6.870   0.661   2.071 -0.0532  0.1656 -0.2839
 5135SOL    HW115800   6.797   0.623   2.021 -0.4980  0.6144  0.0280
 5135SOL    HW215801   6.934   0.685   2.004  0.1736 -0.9816 -0.5071
 5136SOL     OW15802   5.722   3.880   3.282  0.1480  0.3886 -0.0877
 5136SOL    HW115803   5.644   3.909   3.233 -1.4301 -0.9634  1.4815
 5136SOL    HW215804   5.715   3.927   3.365  2.0207  1.5888 -0.5644
 5137SOL     OW15805   1.566   5.948   0.801  0.0182  0.6978  0.3254
 5137SOL    HW115806   1.644   5.912   0.844 -0.2064  0.1660  0.2973
 5137SOL    HW215807   1.498   5.947   0.868 -0.3891 -0.3326 -0.0810
 5138SOL     OW15808   1.232   6.224   2.378 -0.3821  0.1660 -0.2140
 5138SOL    HW115809   1.259   6.241   2.288 -0.9074 -0.4050 -0.4844
 5138SOL    HW215810   1.284   6.286   2.430  0.3582  0.0997 -0.8468
 5139SOL     OW15811   6.048   1.143   2.213  0.1400  0.1944 -0.2256
 5139SOL    HW115812   6.023   1.188   2.294 -1.9586  0.7768 -1.1255
 5139SOL    HW215813   6.131   1.100   2.234 -0.4320  0.1622  2.2875
 5140SOL     OW15814   3.640   5.810   2.285  0.2623 -0.1924  0.4235
 5140SOL    HW115815   3.707   5.877   2.269  0.3430 -0.2005  0.7223
 5140SOL    HW215816   3.683   5.727   2.266 -0.2168 -0.1004 -1.2328
 5141SOL     OW15817   4.447   0.318   2.941  0.3389 -0.2927  0.2707
 5141SOL    HW115818   4.541   0.310   2.956  0.1612 -0.0170  1.7116
 5141SOL    HW215819   4.435   0.297   2.849  1.5627 -2.4837  0.5443
 5142SOL     OW15820   1.289   0.246   5.847 -0.1658  0.2621  0.1349
 5142SOL    HW115821   1.237   0.195   5.785  0.3201 -0.3213  0.1908
 5142SOL    HW215822   1.329   0.315   5.794  0.3957 -0.3436 -0.2510
 5143SOL     OW15823   2.018   5.259   2.485  0.8520  0.0390 -0.0337
 5143SOL    HW115824   2.030   5.310   2.565 -0.7248  3.7961 -1.9525
 5143SOL    HW215825   1.935   5.214   2.497  2.4599 -2.6968  1.8598
 5144SOL     OW15826   3.971   2.315   4.106 -0.3395 -1.2286  0.3481
 5144SOL    HW115827   3.908   2.306   4.034  1.3588 -0.6558 -1.2822
 5144SOL    HW215828   4.043   2.366   4.069  1.8808 -3.2500  1.5651
 5145SOL     OW15829   1.230   2.958   6.566  0.7502  0.2727 -0.2973
 5145SOL    HW115830   1.252   2.891   6.630 -0.3014  0.9011  0.7631
 5145SOL    HW215831   1.313   3.000   6.544  1.3279 -0.9666 -0.5161
 5146SOL     OW15832   0.404   4.821   5.594 -0.3935 -0.8105  0.6844
 5146SOL    HW115833   0.313   4.811   5.622 -0.6117 -0.3848  0.1524
 5146SOL    HW215834   0.406   4.784   5.506  0.3457 -2.4027  1.3278
 5147SOL     OW15835   3.597   2.710   1.956 -0.4290 -0.2924 -0.6215
 5147SOL    HW115836   3.525   2.725   1.895 -1.6321 -2.6441  0.0972
 5147SOL    HW215837   3.568   2.748   2.038 -1.9446 -3.0558  0.2595
 5148SOL     OW15838   2.587   0.587   4.436 -0.8379 -0.4504  0.1252
 5148SOL    HW115839   2.579   0.565   4.343 -1.3896  2.1886 -0.5418
 5148SOL    HW215840   2.499   0.572   4.472 -1.4861  1.3586 -0.5533
 5149SOL     OW15841   5.600   3.676   0.237 -0.2030  0.1201 -0.4616
 5149SOL    HW115842   5.691   3.675   0.266 -0.5083  1.7509  0.7242
 5149SOL    HW215843   5.601   3.727   0.156 -0.0620  0.0583 -0.4996
 5150SOL     OW15844   4.222   6.503   5.113  0.0199  0.7029  0.1678
 5150SOL    HW115845   4.188   6.572   5.170 -2.5425 -0.3189  0.0504
 5150SOL    HW215846   4.229   6.426   5.170  0.4983  0.4541 -0.2148
 5151SOL     OW15847   1.902   0.562   3.299 -0.0477 -0.9071 -0.0378
 5151SOL    HW115848   1.932   0.597   3.215 -2.3542 -0.2214 -0.6253
 5151SOL    HW215849   1.893   0.468   3.284  0.2698 -0.8958 -0.3145
 5152SOL     OW15850   4.452   4.449   0.792 -0.9264  0.3862  0.1289
 5152SOL    HW115851   4.532   4.424   0.838 -0.2334  0.0345 -1.2095
 5152SOL    HW215852   4.464   4.542   0.773 -0.6028  0.2286 -0.4790
 5153SOL     OW15853   1.974   1.628   6.888 -0.3162  0.2056  0.1801
 5153SOL    HW115854   1.949   1.711   6.847  1.0638  0.3349 -0.4628
 5153SOL    HW215855   2.005   1.574   6.815  3.2680  0.8242  1.0583
 5154SOL     OW15856   6.619   5.037   4.281  0.3081 -0.2917  0.5254
 5154SOL    HW115857   6.530   5.010   4.304  0.1671 -1.5138 -1.2756
 5154SOL    HW215858   6.614   5.057   4.188  1.7745  0.3792  0.5667
 5155SOL     OW15859   2.195   6.682   5.771 -0.4522 -0.3587 -0.1365
 5155SOL    HW115860   2.137   6.679   5.694 -2.3275  0.6889  1.1629
 5155SOL    HW215861   2.171   6.763   5.816  2.3016  0.2859  0.3148
 5156SOL     OW15862   5.459   6.718   6.678 -0.6177  0.1931  0.3958
 5156SOL    HW115863   5.401   6.755   6.744 -1.0600 -0.2573  0.2624
 5156SOL    HW215864   5.492   6.795   6.630 -0.0258  0.5439  1.3367
 5157SOL     OW15865   3.205   1.412   2.065 -0.5586 -0.2653 -0.2319
 5157SOL    HW115866   3.128   1.403   2.009 -0.5730 -0.0463 -0.2467
 5157SOL    HW215867   3.193   1.495   2.110 -0.1244 -0.0195 -0.5602
 5158SOL     OW15868   3.421   2.616   0.526  0.2031 -0.2150 -0.2203
 5158SOL    HW115869   3.468   2.548   0.574 -0.2866 -0.9506 -0.7528
 5158SOL    HW215870   3.335   2.621   0.568 -1.1909 -2.6385 -2.4255
 5159SOL     OW15871   1.569   6.123   1.701  0.1260 -0.1747 -0.2111
 5159SOL    HW115872   1.611   6.037   1.711 -0.5400 -0.3892  0.8813
 5159SOL    HW215873   1.529   6.120   1.614 -0.2217 -1.1318 -0.0359
 5160SOL     OW15874   1.228   2.331   0.816 -0.0015 -0.5117  0.1434
 5160SOL    HW115875   1.265   2.314   0.729  0.1083 -0.9856  0.2787
 5160SOL    HW215876   1.147   2.280   0.818 -0.4645  0.2052 -0.0029
 5161SOL     OW15877   0.183   6.788   6.184 -0.4510  0.1970  0.3569
 5161SOL    HW115878   0.230   6.794   6.268  0.8661  0.7187 -0.3785
 5161SOL    HW215879   0.215   6.863   6.134 -0.2727 -0.7999 -1.0728
 5162SOL     OW15880   5.369   4.502   6.910  0.8550 -0.2903 -0.4372
 5162SOL    HW115881   5.413   4.531   6.990 -1.7272  0.4298  0.8572
 5162SOL    HW215882   5.336   4.582   6.870 -2.3659 -0.8562  0.7083
 5163SOL     OW15883   4.697   5.991   0.727  0.5354  0.5025  0.7540
 5163SOL    HW115884   4.713   6.019   0.637  0.9623  1.4442  1.1093
 5163SOL    HW215885   4.677   5.898   0.720  1.7113  0.2913 -0.1982
 5164SOL     OW15886   5.338   3.732   6.879 -0.1613 -0.0626  0.0559
 5164SOL    HW115887   5.304   3.698   6.797 -0.4075  0.0737  0.1014
 5164SOL    HW215888   5.282   3.693   6.947 -0.8373  0.9027  0.0737
 5165SOL     OW15889   2.449   3.009   1.489 -0.0034  0.2675  0.0362
 5165SOL    HW115890   2.405   2.991   1.406  1.5576  1.5220 -1.1335
 5165SOL    HW215891   2.514   2.940   1.497 -0.0427  0.2423  0.1424
 5166SOL     OW15892   4.132   5.665   0.800 -0.0351  0.1584  0.5162
 5166SOL    HW115893   4.053   5.613   0.812  0.0264 -1.7296 -4.8526
 5166SOL    HW215894   4.101   5.754   0.786 -1.3945 -0.6444 -2.0268
 5167SOL     OW15895   3.047   0.716   6.815 -0.0536  0.1296 -0.2165
 5167SOL    HW115896   3.077   0.798   6.775  1.2637 -0.0132  0.4350
 5167SOL    HW215897   3.003   0.670   6.744  0.0911  0.9524 -0.8573
 5168SOL     OW15898   3.968   1.994   0.374 -0.0427 -0.6821 -0.1680
 5168SOL    HW115899   3.988   2.049   0.299  1.1578  0.9485  1.2599
 5168SOL    HW215900   3.893   2.036   0.415  0.7169 -0.2165  0.7875
 5169SOL     OW15901   0.177   6.437   6.204 -0.1352  0.0779  0.0776
 5169SOL    HW115902   0.116   6.468   6.272  1.7239  2.2200  0.9067
 5169SOL    HW215903   0.168   6.502   6.134  0.0995 -0.4621 -0.4562
 5170SOL     OW15904   2.711   6.170   3.000  0.5283  0.0501 -0.1759
 5170SOL    HW115905   2.789   6.120   3.025  0.6971 -0.1099 -0.9908
 5170SOL    HW215906   2.739   6.222   2.926 -0.0481  0.2677 -0.2425
 5171SOL     OW15907   5.786   0.119   3.551 -0.3681  0.6353  0.1454
 5171SOL    HW115908   5.739   0.167   3.483 -0.6497  1.6327  1.0189
 5171SOL    HW215909   5.722   0.057   3.586 -0.5708  0.9113  0.2698
 5172SOL     OW15910   2.198   1.558   5.380 -0.8043  0.3108 -0.2812
 5172SOL    HW115911   2.291   1.552   5.357 -0.9726 -1.8479 -0.5693
 5172SOL    HW215912   2.164   1.626   5.321  0.4437  0.6097 -0.6897
 5173SOL     OW15913   2.792   4.392   2.321  0.0552 -0.2834 -0.5955
 5173SOL    HW115914   2.846   4.318   2.347  3.0824  1.5817 -1.0656
 5173SOL    HW215915   2.841   4.469   2.350 -3.2180  1.6033  0.4133
 5174SOL     OW15916   0.756   5.641   2.242  0.6279  0.0923 -0.2105
 5174SOL    HW115917   0.740   5.577   2.311  1.5332 -0.6384 -0.6655
 5174SOL    HW215918   0.779   5.589   2.165 -1.5695  0.8060 -1.4473
 5175SOL     OW15919   6.784   5.937   4.020  0.1509 -0.0303 -0.1172
 5175SOL    HW115920   6.739   6.014   3.986  1.4314 -0.1211 -2.1813
 5175SOL    HW215921   6.798   5.957   4.113  0.1012  2.0619 -0.5029
 5176SOL     OW15922   3.331   2.653   4.246  0.2033 -0.2710 -0.1691
 5176SOL    HW115923   3.359   2.708   4.320  0.1263 -1.0977  0.4836
 5176SOL    HW215924   3.242   2.626   4.268 -0.9910  1.8445 -1.9571
 5177SOL     OW15925   3.776   6.026   2.445  0.3339  0.0937  0.1875
 5177SOL    HW115926   3.753   5.939   2.476 -1.4237  0.0399 -1.1143
 5177SOL    HW215927   3.841   6.010   2.376  0.2596 -0.1670  0.1772
 5178SOL     OW15928   1.352   2.715   1.623 -0.4856 -0.1087  0.1040
 5178SOL    HW115929   1.307   2.705   1.707 -1.1696 -1.5029 -0.3960
 5178SOL    HW215930   1.441   2.684   1.640  0.3779  2.6169  1.0854
 5179SOL     OW15931   1.131   6.835   4.799  0.6521  0.2306  0.2350
 5179SOL    HW115932   1.106   6.915   4.753 -1.5341 -0.4891  0.0807
 5179SOL    HW215933   1.223   6.822   4.775  0.2494  1.1235 -2.0851
 5180SOL     OW15934   5.518   6.656   4.892 -0.7232 -0.0552  0.1129
 5180SOL    HW115935   5.509   6.561   4.895  0.6324 -0.2191 -0.1288
 5180SOL    HW215936   5.496   6.679   4.802 -1.6593 -0.0631  0.3384
 5181SOL     OW15937   6.602   3.943   5.571 -0.0234 -0.3773 -1.2722
 5181SOL    HW115938   6.565   3.873   5.517  1.8019 -1.8303 -0.7659
 5181SOL    HW215939   6.653   3.898   5.638  1.5521  1.4228 -1.1474
 5182SOL     OW15940   4.118   4.712   6.842 -0.0340  0.0957  0.3034
 5182SOL    HW115941   4.146   4.642   6.901 -0.7526 -0.8204 -0.4134
 5182SOL    HW215942   4.164   4.790   6.874  0.5584 -0.6342  1.2939
 5183SOL     OW15943   2.637   1.726   3.347 -0.1289 -0.0924 -0.2915
 5183SOL    HW115944   2.689   1.660   3.393  0.4469 -0.3620 -1.3065
 5183SOL    HW215945   2.701   1.778   3.299 -0.8386 -1.4690 -2.9234
 5184SOL     OW15946   5.618   6.812   4.286  0.2317  0.5755 -0.8370
 5184SOL    HW115947   5.642   6.848   4.372  2.7236 -0.9945 -0.7675
 5184SOL    HW215948   5.622   6.886   4.227 -0.4232  1.4703  0.1933
 5185SOL     OW15949   3.290   3.803   5.996  0.7371  0.0821 -0.0866
 5185SOL    HW115950   3.350   3.785   6.069  0.5495 -0.0032  0.0449
 5185SOL    HW215951   3.318   3.742   5.927  0.6364 -0.1364  0.0648
 5186SOL     OW15952   2.178   5.023   0.274 -0.2842 -0.1978 -0.0152
 5186SOL    HW115953   2.144   5.038   0.362  1.2188 -1.7593  0.8979
 5186SOL    HW215954   2.100   5.003   0.221 -1.2476  1.1620  0.8333
 5187SOL     OW15955   3.681   6.467   5.916  0.0115  0.4456 -0.2160
 5187SOL    HW115956   3.627   6.395   5.949  0.2379  0.4614  0.1917
 5187SOL    HW215957   3.768   6.450   5.951 -0.6577  2.8933  3.0435
 5188SOL     OW15958   2.871   0.323   2.844  0.4480 -0.3368 -0.1381
 5188SOL    HW115959   2.810   0.270   2.895 -0.8273  0.0124 -1.2171
 5188SOL    HW215960   2.893   0.397   2.901 -1.0733  0.1285 -0.1102
 5189SOL     OW15961   2.259   2.584   6.724  0.1862  0.5542 -0.4503
 5189SOL    HW115962   2.165   2.585   6.738  0.3261 -0.1538  0.6235
 5189SOL    HW215963   2.290   2.666   6.761  0.4669 -0.9803  3.1566
 5190SOL     OW15964   6.653   3.787   6.209 -0.0117 -0.2872 -0.3340
 5190SOL    HW115965   6.593   3.716   6.185  0.0487  0.1460 -1.8519
 5190SOL    HW215966   6.609   3.867   6.182  0.6421  0.1355 -0.1792
 5191SOL     OW15967   4.804   0.282   4.003 -0.4229 -0.8776  0.1701
 5191SOL    HW115968   4.792   0.227   4.081 -1.8778  0.2543  0.8087
 5191SOL    HW215969   4.811   0.371   4.038 -3.4951 -0.0410 -1.0180
 5192SOL     OW15970   4.480   6.208   5.522  0.4854  0.1763 -0.1070
 5192SOL    HW115971   4.532   6.147   5.574  0.9832 -0.0878 -0.9017
 5192SOL    HW215972   4.533   6.288   5.518  0.9211 -0.1540 -1.0676
 5193SOL     OW15973   5.306   0.052   4.233 -0.6229 -0.1537  0.9381
 5193SOL    HW115974   5.296  -0.029   4.284 -0.3707 -1.4695 -0.9916
 5193SOL    HW215975   5.381   0.036   4.176 -0.3170  1.6216  0.7733
 5194SOL     OW15976   6.566   3.980   1.261  0.1376 -0.8156 -0.4021
 5194SOL    HW115977   6.534   3.940   1.180 -1.3707  1.4921 -1.0381
 5194SOL    HW215978   6.598   4.066   1.234  2.8400 -1.2912  0.9710
 5195SOL     OW15979   5.513   1.927   5.200  0.6136 -0.3625  0.6659
 5195SOL    HW115980   5.517   1.831   5.203  1.8316 -0.3962 -0.6226
 5195SOL    HW215981   5.584   1.951   5.139  0.6754  1.3855  1.3894
 5196SOL     OW15982   5.439   6.552   5.297 -0.3701  0.3099 -0.5361
 5196SOL    HW115983   5.374   6.555   5.367  0.0094 -0.6721 -0.1153
 5196SOL    HW215984   5.522   6.534   5.342 -0.0781 -0.0480 -1.1991
 5197SOL     OW15985   6.033   1.117   0.727 -0.0784 -0.7114 -0.5035
 5197SOL    HW115986   6.122   1.145   0.703 -0.2668 -0.6890 -1.2146
 5197SOL    HW215987   5.995   1.192   0.771 -0.8204  0.4897 -2.9894
 5198SOL     OW15988   2.764   4.591   1.754 -0.0387 -0.5142  0.0416
 5198SOL    HW115989   2.758   4.666   1.813 -0.5617 -1.8944  1.8224
 5198SOL    HW215990   2.817   4.527   1.801  1.6051 -0.7909 -2.0275
 5199SOL     OW15991   1.777   3.273   0.591  0.3081 -0.1957  0.2262
 5199SOL    HW115992   1.705   3.220   0.557  0.4181 -0.1252 -0.1195
 5199SOL    HW215993   1.733   3.342   0.641 -0.0023  1.1115 -1.7200
 5200SOL     OW15994   3.110   2.705   6.219 -0.7664 -0.3516 -0.2467
 5200SOL    HW115995   3.110   2.800   6.209  0.5051 -0.3040  0.1251
 5200SOL    HW215996   3.122   2.690   6.313  0.1572 -0.8708 -0.4350
 5201SOL     OW15997   6.698   1.167   3.361  0.1670 -0.3098 -0.6538
 5201SOL    HW115998   6.622   1.109   3.365 -1.0541  1.2802  1.7006
 5201SOL    HW215999   6.675   1.232   3.294 -1.1386  0.8306  0.8373
 5202SOL     OW16000   5.853   3.718   2.082  0.4250 -0.1580  0.2433
 5202SOL    HW116001   5.825   3.658   2.012  0.9310  1.3934 -1.3752
 5202SOL    HW216002   5.948   3.711   2.083  0.3560 -1.1785  1.7668
 5203SOL     OW16003   1.276   3.463   1.735 -0.3841  0.7017  0.3123
 5203SOL    HW116004   1.359   3.507   1.716 -0.1439 -0.0641 -0.5167
 5203SOL    HW216005   1.262   3.406   1.660 -1.6345  0.7631  0.4826
 5204SOL     OW16006   1.070   2.951   2.705  0.1356  0.1047  0.3752
 5204SOL    HW116007   1.022   2.933   2.786 -0.8608 -2.2059 -0.6340
 5204SOL    HW216008   1.141   3.010   2.731  0.0141 -0.7925  2.9960
 5205SOL     OW16009   5.690   2.544   0.351  0.3962  0.8018 -0.0139
 5205SOL    HW116010   5.611   2.582   0.390  0.0225 -0.0251  0.0511
 5205SOL    HW216011   5.762   2.589   0.395 -0.0288  0.6239  0.8878
 5206SOL     OW16012   4.493   5.373   1.455 -0.7519 -0.0167 -0.0997
 5206SOL    HW116013   4.484   5.361   1.360  0.4663  1.0648 -0.3785
 5206SOL    HW216014   4.547   5.452   1.464 -2.5146  1.1084  1.5076
 5207SOL     OW16015   4.827   1.045   1.833  0.1748 -0.1413  0.1357
 5207SOL    HW116016   4.735   1.032   1.811 -0.2809 -2.2288  2.6895
 5207SOL    HW216017   4.863   1.094   1.759 -2.4362 -1.2423 -2.0381
 5208SOL     OW16018   2.995   2.949   5.315 -0.4223  0.3262 -0.7561
 5208SOL    HW116019   2.903   2.938   5.337 -0.4760  0.8228 -0.7258
 5208SOL    HW216020   3.025   3.021   5.370  0.3593 -0.7580  0.2925
 5209SOL     OW16021   2.853   5.880   5.854 -0.0235  0.2536  0.5055
 5209SOL    HW116022   2.843   5.786   5.868  0.3130 -0.0876 -1.2829
 5209SOL    HW216023   2.766   5.910   5.828  0.3413 -0.0463 -1.2087
 5210SOL     OW16024   1.515   4.924   0.952  0.7716 -0.0405  0.0554
 5210SOL    HW116025   1.602   4.961   0.967  0.5987  0.3669  0.0557
 5210SOL    HW216026   1.510   4.913   0.857  0.9837 -0.4662  0.0892
 5211SOL     OW16027   6.904   3.796   0.503 -0.1363 -0.1195 -0.1461
 5211SOL    HW116028   6.873   3.836   0.422 -2.2755 -2.5855 -0.6827
 5211SOL    HW216029   6.996   3.775   0.485  1.2604  4.4905  0.3021
 5212SOL     OW16030   6.011   2.289   3.184  0.2376  0.3152 -0.0221
 5212SOL    HW116031   6.076   2.355   3.209 -1.3082  1.8153  0.2149
 5212SOL    HW216032   6.051   2.205   3.209  2.7327  1.0050 -1.3360
 5213SOL     OW16033   3.979   5.723   3.937 -0.1074  0.2341  0.2793
 5213SOL    HW116034   3.954   5.813   3.959 -0.1152  0.1799  0.5031
 5213SOL    HW216035   3.896   5.676   3.929 -0.1057  0.2654  0.0816
 5214SOL     OW16036   3.057   2.670   6.658 -0.2544  0.2320 -0.6421
 5214SOL    HW116037   2.975   2.688   6.705 -0.5678 -0.0853 -1.0632
 5214SOL    HW216038   3.094   2.757   6.640  1.2639  0.4084  2.5637
 5215SOL     OW16039   5.284   1.643   0.054 -0.6030 -0.5275 -0.4928
 5215SOL    HW116040   5.311   1.552   0.042  1.8674 -0.3623  2.4909
 5215SOL    HW216041   5.367   1.691   0.061 -1.7434  1.2497  2.1253
 5216SOL     OW16042   2.869   1.028   1.258  0.2605 -0.0684 -0.4855
 5216SOL    HW116043   2.864   0.945   1.210  0.7916 -1.8749  2.3805
 5216SOL    HW216044   2.780   1.063   1.254 -0.2687 -1.3864 -0.7598
 5217SOL     OW16045   5.115   0.140   4.571 -0.2586  0.1907  0.1898
 5217SOL    HW116046   5.075   0.210   4.520  0.0142  0.7287  0.7127
 5217SOL    HW216047   5.070   0.144   4.656 -0.3772 -0.3923  0.1594
 5218SOL     OW16048   0.827   1.163   3.497 -1.0423  0.1536 -0.4337
 5218SOL    HW116049   0.794   1.231   3.555 -0.2384 -0.1895  0.4446
 5218SOL    HW216050   0.833   1.206   3.411  1.5029  1.9196  0.5096
 5219SOL     OW16051   6.242   2.746   6.082  0.6271 -0.1039 -0.1073
 5219SOL    HW116052   6.299   2.708   6.149  0.5626 -0.5251 -0.2856
 5219SOL    HW216053   6.224   2.835   6.112  0.1865 -0.4551  0.6851
 5220SOL     OW16054   5.300   6.649   1.337 -0.4691  0.1427  0.4281
 5220SOL    HW116055   5.294   6.726   1.393  1.8071 -0.1856  1.2286
 5220SOL    HW216056   5.307   6.575   1.398 -1.7593 -0.6431 -0.3240
 5221SOL     OW16057   5.695   1.045   4.474  0.3268  0.0662  0.5603
 5221SOL    HW116058   5.664   0.977   4.414  0.0787  0.1912  0.5436
 5221SOL    HW216059   5.616   1.078   4.516  0.4942  0.0282  0.9064
 5222SOL     OW16060   0.227   6.549   4.430 -0.0546 -0.2538  0.0429
 5222SOL    HW116061   0.221   6.503   4.346  1.0051 -1.0450  0.3789
 5222SOL    HW216062   0.314   6.588   4.429 -0.8080  1.4979 -0.0859
 5223SOL     OW16063   3.812   0.078   0.202  0.1342 -0.3903 -0.0391
 5223SOL    HW116064   3.903   0.078   0.231  0.2879  0.4073 -0.5181
 5223SOL    HW216065   3.796  -0.012   0.174  0.5811 -0.6850  0.6213
 5224SOL     OW16066   4.482   4.580   2.296 -0.8249 -0.1692  0.2020
 5224SOL    HW116067   4.512   4.489   2.292 -0.2849  0.0427 -1.7444
 5224SOL    HW216068   4.493   4.613   2.207 -3.5226  1.0364  0.2165
 5225SOL     OW16069   5.686   5.051   1.800 -0.4333  0.1216 -0.5069
 5225SOL    HW116070   5.657   5.010   1.719 -0.4271  0.5237 -0.7145
 5225SOL    HW216071   5.781   5.037   1.802 -0.5644 -0.7506 -0.0775
 5226SOL     OW16072   0.480   1.818   4.937 -0.3638  0.7271  0.3084
 5226SOL    HW116073   0.485   1.867   5.019 -0.7167  2.1277 -0.4760
 5226SOL    HW216074   0.387   1.795   4.927 -0.3533  0.7220  0.2130
 5227SOL     OW16075   5.418   3.216   1.595 -0.0016 -0.3777  0.0130
 5227SOL    HW116076   5.487   3.225   1.660  1.1015 -0.9475 -1.0431
 5227SOL    HW216077   5.337   3.235   1.643  0.9797  1.7766  0.9307
 5228SOL     OW16078   0.326   0.770   4.564 -0.2408  0.1687 -0.2366
 5228SOL    HW116079   0.347   0.843   4.622  1.8311 -0.3074 -0.2998
 5228SOL    HW216080   0.360   0.693   4.610 -1.9499 -0.7156 -0.3939
 5229SOL     OW16081   3.040   1.835   0.698  0.0223  0.4201 -0.0633
 5229SOL    HW116082   3.103   1.762   0.701  0.5264  0.7193 -1.8356
 5229SOL    HW216083   2.955   1.794   0.716  0.7808  0.2576  4.0072
 5230SOL     OW16084   0.446   2.063   6.049  0.5975  0.5893 -0.2583
 5230SOL    HW116085   0.459   1.988   5.990  2.6006  0.3074  0.4537
 5230SOL    HW216086   0.453   2.026   6.137 -0.6562  1.2705  0.1427
 5231SOL     OW16087   3.195   6.658   0.621  0.1608 -0.1858  0.7038
 5231SOL    HW116088   3.238   6.737   0.590  1.0566  0.0535  2.4208
 5231SOL    HW216089   3.234   6.642   0.707 -2.8545 -0.2159  2.1846
 5232SOL     OW16090   6.789   6.863   6.234 -0.0784  0.7764  0.4099
 5232SOL    HW116091   6.882   6.842   6.236 -0.0600  0.8919  1.5910
 5232SOL    HW216092   6.782   6.942   6.180  0.4434  0.4777 -0.0921
 5233SOL     OW16093   2.609   1.157   1.358  0.1090 -0.2977  0.1158
 5233SOL    HW116094   2.566   1.167   1.442 -0.7463 -0.9700 -0.2218
 5233SOL    HW216095   2.564   1.219   1.300  1.1903  0.7038  0.3171
 5234SOL     OW16096   4.252   2.312   3.957  0.0596  0.3530  0.0267
 5234SOL    HW116097   4.331   2.258   3.961 -0.3923 -0.3223 -0.0188
 5234SOL    HW216098   4.206   2.282   3.879 -0.7066  0.0885  0.5634
 5235SOL     OW16099   1.031   3.351   5.456 -0.1275 -0.3169 -0.2977
 5235SOL    HW116100   1.047   3.328   5.364 -1.0805 -0.8198 -0.3574
 5235SOL    HW216101   0.945   3.312   5.475  0.0378 -0.1694  0.7913
 5236SOL     OW16102   5.451   3.524   2.199 -0.2804  0.0093 -0.0294
 5236SOL    HW116103   5.357   3.527   2.216 -1.0682 -0.0854 -3.5110
 5236SOL    HW216104   5.467   3.601   2.144  1.4862 -0.4617 -0.2186
 5237SOL     OW16105   2.706   4.154   3.592  0.1181 -0.2027  0.1432
 5237SOL    HW116106   2.712   4.122   3.682 -0.7336  1.0807  0.6960
 5237SOL    HW216107   2.677   4.078   3.541  1.0927 -1.0760  0.8477
 5238SOL     OW16108   1.129   1.773   0.281  0.1683  0.0111  0.2038
 5238SOL    HW116109   1.101   1.713   0.212  0.8858 -0.6823  0.4979
 5238SOL    HW216110   1.082   1.744   0.359  0.3713 -0.0470  0.3051
 5239SOL     OW16111   5.455   1.455   5.466 -0.0001 -0.3379  0.0491
 5239SOL    HW116112   5.487   1.411   5.545  2.9974  0.2754 -0.6847
 5239SOL    HW216113   5.467   1.390   5.396 -1.1901 -0.3429 -0.1729
 5240SOL     OW16114   5.086   2.364   1.983  0.0519  0.2222 -0.3319
 5240SOL    HW116115   5.081   2.274   2.014  0.1504 -0.1575 -1.3660
 5240SOL    HW216116   5.038   2.415   2.048  1.0159 -0.3956  0.9118
 5241SOL     OW16117   3.761   0.562   2.424 -0.3016 -0.0059 -0.5467
 5241SOL    HW116118   3.849   0.593   2.448 -1.5813  2.0774  1.8937
 5241SOL    HW216119   3.716   0.640   2.392 -1.5632 -0.8680 -0.9569
 5242SOL     OW16120   5.598   3.252   6.790 -0.1781  0.1322  0.1265
 5242SOL    HW116121   5.622   3.324   6.850 -1.7563 -1.2885  2.6612
 5242SOL    HW216122   5.682   3.216   6.762  0.6383  1.8253  0.2209
 5243SOL     OW16123   4.203   4.842   1.253  0.3263  0.0234 -0.0738
 5243SOL    HW116124   4.169   4.781   1.319 -2.6606  0.9658 -0.5838
 5243SOL    HW216125   4.233   4.786   1.182  1.5965 -0.9350  1.1638
 5244SOL     OW16126   0.130   1.349   4.095 -0.2214  0.2051  0.1478
 5244SOL    HW116127   0.165   1.342   4.184  2.9196  0.4818 -0.9423
 5244SOL    HW216128   0.112   1.442   4.084 -1.5466  0.0378  0.7810
 5245SOL     OW16129   1.848   0.995   0.439  0.2286 -0.1124  0.1891
 5245SOL    HW116130   1.936   0.992   0.477 -0.3022  1.9159  1.7184
 5245SOL    HW216131   1.789   0.992   0.514 -1.1049 -2.1141 -0.8411
 5246SOL     OW16132   2.473   5.664   4.041  0.0468  0.0410  0.2747
 5246SOL    HW116133   2.541   5.676   3.974  1.8764  0.3130  2.0736
 5246SOL    HW216134   2.392   5.690   3.998  1.1175  0.0412 -1.8734
 5247SOL     OW16135   6.619   0.760   5.480  0.1958 -0.4638 -0.0461
 5247SOL    HW116136   6.548   0.734   5.539  0.6091 -0.8833  0.2660
 5247SOL    HW216137   6.688   0.696   5.495  0.9026  0.3217  0.1351
 5248SOL     OW16138   5.494   0.387   3.109 -0.1560  0.1655 -0.6309
 5248SOL    HW116139   5.545   0.357   3.033 -0.0915  0.5598 -0.7449
 5248SOL    HW216140   5.415   0.425   3.071 -0.7061 -0.7555 -0.4364
 5249SOL     OW16141   5.093   3.079   1.696  0.3020 -0.0973 -0.7586
 5249SOL    HW116142   5.068   3.004   1.751  0.6237 -0.3142 -0.9100
 5249SOL    HW216143   5.085   3.154   1.754  0.3059 -0.2868 -0.5109
 5250SOL     OW16144   5.228   3.934   1.296 -0.0500  0.2282 -0.5551
 5250SOL    HW116145   5.201   4.016   1.255 -0.1040 -0.2512 -1.5257
 5250SOL    HW216146   5.312   3.955   1.337 -0.3164  0.8976 -0.3354
 5251SOL     OW16147   2.918   3.671   5.706  0.0314  0.5269  0.2361
 5251SOL    HW116148   2.956   3.664   5.794 -0.3226  0.3575  0.3771
 5251SOL    HW216149   2.828   3.699   5.721 -0.8568 -2.0209  0.0823
 5252SOL     OW16150   6.533   5.913   2.098  0.3192 -0.3828  0.0951
 5252SOL    HW116151   6.549   5.868   2.181  1.4574 -1.3454 -0.6253
 5252SOL    HW216152   6.619   5.941   2.068 -0.1914  0.8452 -0.2853
 5253SOL     OW16153   0.209   5.415   1.814 -0.0296 -0.1481 -0.2032
 5253SOL    HW116154   0.114   5.417   1.799  0.0228 -2.0452 -1.0468
 5253SOL    HW216155   0.223   5.340   1.872  0.9825 -0.0759 -0.3334
 5254SOL     OW16156   6.554   3.965   0.940 -0.6162 -0.4747 -0.4185
 5254SOL    HW116157   6.546   3.883   0.893 -0.2977 -0.8057  0.0959
 5254SOL    HW216158   6.593   4.026   0.877  1.5974 -1.4159 -0.0419
 5255SOL     OW16159   0.777   5.544   4.062 -0.5927 -0.4492  0.2623
 5255SOL    HW116160   0.825   5.627   4.054 -0.8259 -0.3360  0.0195
 5255SOL    HW216161   0.774   5.527   4.156 -0.0030 -0.5003  0.2728
 5256SOL     OW16162   0.463   1.988   3.668  0.3859 -0.0409 -0.5790
 5256SOL    HW116163   0.389   1.973   3.610 -0.2330  1.4642 -0.2205
 5256SOL    HW216164   0.500   2.071   3.639 -0.0537  0.8457  1.2438
 5257SOL     OW16165   6.165   2.187   3.957 -0.5564 -0.1317 -0.3882
 5257SOL    HW116166   6.203   2.229   3.880  1.1303  1.0056  0.9860
 5257SOL    HW216167   6.075   2.219   3.959 -1.3747 -1.9395 -3.0586
 5258SOL     OW16168   3.726   5.063   1.843  1.0695 -0.0714  0.0569
 5258SOL    HW116169   3.679   5.011   1.778  0.9812  0.8627 -0.6545
 5258SOL    HW216170   3.711   5.018   1.926  1.1721 -1.2774 -0.5632
 5259SOL     OW16171   2.488   5.450   0.958  0.0862  0.4888 -0.2677
 5259SOL    HW116172   2.546   5.436   1.033 -1.2965 -0.5911  0.6473
 5259SOL    HW216173   2.501   5.541   0.933  0.7708  0.7799  1.1090
 5260SOL     OW16174   0.560   5.006   5.332  0.6273 -0.2670  0.0496
 5260SOL    HW116175   0.620   5.013   5.406 -1.0721 -2.5165  1.7978
 5260SOL    HW216176   0.580   4.920   5.294 -0.4129 -0.3582 -0.3121
 5261SOL     OW16177   2.789   2.031   0.735 -0.0974  0.0338 -0.4683
 5261SOL    HW116178   2.859   2.091   0.709 -0.8364  0.0616 -2.5699
 5261SOL    HW216179   2.709   2.083   0.728 -0.7099 -1.0659 -1.9958
 5262SOL     OW16180   4.761   5.086   4.772  0.4025 -0.1636  0.1635
 5262SOL    HW116181   4.783   5.024   4.842  0.3952  0.2064  0.4999
 5262SOL    HW216182   4.707   5.036   4.712  3.3058 -1.5746 -1.4923
 5263SOL     OW16183   5.957   0.960   6.654 -0.6388 -0.5280  0.5626
 5263SOL    HW116184   5.933   0.872   6.681  2.5641 -1.7389 -0.0317
 5263SOL    HW216185   6.048   0.952   6.625 -1.2654  2.2779 -2.8541
 5264SOL     OW16186   4.600   1.372   0.564  0.0964 -0.4735 -0.8638
 5264SOL    HW116187   4.678   1.327   0.596 -1.7240 -2.5528  1.0625
 5264SOL    HW216188   4.567   1.315   0.494  0.3299  0.4267 -1.7173
 5265SOL     OW16189   0.267   2.689   4.979  0.6169 -0.1432 -0.0529
 5265SOL    HW116190   0.284   2.777   4.946  1.0272  0.1708  0.9332
 5265SOL    HW216191   0.353   2.647   4.979  0.5054 -0.3724 -0.0634
 5266SOL     OW16192   6.896   2.756   1.279  0.2690 -0.4550 -0.4993
 5266SOL    HW116193   6.829   2.728   1.216 -1.0402  2.0267 -0.3573
 5266SOL    HW216194   6.953   2.814   1.229  1.1629 -1.0050 -0.1360
 5267SOL     OW16195   0.800   4.385   2.596  0.1438  0.1116  0.0663
 5267SOL    HW116196   0.710   4.364   2.619 -0.2236  1.5120 -0.0196
 5267SOL    HW216197   0.796   4.414   2.505  0.9714 -1.5089 -0.5306
 5268SOL     OW16198   1.394   2.934   2.700 -0.1206  0.4112 -0.4072
 5268SOL    HW116199   1.343   2.863   2.739 -1.2785  1.9704  1.0186
 5268SOL    HW216200   1.467   2.947   2.760 -0.1176  0.6954 -0.4710
 5269SOL     OW16201   2.957   3.297   4.733 -0.1078 -0.0358 -0.3983
 5269SOL    HW116202   3.029   3.236   4.746  0.1658  0.1098 -1.1855
 5269SOL    HW216203   2.883   3.256   4.778  0.2322 -0.6273 -0.3676
 5270SOL     OW16204   1.592   6.833   0.505 -0.3016  0.2377 -0.1000
 5270SOL    HW116205   1.612   6.739   0.503  1.7195  0.6260 -0.1946
 5270SOL    HW216206   1.548   6.846   0.589  0.1221 -0.6715  0.2819
 5271SOL     OW16207   0.734   1.029   0.442 -0.2559  0.2197 -0.0132
 5271SOL    HW116208   0.646   1.049   0.410 -1.0153 -1.0710  1.1396
 5271SOL    HW216209   0.734   1.064   0.532 -0.1010 -1.0143  0.4790
 5272SOL     OW16210   4.528   2.782   3.857  0.2136  0.0896  0.3852
 5272SOL    HW116211   4.493   2.710   3.803 -0.2415  1.2351 -0.9157
 5272SOL    HW216212   4.598   2.819   3.803  1.5698 -0.3869  1.7573
 5273SOL     OW16213   2.856   3.933   5.404 -0.4174 -0.0595 -0.1408
 5273SOL    HW116214   2.881   3.841   5.394 -3.0062 -0.7562 -0.7812
 5273SOL    HW216215   2.924   3.969   5.462  1.8781 -1.7735 -1.5751
 5274SOL     OW16216   4.853   2.687   6.864  0.1099 -0.5549 -0.1020
 5274SOL    HW116217   4.808   2.771   6.857 -0.0015 -0.4967  1.0417
 5274SOL    HW216218   4.817   2.647   6.943  0.4609 -1.5034 -0.3975
 5275SOL     OW16219   1.306   6.407   2.996 -0.0904  0.4777 -0.1965
 5275SOL    HW116220   1.254   6.398   2.916 -0.4143  0.1540  0.0479
 5275SOL    HW216221   1.246   6.446   3.059  0.6726  2.4736 -0.6130
 5276SOL     OW16222   1.286   1.955   3.702  0.2008  0.2269 -0.1160
 5276SOL    HW116223   1.334   1.872   3.702 -0.3109 -0.0984 -1.4657
 5276SOL    HW216224   1.325   2.006   3.773  0.6352 -1.1005  0.6435
 5277SOL     OW16225   0.477   4.672   1.200 -1.4444 -0.3665 -0.1203
 5277SOL    HW116226   0.512   4.603   1.143 -0.8080 -0.3690  0.2617
 5277SOL    HW216227   0.512   4.753   1.163 -3.3625 -0.0796 -1.4390
 5278SOL     OW16228   0.032   2.381   6.494 -0.4784  0.6820 -0.0213
 5278SOL    HW116229   0.053   2.465   6.535  1.1131  0.3027 -0.0198
 5278SOL    HW216230   0.007   2.324   6.567  0.8424  0.4573  0.2776
 5279SOL     OW16231   0.867   4.299   3.210 -0.2701  0.4039 -0.5142
 5279SOL    HW116232   0.888   4.266   3.297  0.5058  2.2663  0.0685
 5279SOL    HW216233   0.791   4.248   3.182  0.8503 -1.7880  0.2620
 5280SOL     OW16234   3.103   0.945   0.981 -0.1753 -0.1771  1.1310
 5280SOL    HW116235   3.021   0.995   0.987 -0.5464 -0.8209  1.4661
 5280SOL    HW216236   3.078   0.863   0.939  0.6693  0.4238 -0.6150
 5281SOL     OW16237   6.038   1.884   4.959  0.2200  0.2497 -0.0978
 5281SOL    HW116238   6.111   1.842   5.005  0.3713  0.3796 -0.2162
 5281SOL    HW216239   6.034   1.972   4.998 -0.7506 -0.2012  0.8749
 5282SOL     OW16240   6.650   4.569   0.352  0.0899  0.5928  0.8222
 5282SOL    HW116241   6.586   4.592   0.420 -1.8644 -0.3372 -0.6174
 5282SOL    HW216242   6.622   4.619   0.275  0.9700  0.0213  0.1151
 5283SOL     OW16243   1.210   2.373   3.385  0.1377 -0.0516  0.2309
 5283SOL    HW116244   1.241   2.455   3.423 -0.2647  0.3494 -0.3055
 5283SOL    HW216245   1.117   2.386   3.369  0.2663 -0.2515 -0.7702
 5284SOL     OW16246   4.209   4.283   3.756  0.2193 -0.0636 -0.7923
 5284SOL    HW116247   4.130   4.231   3.772  1.5520 -2.2251 -0.8090
 5284SOL    HW216248   4.279   4.234   3.799  1.4787  2.2203 -0.0360
 5285SOL     OW16249   2.743   6.572   4.808  0.0289 -0.4197  1.3224
 5285SOL    HW116250   2.761   6.480   4.791 -1.5585 -0.5256 -0.0750
 5285SOL    HW216251   2.819   6.618   4.773 -0.3623 -1.0703 -0.4734
 5286SOL     OW16252   2.556   4.939   4.619 -0.7555 -0.5281  0.3465
 5286SOL    HW116253   2.618   4.980   4.679  0.2601 -1.0609 -0.2976
 5286SOL    HW216254   2.520   4.865   4.668 -0.2958 -0.6703  0.4733
 5287SOL     OW16255   6.537   6.210   5.496  0.1457 -0.1735 -0.5190
 5287SOL    HW116256   6.509   6.143   5.558  1.0689 -1.4258 -1.4092
 5287SOL    HW216257   6.494   6.290   5.527 -0.3363 -0.9863  1.0477
 5288SOL     OW16258   4.511   0.505   1.821 -0.2921 -0.1742  0.3538
 5288SOL    HW116259   4.515   0.551   1.737  1.0243 -0.3604  0.2904
 5288SOL    HW216260   4.542   0.569   1.885 -1.2050 -0.0634  0.6994
 5289SOL     OW16261   5.340   1.250   4.186 -0.2345 -0.1943 -0.2471
 5289SOL    HW116262   5.321   1.202   4.106  0.0622  0.3430 -0.6418
 5289SOL    HW216263   5.284   1.327   4.182 -0.8040 -0.5538  0.4462
 5290SOL     OW16264   2.659   5.664   4.266 -0.3068 -0.1051 -0.1172
 5290SOL    HW116265   2.604   5.706   4.200  0.8276  1.2399 -0.2753
 5290SOL    HW216266   2.672   5.575   4.234 -0.1017  0.4001 -1.5290
 5291SOL     OW16267   0.974   0.508   2.533 -0.2186 -0.3204 -0.3235
 5291SOL    HW116268   1.052   0.561   2.550 -1.0215  1.0184 -0.7181
 5291SOL    HW216269   0.948   0.475   2.620  0.5163 -0.4259 -0.1322
 5292SOL     OW16270   3.722   2.805   3.318 -0.3021  0.1206  0.1330
 5292SOL    HW116271   3.818   2.804   3.319 -0.2934 -0.3583 -0.4483
 5292SOL    HW216272   3.698   2.886   3.364  0.4024  0.7716 -0.6072
 5293SOL     OW16273   4.750   5.818   2.527 -0.4345 -0.3118 -0.0439
 5293SOL    HW116274   4.721   5.818   2.618  1.0150 -1.3267  0.4539
 5293SOL    HW216275   4.838   5.780   2.530  0.2817  1.0669 -1.6650
 5294SOL     OW16276   5.695   5.728   3.266  0.8306 -0.6209 -0.2020
 5294SOL    HW116277   5.617   5.734   3.321  1.7467 -1.1121  1.1997
 5294SOL    HW216278   5.666   5.759   3.180 -0.5961  0.3622  0.5932
 5295SOL     OW16279   4.464   1.080   1.177  0.3993 -0.1463  0.0780
 5295SOL    HW116280   4.405   1.139   1.224 -1.0186 -0.9116 -0.6824
 5295SOL    HW216281   4.469   1.002   1.231  2.6035  0.7504  1.2899
 5296SOL     OW16282   6.889   3.677   1.235 -0.2449 -1.2414 -0.2385
 5296SOL    HW116283   6.888   3.755   1.290 -0.6103 -1.8430  0.6359
 5296SOL    HW216284   6.797   3.654   1.224 -0.1108 -2.2141  0.5186
 5297SOL     OW16285   1.472   6.500   3.758  0.3680  0.5402  0.2137
 5297SOL    HW116286   1.478   6.585   3.714  0.8107 -0.7755 -2.5167
 5297SOL    HW216287   1.522   6.511   3.839  0.8007  2.7264 -0.2726
 5298SOL     OW16288   0.097   5.569   3.725  0.1611 -0.1270 -0.8228
 5298SOL    HW116289   0.041   5.557   3.802  1.4667 -0.0038  0.1841
 5298SOL    HW216290   0.160   5.497   3.730  0.1722 -0.2025 -1.8715
 5299SOL     OW16291   3.745   4.827   3.618 -0.0009  0.0615  0.2606
 5299SOL    HW116292   3.674   4.817   3.680  0.2057  2.0154  0.8842
 5299SOL    HW216293   3.760   4.739   3.583  0.3597 -1.2918  3.4683
 5300SOL     OW16294   3.136   5.794   1.713  0.1039 -0.0376 -0.5521
 5300SOL    HW116295   3.125   5.719   1.655 -0.1040 -0.7586  0.3745
 5300SOL    HW216296   3.209   5.770   1.770  0.6865  0.8993 -0.8795
 5301SOL     OW16297   5.358   1.750   6.656  0.6553  0.3730 -0.6259
 5301SOL    HW116298   5.338   1.806   6.581 -0.0678  0.8139 -0.1208
 5301SOL    HW216299   5.342   1.806   6.732  0.0051 -0.4800 -0.1097
 5302SOL     OW16300   4.031   5.589   2.818  0.4834 -0.5089 -0.0771
 5302SOL    HW116301   4.030   5.674   2.774  1.9606 -0.0657  0.6908
 5302SOL    HW216302   3.956   5.591   2.878 -0.0067 -0.1123 -0.6984
 5303SOL     OW16303   3.035   4.434   5.459  0.3020  0.4733  0.5614
 5303SOL    HW116304   2.992   4.440   5.544 -0.9556 -1.4733  0.1340
 5303SOL    HW216305   3.014   4.346   5.428  0.8755  1.0651 -1.6891
 5304SOL     OW16306   6.652   5.323   3.349 -0.1100  0.1860 -0.3209
 5304SOL    HW116307   6.707   5.286   3.418 -2.3240  0.1189  1.5197
 5304SOL    HW216308   6.638   5.414   3.376 -0.1984  0.4523 -1.2279
 5305SOL     OW16309   6.130   1.359   2.422  0.7411  0.6012  0.9586
 5305SOL    HW116310   6.177   1.374   2.504  0.2963  0.8812  1.1680
 5305SOL    HW216311   6.037   1.363   2.447  0.5604  2.6399  0.1138
 5306SOL     OW16312   2.585   6.106   3.380  0.1074  0.1227  0.1721
 5306SOL    HW116313   2.593   6.050   3.302  1.1205 -0.7564  0.8778
 5306SOL    HW216314   2.665   6.157   3.382  1.6201 -2.1089  2.2878
 5307SOL     OW16315   4.426   3.763   2.840  0.2829  0.0367  0.1244
 5307SOL    HW116316   4.413   3.748   2.934  0.9298  0.0028  0.2177
 5307SOL    HW216317   4.419   3.676   2.801 -0.4634  0.1140  0.0754
 5308SOL     OW16318   3.650   3.782   4.195 -0.1209 -0.0386  0.3164
 5308SOL    HW116319   3.586   3.776   4.265 -0.8145  0.4556 -0.2617
 5308SOL    HW216320   3.638   3.870   4.159  1.3511  0.3235  0.6431
 5309SOL     OW16321   6.918   3.176   5.577  0.1176  0.1276 -0.1470
 5309SOL    HW116322   6.823   3.167   5.566  0.1723  0.6071 -1.0867
 5309SOL    HW216323   6.948   3.212   5.494  1.1765 -0.3628  0.0181
 5310SOL     OW16324   0.091   4.638   5.099  0.5868 -0.3630 -0.6499
 5310SOL    HW116325   0.036   4.635   5.177  2.1638  0.7922  0.5466
 5310SOL    HW216326   0.070   4.556   5.053 -0.5305 -0.9692  0.8387
 5311SOL     OW16327   2.696   0.504   3.740  0.4968 -0.2245 -0.5563
 5311SOL    HW116328   2.622   0.563   3.753  0.3840 -0.7320  1.4207
 5311SOL    HW216329   2.741   0.538   3.663 -1.3602  0.5224 -1.3772
 5312SOL     OW16330   1.425   0.642   5.947  0.1741 -0.1367  0.0244
 5312SOL    HW116331   1.342   0.631   5.993  0.3585  1.4340  0.7673
 5312SOL    HW216332   1.405   0.699   5.873  0.6118  0.3797  0.2976
 5313SOL     OW16333   4.937   4.754   4.067 -0.4079  0.1696 -0.5669
 5313SOL    HW116334   5.024   4.731   4.037 -0.1393 -0.2072  0.4760
 5313SOL    HW216335   4.929   4.848   4.047  0.9155  0.6392  0.8824
 5314SOL     OW16336   6.124   4.260   1.754 -0.4183  0.0968 -0.4776
 5314SOL    HW116337   6.120   4.238   1.847 -2.6629 -1.2872 -0.8251
 5314SOL    HW216338   6.201   4.213   1.722 -0.4552 -0.6044  0.4228
 5315SOL     OW16339   6.218   3.310   4.653 -0.3026 -0.2499 -0.0066
 5315SOL    HW116340   6.260   3.255   4.719 -0.1970  0.0974  0.2125
 5315SOL    HW216341   6.151   3.254   4.615 -1.8078  0.2135  1.8489
 5316SOL     OW16342   4.381   3.890   3.765 -0.5460  0.0558  0.3685
 5316SOL    HW116343   4.399   3.965   3.821 -0.8573 -0.6948  1.5180
 5316SOL    HW216344   4.396   3.922   3.676  0.1726  1.2253  0.8837
 5317SOL     OW16345   1.982   5.770   1.167  0.6253 -0.6161  0.6402
 5317SOL    HW116346   1.962   5.680   1.140  0.3361 -0.5765  0.7212
 5317SOL    HW216347   2.037   5.804   1.097 -0.9378 -0.1738 -0.4135
 5318SOL     OW16348   3.999   5.458   5.652  0.5352 -0.2977 -0.0195
 5318SOL    HW116349   3.988   5.363   5.662  0.7729 -0.3773 -0.5136
 5318SOL    HW216350   3.954   5.479   5.570 -1.4500  0.3664  1.1629
 5319SOL     OW16351   0.676   4.946   5.581  0.7002  0.1423 -0.3985
 5319SOL    HW116352   0.727   4.866   5.564 -1.6101 -1.2504 -1.1642
 5319SOL    HW216353   0.591   4.914   5.610 -0.5086  2.3279 -1.3267
 5320SOL     OW16354   0.470   2.673   6.755 -0.0937 -0.5662 -0.0738
 5320SOL    HW116355   0.473   2.602   6.690 -1.2915 -1.3681  0.7131
 5320SOL    HW216356   0.410   2.737   6.718  1.6543  0.5258 -1.1991
 5321SOL     OW16357   5.087   5.190   2.323  0.5510  0.1796  0.0296
 5321SOL    HW116358   4.999   5.152   2.320  0.2913  0.7168  0.8630
 5321SOL    HW216359   5.145   5.117   2.297  0.0367 -0.7324  1.3459
 5322SOL     OW16360   1.580   6.477   3.015 -0.2951  0.1046 -0.0639
 5322SOL    HW116361   1.603   6.425   3.093  0.5834  0.5210 -0.0377
 5322SOL    HW216362   1.484   6.475   3.013 -0.3162 -0.2745  0.7812
 5323SOL     OW16363   0.200   5.000   1.535 -0.1471  0.0032  0.1781
 5323SOL    HW116364   0.150   4.963   1.463  0.9680 -1.2860  0.0218
 5323SOL    HW216365   0.161   4.960   1.613  0.8407 -1.3027  0.0315
 5324SOL     OW16366   3.411   1.051   5.630  0.2391 -0.6250  0.1200
 5324SOL    HW116367   3.419   1.130   5.683 -0.3807 -0.8931  0.6172
 5324SOL    HW216368   3.323   1.019   5.647 -0.1594 -0.4392 -1.4673
 5325SOL     OW16369   6.891   0.246   2.017  0.3851  0.2732 -0.0332
 5325SOL    HW116370   6.806   0.255   1.975  0.3293 -1.4970 -0.3588
 5325SOL    HW216371   6.878   0.182   2.086  1.4850 -0.1678 -0.2128
 5326SOL     OW16372   2.122   6.122   3.446  0.4638  0.4636 -0.7526
 5326SOL    HW116373   2.195   6.181   3.464  0.5493  0.4281 -0.9704
 5326SOL    HW216374   2.069   6.168   3.382 -0.4592  1.0811  0.4212
 5327SOL     OW16375   1.855   2.622   3.867 -0.2548 -0.2443  0.6399
 5327SOL    HW116376   1.923   2.589   3.809 -0.2628  0.2515  0.3465
 5327SOL    HW216377   1.836   2.549   3.926 -0.4596 -0.8455 -0.1627
 5328SOL     OW16378   6.400   3.394   0.674  0.4061 -0.0398 -0.1551
 5328SOL    HW116379   6.342   3.335   0.722 -1.6280  0.3666 -1.9744
 5328SOL    HW216380   6.380   3.481   0.709  0.5277  0.0189 -0.2304
 5329SOL     OW16381   1.362   1.795   1.377 -0.5732 -0.4480  0.5866
 5329SOL    HW116382   1.328   1.870   1.426  0.9704 -0.2497  1.4295
 5329SOL    HW216383   1.371   1.826   1.287 -1.4073 -0.1245  0.6096
 5330SOL     OW16384   3.449   6.547   2.400  0.3967  0.2572  0.2910
 5330SOL    HW116385   3.366   6.594   2.398 -0.1462 -0.6923 -0.8020
 5330SOL    HW216386   3.433   6.467   2.350  1.8602 -0.1410  0.3948
 5331SOL     OW16387   6.268   0.310   4.840 -0.7498  0.0398  0.5861
 5331SOL    HW116388   6.328   0.357   4.782  1.4371 -0.9177  1.9366
 5331SOL    HW216389   6.202   0.375   4.864  0.3919  1.4924 -0.0551
 5332SOL     OW16390   3.006   6.842   0.243  0.6195  0.0489 -0.4962
 5332SOL    HW116391   3.030   6.759   0.202 -3.2928 -0.7796 -1.5386
 5332SOL    HW216392   2.997   6.821   0.336 -0.6979 -0.8447 -0.8035
 5333SOL     OW16393   2.749   3.265   6.235  0.4466 -0.2657  0.2023
 5333SOL    HW116394   2.684   3.277   6.167  0.0556  0.5565  0.7096
 5333SOL    HW216395   2.714   3.195   6.290 -0.9660  1.4354  1.5615
 5334SOL     OW16396   3.576   0.976   1.989  0.0293 -0.2756 -0.4655
 5334SOL    HW116397   3.591   0.883   2.004  1.4587  0.1259  0.9436
 5334SOL    HW216398   3.516   1.002   2.060  1.3119  0.2608  0.4654
 5335SOL     OW16399   4.242   4.511   5.330 -0.3648 -0.7348 -0.0374
 5335SOL    HW116400   4.291   4.580   5.375  0.4280 -1.6981  0.6250
 5335SOL    HW216401   4.152   4.544   5.325  0.1040  0.5650 -0.2209
 5336SOL     OW16402   6.011   6.907   3.682 -0.5497 -0.0277  0.1298
 5336SOL    HW116403   5.923   6.945   3.685 -1.6279 -2.1108 -1.7686
 5336SOL    HW216404   6.006   6.829   3.737  0.1584 -0.1027  0.0991
 5337SOL     OW16405   1.123   5.403   3.152  0.2469  0.1937  0.3224
 5337SOL    HW116406   1.170   5.467   3.204 -0.5093 -0.1687  1.4841
 5337SOL    HW216407   1.087   5.341   3.215 -2.4165  0.8769 -0.3919
 5338SOL     OW16408   2.572   1.199   4.690  0.2047 -0.4276  0.3383
 5338SOL    HW116409   2.591   1.192   4.596 -0.6686  2.1648 -0.1144
 5338SOL    HW216410   2.652   1.167   4.733  0.4802 -2.0302 -1.2465
 5339SOL     OW16411   0.377   3.508   0.312 -0.3146 -0.3816  0.1511
 5339SOL    HW116412   0.363   3.595   0.350 -1.1575 -0.0423 -0.9016
 5339SOL    HW216413   0.304   3.495   0.252 -0.0345 -1.7007  0.0556
 5340SOL     OW16414   0.648   0.805   5.567  0.1897  0.1748  0.1788
 5340SOL    HW116415   0.720   0.765   5.519  1.6072  0.4605  1.9661
 5340SOL    HW216416   0.588   0.836   5.499  2.1116  0.6313 -1.3999
 5341SOL     OW16417   3.677   1.704   2.631 -0.0054 -0.3201  0.0412
 5341SOL    HW116418   3.625   1.631   2.598  1.6388 -1.9780  0.8696
 5341SOL    HW216419   3.714   1.745   2.552 -1.2333 -0.1305 -0.4518
 5342SOL     OW16420   2.351   2.109   0.382 -0.2133 -0.1389  0.7954
 5342SOL    HW116421   2.296   2.092   0.305 -0.2269 -0.3618  0.8543
 5342SOL    HW216422   2.314   2.054   0.451 -0.2234  0.0880  0.9737
 5343SOL     OW16423   6.470   6.666   1.211 -0.2531  0.4383 -0.0113
 5343SOL    HW116424   6.549   6.710   1.179 -1.1239  1.2967 -1.0530
 5343SOL    HW216425   6.406   6.737   1.219 -0.9801 -0.2782  0.6351
 5344SOL     OW16426   3.312   2.027   4.976  0.3927  0.1365 -0.2740
 5344SOL    HW116427   3.299   2.101   4.917  0.8724  1.3151  1.0334
 5344SOL    HW216428   3.238   1.969   4.959  0.9857 -0.0109 -2.6283
 5345SOL     OW16429   2.167   5.936   4.204  0.5711  0.0744  0.1484
 5345SOL    HW116430   2.166   6.024   4.164  1.2167  0.5107  1.0783
 5345SOL    HW216431   2.117   5.946   4.285  1.8119 -0.0700  0.9563
 5346SOL     OW16432   0.378   4.903   6.636 -0.5382  0.4790 -0.1528
 5346SOL    HW116433   0.399   4.970   6.571 -0.7664 -0.7009 -1.5094
 5346SOL    HW216434   0.460   4.855   6.649 -0.2362  1.2907  1.2124
 5347SOL     OW16435   6.431   5.228   0.189 -0.4871  0.0325  0.0549
 5347SOL    HW116436   6.482   5.309   0.195  2.1429 -1.5637  0.8871
 5347SOL    HW216437   6.436   5.203   0.097 -2.3067  1.2960 -0.4668
 5348SOL     OW16438   4.703   5.458   2.240  0.4617  0.7254  0.5547
 5348SOL    HW116439   4.651   5.418   2.170  1.9487 -0.6373  0.1803
 5348SOL    HW216440   4.654   5.538   2.263 -1.3956 -0.1090 -0.2541
 5349SOL     OW16441   3.946   4.615   4.328 -0.3522 -0.2935  0.4082
 5349SOL    HW116442   3.988   4.565   4.397 -2.4262 -2.2949  0.3655
 5349SOL    HW216443   3.977   4.574   4.247 -1.7090 -1.3332  0.3629
 5350SOL     OW16444   3.092   1.833   2.927 -0.1030  0.4397  0.1138
 5350SOL    HW116445   3.060   1.743   2.940  2.1517 -0.4945 -0.2411
 5350SOL    HW216446   3.136   1.829   2.842  1.2475  1.4913  0.7332
 5351SOL     OW16447   2.030   3.813   5.350 -0.4020 -0.3812 -0.4595
 5351SOL    HW116448   2.107   3.866   5.332 -0.9419  0.3365 -0.7071
 5351SOL    HW216449   1.972   3.871   5.400 -1.0995 -0.6520 -0.9353
 5352SOL     OW16450   6.082   1.074   0.033  0.0092  0.1203 -0.6005
 5352SOL    HW116451   6.089   0.981   0.013  0.0800 -0.2397  0.9426
 5352SOL    HW216452   6.172   1.105   0.039  0.0949 -0.3982  1.6581
 5353SOL     OW16453   6.016   6.010   1.079  0.2008 -0.1310 -0.4957
 5353SOL    HW116454   6.097   6.060   1.066 -0.2008  0.7968  0.4277
 5353SOL    HW216455   6.031   5.961   1.159 -0.4307  0.6782  0.1400
 5354SOL     OW16456   5.947   1.291   5.310 -0.3469 -0.0548  0.1635
 5354SOL    HW116457   5.966   1.365   5.253 -0.6395 -0.2054 -0.1355
 5354SOL    HW216458   5.980   1.317   5.396 -0.3069  0.3561  0.0239
 5355SOL     OW16459   2.462   0.031   2.941 -0.2056  0.5154  0.1658
 5355SOL    HW116460   2.448   0.061   3.031  0.3841 -0.4685  0.5998
 5355SOL    HW216461   2.395   0.076   2.890 -1.8372 -0.4397  1.3998
 5356SOL     OW16462   6.259   4.321   2.128  0.6520  0.8192  0.1320
 5356SOL    HW116463   6.233   4.413   2.135 -1.2414  0.3767 -0.4076
 5356SOL    HW216464   6.310   4.317   2.047 -1.0306  1.0718 -0.9967
 5357SOL     OW16465   4.094   4.245   6.738 -0.1740 -0.1641 -0.2619
 5357SOL    HW116466   4.170   4.214   6.787  0.4793  0.7558 -0.6750
 5357SOL    HW216467   4.128   4.264   6.651 -0.7717  0.7461 -0.3068
 5358SOL     OW16468   0.809   2.293   4.882 -0.3479 -0.0031  0.2253
 5358SOL    HW116469   0.852   2.239   4.949  0.9206  0.0116 -0.5574
 5358SOL    HW216470   0.724   2.314   4.920 -0.0717 -0.8842  1.3895
 5359SOL     OW16471   1.552   3.166   1.855 -0.6528 -0.4510 -0.0957
 5359SOL    HW116472   1.465   3.174   1.816  0.0699  2.8811 -1.3486
 5359SOL    HW216473   1.609   3.141   1.783 -0.0638  0.9237 -0.1374
 5360SOL     OW16474   1.641   1.413   0.237  0.1685 -0.1356 -0.3357
 5360SOL    HW116475   1.724   1.430   0.193  0.5148 -0.9570  0.0026
 5360SOL    HW216476   1.575   1.452   0.178  0.8309  1.2815 -0.1943
 5361SOL     OW16477   3.562   3.809   6.494 -0.1061  0.3042 -0.0380
 5361SOL    HW116478   3.502   3.883   6.506  0.6218  0.5756  2.6708
 5361SOL    HW216479   3.506   3.732   6.495 -0.5022  0.4096  4.3033
 5362SOL     OW16480   6.114   6.719   1.446 -0.2802  0.5834 -0.3545
 5362SOL    HW116481   6.128   6.625   1.430  0.2526  0.8001 -1.2051
 5362SOL    HW216482   6.056   6.721   1.522  0.7555 -0.4189  0.5111
 5363SOL     OW16483   6.080   2.713   5.878 -0.3741 -0.2647  0.2850
 5363SOL    HW116484   6.148   2.729   5.944  0.3224  1.0568 -0.7028
 5363SOL    HW216485   6.113   2.638   5.827  0.6066  0.6360 -0.4622
 5364SOL     OW16486   1.478   6.619   4.551 -0.1918  0.1529 -0.3947
 5364SOL    HW116487   1.489   6.696   4.607  0.8729  0.0477 -0.4405
 5364SOL    HW216488   1.385   6.619   4.528 -0.4051  0.8574  0.4191
 5365SOL     OW16489   2.480   0.008   1.245  0.3077 -0.1513 -0.4251
 5365SOL    HW116490   2.486  -0.078   1.286 -0.4195 -0.0582 -0.0954
 5365SOL    HW216491   2.555   0.056   1.279  0.3689 -0.4599 -0.1163
 5366SOL     OW16492   0.436   3.915   6.799  0.0795  0.3650 -0.0028
 5366SOL    HW116493   0.425   3.825   6.831 -2.0512  0.2923 -0.7810
 5366SOL    HW216494   0.442   3.968   6.879  0.7512 -0.3962  0.4656
 5367SOL     OW16495   4.698   6.011   5.766 -0.2368  0.0478 -0.5031
 5367SOL    HW116496   4.770   5.950   5.783  0.7183  0.8183 -1.6994
 5367SOL    HW216497   4.695   6.019   5.671 -2.3501 -0.4671 -0.5169
 5368SOL     OW16498   3.005   5.018   3.891  0.4762  0.1032  0.1664
 5368SOL    HW116499   3.079   5.062   3.932 -0.4153 -0.9397  3.0998
 5368SOL    HW216500   3.043   4.940   3.850  1.4929  1.5636 -1.9034
 5369SOL     OW16501   4.390   4.149   5.133 -0.2025  0.0750 -0.3060
 5369SOL    HW116502   4.316   4.134   5.192  2.1013 -0.7188  2.6420
 5369SOL    HW216503   4.408   4.242   5.140  0.2813 -0.0772  0.5829
 5370SOL     OW16504   3.087   6.909   6.245 -0.0281 -0.3410  0.6049
 5370SOL    HW116505   3.006   6.858   6.237  0.3594 -1.0749  1.2457
 5370SOL    HW216506   3.153   6.854   6.203  0.5114 -0.6378  1.8233
 5371SOL     OW16507   3.577   6.922   5.879 -0.2528 -0.7150  0.1653
 5371SOL    HW116508   3.510   6.916   5.811  0.4959  0.5275 -0.7278
 5371SOL    HW216509   3.626   6.840   5.872 -0.2925 -0.6727 -0.6741
 5372SOL     OW16510   4.395   0.858   6.366 -0.4920 -0.7456 -0.1532
 5372SOL    HW116511   4.382   0.844   6.272 -0.8701  0.5660 -0.3125
 5372SOL    HW216512   4.317   0.821   6.406 -0.9788 -0.0888 -0.4753
 5373SOL     OW16513   2.254   0.578   4.669 -0.6215  0.0401 -0.3831
 5373SOL    HW116514   2.328   0.627   4.705 -0.1893 -0.2244 -0.9005
 5373SOL    HW216515   2.276   0.564   4.577 -0.4817 -1.5917 -0.1317
 5374SOL     OW16516   6.427   3.044   4.292 -0.5969  0.0982  0.5285
 5374SOL    HW116517   6.499   3.018   4.235 -1.5680 -1.2898 -0.1166
 5374SOL    HW216518   6.461   3.032   4.381  0.2575  0.3349  0.2432
 5375SOL     OW16519   3.373   3.342   4.848  0.2884  0.1762  0.1390
 5375SOL    HW116520   3.398   3.408   4.784 -1.4861 -0.3662 -1.2103
 5375SOL    HW216521   3.339   3.392   4.922  0.6304  0.7913 -0.1087
 5376SOL     OW16522   5.901   2.256   1.416  0.7852  0.2627  0.3322
 5376SOL    HW116523   5.818   2.208   1.424 -0.5574  2.6378  1.9267
 5376SOL    HW216524   5.957   2.218   1.483 -0.3597  1.0186  1.7760
 5377SOL     OW16525   1.279   1.865   6.939  0.0282 -0.2687 -0.1505
 5377SOL    HW116526   1.278   1.892   6.847 -1.0025  1.0581  0.2202
 5377SOL    HW216527   1.227   1.784   6.941  2.3439 -1.9103 -1.1243
 5378SOL     OW16528   5.284   1.896   2.757  0.3048 -0.1754 -0.1949
 5378SOL    HW116529   5.300   1.939   2.673 -0.1915  0.5430  0.0710
 5378SOL    HW216530   5.363   1.843   2.773  0.5316 -0.0723 -0.9578
 5379SOL     OW16531   6.325   0.487   3.134 -0.2410  0.1451 -0.5437
 5379SOL    HW116532   6.352   0.560   3.191  0.2043  0.7425 -1.4945
 5379SOL    HW216533   6.278   0.428   3.192  3.0241 -0.9304  1.2720
 5380SOL     OW16534   1.336   2.653   4.146 -0.0776  0.0551  0.4329
 5380SOL    HW116535   1.272   2.724   4.150 -1.7543 -0.9195 -3.7406
 5380SOL    HW216536   1.284   2.573   4.146  1.1849 -0.8459 -1.3742
 5381SOL     OW16537   2.041   1.417   2.335  0.4070  0.6156 -0.3182
 5381SOL    HW116538   2.127   1.454   2.315  0.4303 -0.1093 -1.7191
 5381SOL    HW216539   2.011   1.381   2.251  0.3297 -2.3374  0.8472
 5382SOL     OW16540   4.095   3.319   1.531 -0.7733  0.0174  0.6653
 5382SOL    HW116541   4.016   3.361   1.496 -0.0692 -0.1630 -1.2443
 5382SOL    HW216542   4.085   3.227   1.506 -0.3567 -0.1759  1.1983
 5383SOL     OW16543   0.758   5.555   3.015 -0.0218 -0.3772 -0.5260
 5383SOL    HW116544   0.819   5.514   2.954 -0.3868 -1.7194 -0.0450
 5383SOL    HW216545   0.812   5.610   3.071  0.1200  2.2379 -3.0615
 5384SOL     OW16546   4.057   4.867   4.861  0.0350  0.3680  0.0444
 5384SOL    HW116547   4.102   4.795   4.905 -0.7581 -0.0009  0.2732
 5384SOL    HW216548   4.095   4.946   4.899 -0.1072  0.0575  0.8513
 5385SOL     OW16549   0.017   6.395   2.072  0.4422 -0.1551 -0.0727
 5385SOL    HW116550   0.076   6.469   2.085  0.3660 -0.2448  0.8686
 5385SOL    HW216551   0.060   6.340   2.006  1.6696 -0.4748  0.9529
 5386SOL     OW16552   6.021   0.118   6.553  0.1914 -0.8192 -0.5509
 5386SOL    HW116553   5.926   0.106   6.557  0.3508 -2.0504 -0.1472
 5386SOL    HW216554   6.038   0.192   6.611 -0.5067 -0.6982 -0.4950
 5387SOL     OW16555   4.879   2.651   1.947  0.2356 -0.0147  0.1135
 5387SOL    HW116556   4.900   2.639   2.039  1.4819 -3.7962 -0.4694
 5387SOL    HW216557   4.786   2.631   1.940 -0.0542  1.0890  0.6066
 5388SOL     OW16558   3.923   3.283   0.323  0.4739  0.9221  0.3034
 5388SOL    HW116559   3.906   3.250   0.411  0.5017  0.4253  0.1276
 5388SOL    HW216560   3.837   3.287   0.281  0.5329  0.4890  0.1293
 5389SOL     OW16561   0.577   5.899   1.859 -0.0564  0.3739 -0.5743
 5389SOL    HW116562   0.540   5.887   1.771 -0.7663 -0.3070 -0.1884
 5389SOL    HW216563   0.522   5.966   1.899 -0.1092  0.2411 -0.4264
 5390SOL     OW16564   0.976   2.558   2.960 -0.0271 -0.6058  0.2210
 5390SOL    HW116565   1.057   2.508   2.954  1.0401  1.1072 -0.3440
 5390SOL    HW216566   0.999   2.645   2.928 -1.9905  0.0554  0.4687
 5391SOL     OW16567   6.815   1.381   1.931 -0.2329  0.8819 -0.1107
 5391SOL    HW116568   6.770   1.456   1.892  0.4791  0.6632 -1.4344
 5391SOL    HW216569   6.832   1.408   2.021  1.4473  3.0253 -0.9593
 5392SOL     OW16570   2.264   0.415   1.743 -0.1492 -0.0952  0.1552
 5392SOL    HW116571   2.270   0.508   1.721  1.2638  0.1774  1.4793
 5392SOL    HW216572   2.328   0.403   1.814 -0.6475 -1.9780  0.3469
 5393SOL     OW16573   4.976   6.090   6.381 -0.4608  0.7127  0.2176
 5393SOL    HW116574   4.982   6.038   6.301 -1.3717 -0.6570  1.0072
 5393SOL    HW216575   5.067   6.110   6.403  0.0194 -1.4503  0.4295
 5394SOL     OW16576   0.973   5.372   1.859 -0.3907 -0.2796  0.8444
 5394SOL    HW116577   1.044   5.387   1.921 -1.3035  0.0817  1.8331
 5394SOL    HW216578   0.957   5.277   1.863  0.8465 -0.5698 -0.3285
 5395SOL     OW16579   6.006   2.492   1.396  0.2474  0.4717  0.4363
 5395SOL    HW116580   5.958   2.410   1.400 -1.0769  1.1987  0.3189
 5395SOL    HW216581   6.079   2.481   1.456  0.3578 -0.9363  0.0799
 5396SOL     OW16582   5.998   5.647   1.247  0.3860 -0.8068  0.4449
 5396SOL    HW116583   6.036   5.566   1.281  2.4126  0.5083  1.5204
 5396SOL    HW216584   6.057   5.716   1.277 -0.9185  1.0336 -0.9590
 5397SOL     OW16585   4.113   3.473   5.408 -0.3776  0.5959 -0.1631
 5397SOL    HW116586   4.046   3.539   5.388 -2.2262 -1.1036  0.0022
 5397SOL    HW216587   4.082   3.432   5.490  0.8027 -0.3367 -0.1528
 5398SOL     OW16588   2.539   0.654   6.011 -0.1376 -0.2898  0.9131
 5398SOL    HW116589   2.631   0.654   6.037 -0.1339 -0.9928  0.9329
 5398SOL    HW216590   2.520   0.744   5.986  0.9111 -0.3786 -0.3145
 5399SOL     OW16591   5.088   4.051   5.492 -0.2327 -0.0533  0.1614
 5399SOL    HW116592   5.024   4.001   5.544 -0.0523 -0.8977 -0.4080
 5399SOL    HW216593   5.039   4.125   5.457 -0.7238 -0.3039  0.3177
 5400SOL     OW16594   2.375   1.654   3.360  0.3485  0.2345 -0.0018
 5400SOL    HW116595   2.349   1.670   3.270 -0.1281  1.0247  0.2730
 5400SOL    HW216596   2.468   1.678   3.364  0.6976 -0.9527 -0.5623
 5401SOL     OW16597   3.995   5.249   4.065 -0.0868  0.2548  0.0790
 5401SOL    HW116598   4.049   5.182   4.022 -1.0654  0.7166 -2.0358
 5401SOL    HW216599   4.023   5.331   4.025 -0.1528  0.9057  1.3267
 5402SOL     OW16600   0.037   5.909   0.631  0.2090  0.1141  0.3220
 5402SOL    HW116601   0.053   5.944   0.543  3.5866 -4.6291 -1.3788
 5402SOL    HW216602  -0.012   5.828   0.615  1.4221 -1.1742  2.6972
 5403SOL     OW16603   1.072   4.530   1.156  0.0863 -0.2960  0.3827
 5403SOL    HW116604   1.168   4.532   1.166  0.3484 -1.1726 -1.5062
 5403SOL    HW216605   1.057   4.559   1.066 -1.4440 -0.2565  0.6292
 5404SOL     OW16606   0.419   4.426   3.224 -0.4688 -0.0715  0.6002
 5404SOL    HW116607   0.500   4.458   3.264 -0.8030  0.5425  0.7916
 5404SOL    HW216608   0.383   4.502   3.178  0.4556 -0.9982 -1.8299
 5405SOL     OW16609   1.087   3.854   4.221  0.3343 -0.0638 -0.2654
 5405SOL    HW116610   1.004   3.844   4.174 -0.0736  1.4055  0.1127
 5405SOL    HW216611   1.064   3.844   4.314  0.4351  1.1284 -0.1028
 5406SOL     OW16612   6.606   0.228   5.804 -0.4960 -0.1389 -0.0596
 5406SOL    HW116613   6.563   0.295   5.751 -0.1071  0.4865  0.3987
 5406SOL    HW216614   6.699   0.237   5.784 -0.4863 -0.9037 -0.3915
 5407SOL     OW16615   2.680   3.788   5.732 -0.2478  0.1118 -0.1852
 5407SOL    HW116616   2.662   3.845   5.658 -0.5457  0.9232  0.4956
 5407SOL    HW216617   2.619   3.816   5.800 -0.1886 -0.8173  0.2752
 5408SOL     OW16618   2.785   2.904   4.779  0.0542 -0.1593 -0.4643
 5408SOL    HW116619   2.711   2.905   4.839  0.2631 -1.6774 -0.1482
 5408SOL    HW216620   2.821   2.993   4.784  0.0186 -0.2062  1.6047
 5409SOL     OW16621   4.837   4.201   0.965 -0.3633 -0.5673  0.1284
 5409SOL    HW116622   4.855   4.161   0.880  2.0387 -1.3501  0.9245
 5409SOL    HW216623   4.893   4.153   1.026  1.4237  2.8464  1.4467
 5410SOL     OW16624   4.189   4.628   3.566  0.7952  0.4591 -0.2058
 5410SOL    HW116625   4.111   4.574   3.550  0.8321 -0.5694  2.4229
 5410SOL    HW216626   4.225   4.646   3.480 -2.0263  0.4722 -1.4739
 5411SOL     OW16627   2.907   0.171   3.170  0.1970 -0.0192 -0.0193
 5411SOL    HW116628   2.993   0.145   3.203 -0.9485 -1.8040  1.8441
 5411SOL    HW216629   2.898   0.125   3.087  0.6112 -0.7279  0.3170
 5412SOL     OW16630   0.013   0.553   2.545  0.2404  0.3437  0.4489
 5412SOL    HW116631   0.106   0.543   2.567 -0.2864 -1.9321  1.9050
 5412SOL    HW216632   0.001   0.648   2.539  2.5480  0.7188  0.6537
 5413SOL     OW16633   5.162   6.457   0.987 -0.2477 -0.9367 -0.5906
 5413SOL    HW116634   5.091   6.437   0.926 -1.7495 -2.5761  1.5393
 5413SOL    HW216635   5.119   6.494   1.064  1.0347 -2.6163  1.0487
 5414SOL     OW16636   0.467   1.347   0.627  0.3107 -0.6207 -0.6487
 5414SOL    HW116637   0.537   1.288   0.654  2.1350  0.0698 -3.4208
 5414SOL    HW216638   0.426   1.304   0.552  0.2278  0.6260 -1.3500
 5415SOL     OW16639   3.020   2.752   0.084 -0.2739  0.2261  0.1762
 5415SOL    HW116640   2.966   2.770   0.007  1.7098  0.2289 -1.2961
 5415SOL    HW216641   3.048   2.839   0.114  0.1751  0.1570 -0.0344
 5416SOL     OW16642   2.820   5.986   1.008  0.2478  0.2499  0.6748
 5416SOL    HW116643   2.865   6.025   1.083 -0.2801  0.4682  0.8819
 5416SOL    HW216644   2.738   5.952   1.044  1.7459 -3.4502  1.0990
 5417SOL     OW16645   1.692   2.665   2.940 -0.0826 -0.8095 -0.3363
 5417SOL    HW116646   1.600   2.690   2.948 -0.8754 -3.3075 -0.9443
 5417SOL    HW216647   1.712   2.618   3.021  0.1290 -1.7874 -0.9430
 5418SOL     OW16648   6.274   5.381   0.818  0.1031 -0.0928  0.1136
 5418SOL    HW116649   6.320   5.464   0.807 -1.0948  0.8565  1.8940
 5418SOL    HW216650   6.289   5.357   0.909 -1.3921 -0.6907  0.2340
 5419SOL     OW16651   0.018   6.154   2.276 -0.0000  0.2315  0.4061
 5419SOL    HW116652   0.061   6.098   2.212 -0.9611  1.0609 -1.0313
 5419SOL    HW216653   0.063   6.136   2.359  3.6477  1.6166 -1.0862
 5420SOL     OW16654   0.161   2.079   5.723 -0.3709 -0.0876 -0.2674
 5420SOL    HW116655   0.094   2.136   5.684 -0.5677  0.6682  1.1342
 5420SOL    HW216656   0.242   2.128   5.715 -0.5182  0.3605  0.8186
 5421SOL     OW16657   4.221   4.364   0.296  0.5357  0.0095  0.2016
 5421SOL    HW116658   4.314   4.382   0.296  0.2828  2.2534  3.9153
 5421SOL    HW216659   4.191   4.390   0.383 -3.8697  0.9911 -1.3459
 5422SOL     OW16660   1.617   1.567   2.361  0.5919  0.1441 -0.1161
 5422SOL    HW116661   1.522   1.566   2.370  0.7297 -1.1158  1.7647
 5422SOL    HW216662   1.635   1.497   2.298  0.2993  0.1812 -0.2454
 5423SOL     OW16663   5.438   5.731   6.656  0.3646  0.3077 -0.1021
 5423SOL    HW116664   5.501   5.781   6.707  0.9511 -1.3707  0.8973
 5423SOL    HW216665   5.405   5.793   6.591  3.3219  1.1688 -0.9362
 5424SOL     OW16666   5.206   1.720   4.281  0.6617  0.3679  0.3799
 5424SOL    HW116667   5.137   1.663   4.315  0.8975  1.1360  2.2679
 5424SOL    HW216668   5.173   1.750   4.196 -0.6410 -0.4741  0.5622
 5425SOL     OW16669   3.220   3.764   3.070 -0.7332  0.0065 -0.2015
 5425SOL    HW116670   3.220   3.781   3.164 -0.2882 -2.0799  0.2105
 5425SOL    HW216671   3.127   3.765   3.046 -0.9346 -0.6562  0.5084
 5426SOL     OW16672   5.587   6.121   2.530  0.1049 -0.1209 -0.6727
 5426SOL    HW116673   5.639   6.173   2.468  0.8572  0.0623  0.0893
 5426SOL    HW216674   5.571   6.038   2.486 -3.7568  1.6921 -3.2463
 5427SOL     OW16675   4.965   2.888   4.639  0.3948 -0.6962  0.1240
 5427SOL    HW116676   4.930   2.861   4.725 -0.1111 -0.8638 -0.1291
 5427SOL    HW216677   4.894   2.869   4.578  0.3915  0.3144 -0.2051
 5428SOL     OW16678   1.856   4.629   6.733 -0.3601  0.2887  0.0595
 5428SOL    HW116679   1.825   4.549   6.775  2.0779 -0.4449  0.6433
 5428SOL    HW216680   1.920   4.599   6.668 -0.7692  1.6692 -1.0271
 5429SOL     OW16681   1.380   6.106   6.808  0.6473  0.4966  0.3337
 5429SOL    HW116682   1.447   6.039   6.819  0.4887  0.2866  0.0329
 5429SOL    HW216683   1.392   6.164   6.883  1.4270  0.6969  0.0599
 5430SOL     OW16684   5.834   2.273   1.809  0.0865  0.3011 -0.5733
 5430SOL    HW116685   5.810   2.365   1.818 -1.7898 -0.2569  0.7919
 5430SOL    HW216686   5.752   2.226   1.822  1.1200 -1.6079 -0.6303
 5431SOL     OW16687   3.288   6.586   1.411  0.4403 -0.2991  1.4148
 5431SOL    HW116688   3.333   6.503   1.426 -2.0987 -2.1829 -0.4143
 5431SOL    HW216689   3.201   6.574   1.449  0.0163  1.5422  1.1419
 5432SOL     OW16690   2.410   4.003   1.656 -0.2472  0.5491 -0.0362
 5432SOL    HW116691   2.332   4.018   1.708 -0.6689 -2.0531  0.2133
 5432SOL    HW216692   2.430   4.088   1.618 -1.9631  1.7430  1.5554
 5433SOL     OW16693   6.549   6.786   6.314  0.0542 -0.6024 -0.1813
 5433SOL    HW116694   6.630   6.830   6.291 -0.6013  0.2584 -0.8982
 5433SOL    HW216695   6.504   6.771   6.231 -1.4832  0.8575  0.3217
 5434SOL     OW16696   3.563   3.203   4.417  0.0147  0.2835 -0.5191
 5434SOL    HW116697   3.622   3.180   4.345  0.7977 -0.1458  0.2346
 5434SOL    HW216698   3.543   3.296   4.403  1.4546  0.6426 -0.4075
 5435SOL     OW16699   3.711   4.845   2.184  0.1808 -0.2372  0.1341
 5435SOL    HW116700   3.767   4.806   2.252 -0.2874 -2.2887 -0.5927
 5435SOL    HW216701   3.701   4.776   2.119 -2.8744  0.1508  0.0325
 5436SOL     OW16702   2.480   3.293   5.773 -0.1131 -0.0563  0.0851
 5436SOL    HW116703   2.461   3.387   5.778  0.2025 -0.0279  0.8666
 5436SOL    HW216704   2.394   3.253   5.762 -0.2402  0.3263 -0.3978
 5437SOL     OW16705   0.838   0.474   5.634 -0.5327  0.5567  0.2125
 5437SOL    HW116706   0.846   0.557   5.587 -1.6804 -0.1491 -1.2935
 5437SOL    HW216707   0.927   0.456   5.664 -0.0941  1.8844 -0.1943
 5438SOL     OW16708   5.600   1.323   3.962 -0.0271  0.4859 -0.7001
 5438SOL    HW116709   5.649   1.253   4.006 -1.7229  0.3352  1.0618
 5438SOL    HW216710   5.607   1.302   3.869  0.5529 -1.3048 -0.2958
 5439SOL     OW16711   3.413   4.143   3.714  0.1836  0.4467  0.4752
 5439SOL    HW116712   3.347   4.115   3.777 -0.9823  2.7252  0.3694
 5439SOL    HW216713   3.394   4.092   3.635 -0.6343  0.1558  0.8477
 5440SOL     OW16714   4.993   2.838   4.241  0.0898  0.5205 -0.4643
 5440SOL    HW116715   4.992   2.931   4.266  1.3305  0.8326 -1.4461
 5440SOL    HW216716   4.953   2.836   4.154 -2.5149 -0.3036  0.6436
 5441SOL     OW16717   5.334   0.704   1.832  0.0472 -0.0040  0.3456
 5441SOL    HW116718   5.360   0.739   1.746 -0.2059 -2.9043 -1.0358
 5441SOL    HW216719   5.311   0.781   1.883  1.4504  1.9445 -1.7626
 5442SOL     OW16720   0.404   4.754   1.620  0.0652 -0.2321 -0.4269
 5442SOL    HW116721   0.323   4.709   1.597 -0.9416  1.8687 -1.2963
 5442SOL    HW216722   0.422   4.727   1.709  0.6343 -3.8030 -1.4678
 5443SOL     OW16723   0.914   5.113   4.835  0.5265  0.1449  0.1427
 5443SOL    HW116724   0.836   5.159   4.865  0.6118  0.1043  0.4245
 5443SOL    HW216725   0.882   5.027   4.806  0.5254 -0.0273  0.6507
 5444SOL     OW16726   3.123   3.011   0.154 -0.8959  0.0193  0.4486
 5444SOL    HW116727   3.071   3.087   0.128 -0.9768 -0.1308  0.1715
 5444SOL    HW216728   3.173   3.041   0.230 -0.6253  0.4730  0.0923
 5445SOL     OW16729   1.041   5.104   6.942  0.2772  0.4261 -0.1362
 5445SOL    HW116730   1.026   5.015   6.910  1.6128  0.4747 -1.0050
 5445SOL    HW216731   0.962   5.126   6.991  0.1139 -1.4151  0.5169
 5446SOL     OW16732   6.708   2.880   0.660  0.1563 -0.2485 -0.2350
 5446SOL    HW116733   6.788   2.924   0.631  0.3410 -0.5092 -0.1176
 5446SOL    HW216734   6.668   2.942   0.721  0.5455 -0.3520  0.1261
 5447SOL     OW16735   4.898   1.449   0.180  0.4869  0.8579 -0.6148
 5447SOL    HW116736   4.968   1.386   0.160 -0.1809  0.5784 -2.1850
 5447SOL    HW216737   4.844   1.403   0.245  0.1620 -0.0998 -1.5380
 5448SOL     OW16738   2.397   2.790   3.832 -0.0336 -0.5087  0.2354
 5448SOL    HW116739   2.436   2.848   3.897 -0.2744 -0.9201  0.7574
 5448SOL    HW216740   2.471   2.749   3.787  0.1992 -2.1264  1.9612
 5449SOL     OW16741   2.277   0.553   3.226 -0.1413 -0.6000 -0.1070
 5449SOL    HW116742   2.363   0.553   3.184  0.2177  1.1061  0.5277
 5449SOL    HW216743   2.217   0.583   3.157  0.1431  0.3366  0.0360
 5450SOL     OW16744   6.226   0.046   6.377  0.0484  0.5057 -0.5740
 5450SOL    HW116745   6.255  -0.041   6.407 -0.5055 -0.4692 -2.6572
 5450SOL    HW216746   6.153   0.068   6.434  1.8116  0.8375  1.6766
 5451SOL     OW16747   6.586   1.900   5.285  0.4744  0.1682 -0.3995
 5451SOL    HW116748   6.532   1.853   5.348  0.6670 -0.6479 -0.8153
 5451SOL    HW216749   6.669   1.851   5.284  0.5262  0.2613 -1.1656
 5452SOL     OW16750   6.705   5.353   6.676 -0.0481 -0.6537  0.2445
 5452SOL    HW116751   6.713   5.432   6.729 -2.5574 -0.6161  0.6804
 5452SOL    HW216752   6.666   5.383   6.594  2.5026 -0.9302 -1.1577
 5453SOL     OW16753   1.726   0.354   3.090  0.2338  0.0629 -0.1982
 5453SOL    HW116754   1.688   0.302   3.018  1.3144  1.0617 -1.5418
 5453SOL    HW216755   1.819   0.333   3.087  0.2916  0.1069  0.9601
 5454SOL     OW16756   1.735   5.838   2.872 -0.6279 -0.3767  1.0227
 5454SOL    HW116757   1.688   5.917   2.900  0.3267  0.9254 -0.8702
 5454SOL    HW216758   1.818   5.843   2.919 -0.1178  0.3607  0.0608
 5455SOL     OW16759   4.685   2.023   3.044 -0.1297 -0.1129  0.0422
 5455SOL    HW116760   4.641   1.940   3.063  2.8487 -1.5060  1.5000
 5455SOL    HW216761   4.674   2.075   3.123  1.9046 -1.0387  0.9954
 5456SOL     OW16762   5.614   6.058   2.862 -0.2031  0.6042 -0.5585
 5456SOL    HW116763   5.534   6.065   2.913 -1.3376 -1.3033 -1.9570
 5456SOL    HW216764   5.589   6.087   2.774  0.7565  0.3523 -0.9218
 5457SOL     OW16765   1.186   2.544   2.364 -0.0861  0.3923 -0.0566
 5457SOL    HW116766   1.214   2.547   2.272  0.1625  0.2865  0.0155
 5457SOL    HW216767   1.246   2.603   2.409 -0.9738  1.4104 -0.1578
 5458SOL     OW16768   3.356   5.162   4.227  0.8491 -0.4228  0.0300
 5458SOL    HW116769   3.265   5.132   4.221  0.2894  1.2482 -0.5703
 5458SOL    HW216770   3.393   5.115   4.301 -0.6388 -0.8187  0.5465
 5459SOL     OW16771   5.342   1.364   4.490 -0.1809 -0.0388  0.1490
 5459SOL    HW116772   5.263   1.366   4.436 -0.1003 -0.9173 -0.0178
 5459SOL    HW216773   5.367   1.272   4.493  2.3251  0.4425 -2.0148
 5460SOL     OW16774   3.897   2.726   5.589  0.3671 -0.1030 -0.0075
 5460SOL    HW116775   3.905   2.806   5.642 -1.3067  0.2816 -0.2846
 5460SOL    HW216776   3.977   2.724   5.538  0.9166  0.8360  0.7691
 5461SOL     OW16777   1.547   1.474   2.777  0.1703  0.1117 -0.0369
 5461SOL    HW116778   1.509   1.445   2.694  0.9504 -0.1781 -0.3048
 5461SOL    HW216779   1.639   1.448   2.772  0.4234  0.8323  0.5716
 5462SOL     OW16780   5.181   3.055   6.194  0.5624  0.2233  0.4653
 5462SOL    HW116781   5.141   3.034   6.110 -0.4800  0.7055  0.8224
 5462SOL    HW216782   5.248   2.987   6.207 -0.3815 -0.8218  0.0118
 5463SOL     OW16783   0.325   1.092   5.080 -0.2774  1.0488  0.1860
 5463SOL    HW116784   0.271   1.040   5.020  0.8149  0.0066  0.0820
 5463SOL    HW216785   0.338   1.036   5.156  2.0828  0.5291 -0.5080
 5464SOL     OW16786   3.721   6.471   4.152 -0.2383 -0.4279  0.3123
 5464SOL    HW116787   3.633   6.438   4.172 -0.3584 -0.1037  0.3171
 5464SOL    HW216788   3.708   6.532   4.080 -0.1711  0.4461  1.0231
 5465SOL     OW16789   3.058   0.141   2.755 -0.0603  0.5144  0.1242
 5465SOL    HW116790   2.992   0.212   2.755  0.1085  0.6718  0.2088
 5465SOL    HW216791   3.037   0.089   2.832 -1.2129 -0.4897 -0.8259
 5466SOL     OW16792   2.390   5.419   3.512 -0.4417 -0.3098  0.3830
 5466SOL    HW116793   2.324   5.352   3.492  0.4657 -1.6163  1.5407
 5466SOL    HW216794   2.415   5.400   3.603  0.7160  0.8575  0.3241
 5467SOL     OW16795   1.747   5.828   5.067 -0.2757  0.0224  0.0529
 5467SOL    HW116796   1.827   5.831   5.016  0.4210  2.5108  1.1246
 5467SOL    HW216797   1.679   5.802   5.005  0.6913  1.9224 -1.9549
 5468SOL     OW16798   5.433   5.339   1.117 -0.0404  0.0885  0.2640
 5468SOL    HW116799   5.481   5.418   1.093  0.0603 -0.6538 -2.3427
 5468SOL    HW216800   5.489   5.294   1.179  1.5277  0.4471 -0.8267
 5469SOL     OW16801   2.249   5.427   0.018  0.2969  0.2582  0.6013
 5469SOL    HW116802   2.157   5.454   0.022  0.5761  1.1236  2.3242
 5469SOL    HW216803   2.261   5.373   0.096  1.9776  2.7897  2.2299
 5470SOL     OW16804   4.523   5.750   5.510 -0.3319 -0.4362 -0.0006
 5470SOL    HW116805   4.500   5.687   5.579  1.7641 -1.4030 -0.0956
 5470SOL    HW216806   4.439   5.776   5.473 -1.4088 -1.4241  1.5779
 5471SOL     OW16807   1.706   1.104   3.247  0.3179  0.4779 -0.6236
 5471SOL    HW116808   1.688   1.032   3.307  2.8950  0.4977  0.2590
 5471SOL    HW216809   1.697   1.066   3.160 -1.7270  0.0223 -0.2799
 5472SOL     OW16810   0.602   4.694   0.474  0.3270 -0.1854 -0.2753
 5472SOL    HW116811   0.691   4.669   0.448  0.1100 -1.0773 -0.2076
 5472SOL    HW216812   0.614   4.771   0.529  1.3687 -2.0918  2.3781
 5473SOL     OW16813   5.825   1.910   6.468  0.6518 -0.0915  0.3239
 5473SOL    HW116814   5.826   2.006   6.471  1.3668 -0.0347 -1.1593
 5473SOL    HW216815   5.732   1.888   6.470  0.4335  0.6947 -0.4409
 5474SOL     OW16816   6.797   4.228   2.638  0.0373 -0.0758  0.2293
 5474SOL    HW116817   6.781   4.236   2.732  0.0780 -0.8281  0.3085
 5474SOL    HW216818   6.844   4.145   2.629 -1.1189 -0.6742 -0.5739
 5475SOL     OW16819   6.296   3.944   4.795 -0.0228  0.9514 -0.0708
 5475SOL    HW116820   6.279   3.856   4.828 -1.1004  0.5206 -1.6243
 5475SOL    HW216821   6.254   4.002   4.859  0.8213  0.3684  1.0413
 5476SOL     OW16822   2.751   0.884   6.830  0.5272 -0.1251 -0.3727
 5476SOL    HW116823   2.817   0.949   6.854 -0.6315  0.7085  0.7640
 5476SOL    HW216824   2.737   0.833   6.911 -2.0744  1.4588  0.3175
 5477SOL     OW16825   3.016   6.292   5.885 -0.2054 -0.1647 -0.3316
 5477SOL    HW116826   3.051   6.216   5.932  0.0781 -0.8256 -1.5681
 5477SOL    HW216827   2.933   6.261   5.849 -0.8113  0.5856  0.3802
 5478SOL     OW16828   4.015   4.290   4.183 -0.6445  0.0854  0.0264
 5478SOL    HW116829   4.050   4.265   4.269 -2.2433 -0.7425  0.4846
 5478SOL    HW216830   4.032   4.215   4.127  0.5623  0.6982 -0.4534
 5479SOL     OW16831   5.016   4.165   6.574  0.3069  0.3841  0.2223
 5479SOL    HW116832   4.974   4.236   6.622  0.9679  1.1264 -0.2797
 5479SOL    HW216833   5.027   4.199   6.485  1.7981  0.1491  0.2893
 5480SOL     OW16834   6.519   3.008   3.001  0.0867 -0.6853  0.7558
 5480SOL    HW116835   6.605   3.014   3.043  0.7684 -0.9939 -0.5625
 5480SOL    HW216836   6.476   3.090   3.024  2.1399  1.1920 -1.5703
 5481SOL     OW16837   1.499   5.352   2.955  0.2538  0.0008 -0.3750
 5481SOL    HW116838   1.529   5.442   2.945 -0.6233  0.4281  0.6228
 5481SOL    HW216839   1.404   5.359   2.961  0.2053 -0.9389  0.2223
 5482SOL     OW16840   1.727   3.664   1.926  0.0776  0.3402 -0.2641
 5482SOL    HW116841   1.804   3.703   1.968 -1.1978  0.6200  1.9353
 5482SOL    HW216842   1.763   3.593   1.873  2.0607  1.9034 -1.1677
 5483SOL     OW16843   5.612   0.320   1.513  0.4358 -0.1690 -0.0776
 5483SOL    HW116844   5.549   0.362   1.571  0.2886 -0.0661 -0.3119
 5483SOL    HW216845   5.568   0.316   1.429  0.0786 -1.6731  0.1621
 5484SOL     OW16846   2.922   2.060   5.136 -0.5732 -0.6229 -0.1812
 5484SOL    HW116847   3.010   2.068   5.172 -0.7806 -0.4602  0.3136
 5484SOL    HW216848   2.919   2.124   5.065  0.2269 -1.7968 -1.2944
 5485SOL     OW16849   6.808   3.852   6.470  0.0203  0.5419  0.1460
 5485SOL    HW116850   6.743   3.809   6.526 -0.6260  2.3593  0.8952
 5485SOL    HW216851   6.777   3.837   6.381 -1.0066  0.7047  0.4594
 5486SOL     OW16852   4.401   3.668   1.835  0.1685  0.2049  0.1814
 5486SOL    HW116853   4.318   3.689   1.793  1.0681  2.9121 -0.4048
 5486SOL    HW216854   4.454   3.628   1.766  0.3821  1.2970 -0.3042
 5487SOL     OW16855   3.140   4.266   1.796  0.1402 -0.2524 -0.1087
 5487SOL    HW116856   3.112   4.266   1.704  1.1398  0.9960 -0.4321
 5487SOL    HW216857   3.235   4.270   1.792  0.1427  1.5962  0.9806
 5488SOL     OW16858   4.309   3.145   5.993 -0.0572 -0.3133  0.1202
 5488SOL    HW116859   4.333   3.159   5.902 -1.3873  0.4650 -0.1369
 5488SOL    HW216860   4.356   3.214   6.041 -0.2699  0.0093 -0.1323
 5489SOL     OW16861   4.615   2.344   2.466  0.4541 -0.3153  0.0512
 5489SOL    HW116862   4.596   2.388   2.549  0.9065  0.8258 -0.4361
 5489SOL    HW216863   4.681   2.279   2.488  0.9634  0.3358  0.5078
 5490SOL     OW16864   6.319   3.889   3.115  0.3494  0.0141 -0.3850
 5490SOL    HW116865   6.322   3.943   3.036  1.0160 -0.6204 -0.8068
 5490SOL    HW216866   6.257   3.934   3.173  0.6104  1.0208 -0.8697
 5491SOL     OW16867   3.678   1.133   5.576  0.4076  0.2812  0.4818
 5491SOL    HW116868   3.697   1.090   5.493 -0.5256 -2.2014  1.4632
 5491SOL    HW216869   3.585   1.114   5.593  0.1503  2.0993  1.3468
 5492SOL     OW16870   6.508   5.029   6.151 -0.1790  0.0487  0.7343
 5492SOL    HW116871   6.580   5.072   6.106  0.6222 -0.2778  1.6628
 5492SOL    HW216872   6.539   4.939   6.164 -1.0707 -0.3076  0.4697
 5493SOL     OW16873   4.201   6.772   6.251 -0.1910 -0.0055  0.3246
 5493SOL    HW116874   4.204   6.684   6.215 -0.0928 -0.9088  2.4228
 5493SOL    HW216875   4.120   6.809   6.215 -0.4995 -1.1190 -0.1847
 5494SOL     OW16876   5.397   1.138   5.030 -0.3095  0.1585  0.4229
 5494SOL    HW116877   5.428   1.063   4.979  0.2771 -0.3867  1.5506
 5494SOL    HW216878   5.303   1.141   5.012 -0.4969 -1.3651  0.9836
 5495SOL     OW16879   6.723   4.937   2.461 -0.2996  0.0933 -0.0375
 5495SOL    HW116880   6.798   4.968   2.410 -1.2916  0.0017 -1.6272
 5495SOL    HW216881   6.713   5.001   2.531 -0.1420  1.4086 -1.1646
 5496SOL     OW16882   0.567   0.346   0.443 -0.2698  0.3428  0.1108
 5496SOL    HW116883   0.581   0.441   0.437 -0.7580  0.5220  1.3787
 5496SOL    HW216884   0.652   0.311   0.468 -0.5380  0.7105  1.6654
 5497SOL     OW16885   4.997   1.565   5.166 -0.5320 -0.1939  0.0652
 5497SOL    HW116886   4.922   1.535   5.218 -1.2755 -0.3210 -1.0458
 5497SOL    HW216887   5.024   1.647   5.207 -0.3843 -0.8429  1.3203
 5498SOL     OW16888   3.450   3.242   5.741  0.4547 -0.5554 -0.5354
 5498SOL    HW116889   3.378   3.304   5.731  1.1215 -0.0065 -2.5795
 5498SOL    HW216890   3.412   3.158   5.717  0.6988 -0.0693 -2.9654
 5499SOL     OW16891   0.667   6.628   0.031  0.2735  0.6465 -0.3228
 5499SOL    HW116892   0.699   6.700   0.086 -0.7446 -1.0468  2.7176
 5499SOL    HW216893   0.740   6.565   0.029  0.1580  0.5185 -0.5868
 5500SOL     OW16894   3.640   3.286   2.959  0.3579  0.0887 -0.0518
 5500SOL    HW116895   3.671   3.314   2.873 -1.4798 -0.4617 -0.9465
 5500SOL    HW216896   3.673   3.196   2.968  0.4906  0.1201 -0.2178
 5501SOL     OW16897   4.659   5.628   0.291 -0.4740  0.1341  0.4486
 5501SOL    HW116898   4.655   5.721   0.314  0.4372  0.2788  0.0717
 5501SOL    HW216899   4.573   5.594   0.315 -1.9760  1.6943 -2.1777
 5502SOL     OW16900   0.729   4.574   4.982  0.0455 -0.0530  0.1021
 5502SOL    HW116901   0.743   4.503   4.921 -0.1579 -3.3459  3.5341
 5502SOL    HW216902   0.634   4.577   4.995 -0.0118  1.3312 -0.4520
 5503SOL     OW16903   4.032   5.606   4.595  0.8846  0.0767 -0.6025
 5503SOL    HW116904   3.947   5.595   4.552  0.6779  0.6513 -0.3550
 5503SOL    HW216905   4.050   5.700   4.588  0.9058  0.1600  0.4490
 5504SOL     OW16906   4.008   2.577   1.671 -0.9017  0.3524 -0.0284
 5504SOL    HW116907   4.097   2.612   1.672 -0.8689  0.2804 -0.3298
 5504SOL    HW216908   3.960   2.633   1.732 -0.0918 -1.1282  2.1218
 5505SOL     OW16909   3.987   0.020   6.735  0.0459  0.6936  0.0122
 5505SOL    HW116910   3.966   0.038   6.643 -1.1685  2.2660  0.5548
 5505SOL    HW216911   3.994   0.106   6.776  1.1681  0.0358  1.2985
 5506SOL     OW16912   2.595   3.058   6.817  0.5180 -0.2763  0.0069
 5506SOL    HW116913   2.573   3.042   6.908 -1.0234  0.8779 -0.1311
 5506SOL    HW216914   2.674   3.005   6.802 -0.1263 -1.7686  1.5277
 5507SOL     OW16915   5.616   0.634   1.331  0.0372 -0.2482 -0.3199
 5507SOL    HW116916   5.522   0.620   1.338  0.3202 -1.9149  0.5578
 5507SOL    HW216917   5.634   0.629   1.237 -0.3488 -3.1830 -0.3357
 5508SOL     OW16918   1.479   2.331   2.401  0.8195 -0.4787  0.2933
 5508SOL    HW116919   1.418   2.400   2.375  1.8979  0.5303  0.3548
 5508SOL    HW216920   1.464   2.321   2.495  0.1373 -0.8704  0.1492
 5509SOL     OW16921   4.466   3.744   2.398 -0.1902  0.2570  0.6579
 5509SOL    HW116922   4.538   3.797   2.431 -0.2975 -0.0466  1.3895
 5509SOL    HW216923   4.411   3.806   2.350 -0.0205  0.6998  1.0270
 5510SOL     OW16924   0.444   2.855   5.364 -0.1302 -0.2693  0.3752
 5510SOL    HW116925   0.376   2.914   5.397  1.6018  1.7706  0.6032
 5510SOL    HW216926   0.503   2.913   5.315  1.3373 -1.9533  0.0531
 5511SOL     OW16927   4.909   5.030   4.032  0.0300 -0.0463  0.1717
 5511SOL    HW116928   4.879   5.091   4.099 -2.1508  0.5451 -1.2246
 5511SOL    HW216929   4.842   5.036   3.963  0.6306 -2.7728 -0.7705
 5512SOL     OW16930   5.801   4.649   4.787  0.3114 -0.7227 -0.1302
 5512SOL    HW116931   5.763   4.735   4.770 -0.7814 -1.1104  0.2646
 5512SOL    HW216932   5.787   4.634   4.881 -0.0173 -1.5702 -0.3028
 5513SOL     OW16933   5.861   4.210   1.704  0.4646 -0.0147  0.1439
 5513SOL    HW116934   5.951   4.241   1.707  0.5136  0.4924 -2.9382
 5513SOL    HW216935   5.867   4.120   1.673 -0.0771 -0.1866  0.5103
 5514SOL     OW16936   0.682   4.711   5.302 -0.0079  0.1990 -0.2999
 5514SOL    HW116937   0.748   4.648   5.329 -0.1793 -0.4938 -1.4477
 5514SOL    HW216938   0.726   4.764   5.235 -0.9332 -1.0182 -1.9272
 5515SOL     OW16939   1.926   0.570   2.543 -0.4073  0.1123 -0.2625
 5515SOL    HW116940   1.943   0.476   2.544 -1.0288 -0.0281 -1.2587
 5515SOL    HW216941   1.968   0.603   2.623 -0.0042 -0.9704 -0.0083
 5516SOL     OW16942   5.153   0.244   0.485 -0.7336  0.3570 -0.2543
 5516SOL    HW116943   5.244   0.215   0.484  0.2389  3.0030  1.4541
 5516SOL    HW216944   5.116   0.208   0.404  1.3988 -1.9416 -0.3234
 5517SOL     OW16945   3.165   3.050   1.634 -0.2098 -0.1772  0.3444
 5517SOL    HW116946   3.121   3.129   1.665 -1.7507 -0.4802 -0.9292
 5517SOL    HW216947   3.203   3.011   1.712  0.3982  1.6910  1.0352
 5518SOL     OW16948   0.968   5.889   4.820 -0.4126 -0.0099 -0.4135
 5518SOL    HW116949   1.064   5.886   4.814 -0.1789  1.8812  1.3703
 5518SOL    HW216950   0.939   5.909   4.732  1.0921  2.6862 -0.4057
 5519SOL     OW16951   2.693   0.516   0.762 -0.4939 -0.0875 -0.3503
 5519SOL    HW116952   2.708   0.590   0.704 -0.6110 -0.7636 -1.2715
 5519SOL    HW216953   2.616   0.473   0.725 -0.7743 -0.3354  0.5123
 5520SOL     OW16954   2.509   0.434   6.654  0.5938  0.1309 -0.4671
 5520SOL    HW116955   2.436   0.495   6.639  0.1914  0.2267  1.6416
 5520SOL    HW216956   2.558   0.473   6.726  0.4446 -1.9032  0.8027
 5521SOL     OW16957   0.251   1.668   4.661 -0.1328  0.1182  0.3275
 5521SOL    HW116958   0.255   1.763   4.656 -0.8315  0.1834  0.8433
 5521SOL    HW216959   0.158   1.648   4.662  0.0098 -0.5869  0.0104
 5522SOL     OW16960   2.383   2.342   2.391  0.4260  0.4257 -0.1664
 5522SOL    HW116961   2.469   2.324   2.430 -0.2900  1.4172  2.0820
 5522SOL    HW216962   2.321   2.315   2.458 -0.9837  0.9423 -1.2240
 5523SOL     OW16963   2.688   3.988   0.051 -0.3725  0.4756  0.1026
 5523SOL    HW116964   2.659   3.936  -0.024  0.2683  0.3207 -0.0467
 5523SOL    HW216965   2.613   4.043   0.073 -1.6566 -1.6295  1.2749
 5524SOL     OW16966   6.350   1.130   0.007  0.2851  0.1775  0.0965
 5524SOL    HW116967   6.438   1.168   0.003  0.2035  0.3525 -0.0826
 5524SOL    HW216968   6.337   1.091  -0.079 -0.3866  1.4722 -0.4179
 5525SOL     OW16969   2.975   3.879   3.599  0.1510  0.1075 -0.5626
 5525SOL    HW116970   3.037   3.813   3.629 -0.7054 -0.1584  0.7026
 5525SOL    HW216971   2.902   3.873   3.661  0.4182  2.8394  0.1285
 5526SOL     OW16972   5.981   6.746   1.700  0.0848  0.6594 -0.0987
 5526SOL    HW116973   5.893   6.775   1.724  0.5027  1.0072  1.0951
 5526SOL    HW216974   6.038   6.816   1.732  0.7100  1.1413 -2.1514
 5527SOL     OW16975   5.557   5.248   4.443  0.1437  0.2717 -0.6137
 5527SOL    HW116976   5.514   5.288   4.369  1.7208 -1.6637 -2.7238
 5527SOL    HW216977   5.527   5.157   4.443 -0.0067  0.2701  1.3020
 5528SOL     OW16978   2.732   1.536   6.761 -0.3542 -0.4104  0.3303
 5528SOL    HW116979   2.684   1.559   6.681  0.2663  0.0392  0.0827
 5528SOL    HW216980   2.789   1.611   6.777 -0.0458 -0.7577  0.8661
 5529SOL     OW16981   2.054   3.249   0.701  0.4414  0.3409  0.2747
 5529SOL    HW116982   2.064   3.344   0.703  0.4118  0.3858 -1.0918
 5529SOL    HW216983   1.962   3.234   0.682  1.1542  0.1688 -4.0607
 5530SOL     OW16984   6.799   3.937   0.269  0.3583 -0.4740 -0.0060
 5530SOL    HW116985   6.746   3.888   0.206  0.9172 -0.8564 -0.1868
 5530SOL    HW216986   6.735   3.974   0.330 -0.4951  2.2444 -2.3348
 5531SOL     OW16987   1.846   3.256   0.255  0.4956 -0.1698  0.1272
 5531SOL    HW116988   1.824   3.247   0.348  0.9495 -1.2190  0.1454
 5531SOL    HW216989   1.787   3.195   0.210  1.7800 -1.3568 -0.0352
 5532SOL     OW16990   0.654   5.103   5.834 -0.1569  0.8640  0.3337
 5532SOL    HW116991   0.680   5.045   5.906 -0.7675  0.6425  0.3863
 5532SOL    HW216992   0.620   5.043   5.767 -2.0585  1.2189  0.9198
 5533SOL     OW16993   6.475   3.329   5.701 -0.4123 -0.4888  0.5966
 5533SOL    HW116994   6.429   3.246   5.687  0.6870 -0.8827 -0.8794
 5533SOL    HW216995   6.407   3.396   5.690 -0.7237 -1.0724 -1.3584
 5534SOL     OW16996   3.875   3.469   1.445  0.2111 -0.0869 -0.5605
 5534SOL    HW116997   3.884   3.564   1.448  1.9552 -0.1810 -1.8333
 5534SOL    HW216998   3.832   3.451   1.362 -1.3495 -0.3738  0.2700
 5535SOL     OW16999   4.936   6.866   3.091  0.3297  0.3740  0.5441
 5535SOL    HW117000   4.940   6.817   3.173  1.7554  0.2327  0.4204
 5535SOL    HW217001   4.919   6.799   3.024 -0.4546  0.4379  0.6741
 5536SOL     OW17002   0.017   0.433   4.353  0.0220  0.1768 -0.0707
 5536SOL    HW117003  -0.068   0.421   4.310 -0.1525 -0.3870  0.4213
 5536SOL    HW217004   0.081   0.420   4.283 -0.2450 -1.0621 -0.1056
 5537SOL     OW17005   6.726   1.379   0.433  0.3564  0.4199  0.3394
 5537SOL    HW117006   6.675   1.309   0.474  1.7787  0.0428  1.5599
 5537SOL    HW217007   6.758   1.432   0.507 -0.6543  2.3650 -0.5544
 5538SOL     OW17008   0.833   2.316   3.937 -0.0942  0.0235 -0.0449
 5538SOL    HW117009   0.891   2.250   3.900 -0.1987  0.7923 -1.6944
 5538SOL    HW217010   0.873   2.399   3.912 -1.7811  0.5732 -1.1178
 5539SOL     OW17011   2.690   2.062   6.155 -0.7863 -0.6141 -0.5214
 5539SOL    HW117012   2.776   2.061   6.197 -0.7611 -2.4133 -0.5440
 5539SOL    HW217013   2.697   1.998   6.084 -1.8923 -0.1701 -1.0527
 5540SOL     OW17014   2.468   1.916   5.622 -0.1384  0.0549  0.8675
 5540SOL    HW117015   2.484   2.005   5.655 -1.5400  0.7921 -0.3432
 5540SOL    HW217016   2.545   1.867   5.649  0.0605  1.2912  2.7544
 5541SOL     OW17017   3.888   4.133   1.244 -0.1879 -0.5854 -0.3608
 5541SOL    HW117018   3.811   4.187   1.229 -0.5044 -0.5783  1.1767
 5541SOL    HW217019   3.880   4.061   1.181 -1.2277 -0.3623 -0.4866
 5542SOL     OW17020   0.492   5.421   4.728 -0.4549 -0.2314 -0.1475
 5542SOL    HW117021   0.408   5.386   4.699 -0.8907  0.1362  0.6436
 5542SOL    HW217022   0.473   5.464   4.811  0.3244  0.7037 -0.4306
 5543SOL     OW17023   2.584   6.420   3.735 -0.4712 -0.5825  0.1087
 5543SOL    HW117024   2.599   6.372   3.653 -0.2870 -0.9898  0.3716
 5543SOL    HW217025   2.586   6.352   3.803  3.8788  0.1149  1.0004
 5544SOL     OW17026   0.997   2.601   6.129 -0.2184  0.4106  0.1672
 5544SOL    HW117027   1.040   2.515   6.125 -0.6404  0.1666  0.7898
 5544SOL    HW217028   0.913   2.583   6.169 -1.2449  0.7485 -1.7080
 5545SOL     OW17029   0.822   2.173   1.119 -0.0975  0.3659  0.0303
 5545SOL    HW117030   0.790   2.254   1.081 -0.9956 -0.3454 -0.7681
 5545SOL    HW217031   0.765   2.157   1.194  0.4652  0.7729  0.5577
 5546SOL     OW17032   5.148   4.698   4.301  0.4189 -0.2380  0.4168
 5546SOL    HW117033   5.107   4.780   4.329 -1.5595  0.0143 -2.7613
 5546SOL    HW217034   5.087   4.630   4.327 -0.2647 -0.2172 -1.0708
 5547SOL     OW17035   5.471   4.221   3.100 -0.1413 -0.1330 -0.6708
 5547SOL    HW117036   5.397   4.194   3.155  1.5649 -0.1822  1.7953
 5547SOL    HW217037   5.446   4.307   3.068 -1.7084 -0.6070 -0.8614
 5548SOL     OW17038   1.068   2.021   1.090  0.4735  0.3253 -0.2992
 5548SOL    HW117039   0.989   2.066   1.119  0.3712  0.4494 -0.7683
 5548SOL    HW217040   1.044   1.928   1.090 -0.3710  0.4816 -2.4735
 5549SOL     OW17041   3.771   6.512   2.148  0.2345 -0.0769 -0.5896
 5549SOL    HW117042   3.772   6.573   2.074 -0.0995  1.1090  0.3569
 5549SOL    HW217043   3.828   6.440   2.120  1.6584  1.2453 -1.2555
 5550SOL     OW17044   5.782   5.635   0.764  0.3810  0.0623 -0.2520
 5550SOL    HW117045   5.877   5.634   0.770  0.3226 -0.3083  0.9276
 5550SOL    HW217046   5.757   5.542   0.767 -0.0541  0.1950  0.4808
 5551SOL     OW17047   1.133   6.274   3.298  0.5199  0.5339 -0.3345
 5551SOL    HW117048   1.202   6.335   3.326 -0.1359  1.4712 -0.6997
 5551SOL    HW217049   1.130   6.208   3.367  1.6423  0.5888 -0.2107
 5552SOL     OW17050   0.797   1.797   3.822  0.2862  0.4555  0.2414
 5552SOL    HW117051   0.751   1.878   3.847  1.5809  0.8175  1.5994
 5552SOL    HW217052   0.859   1.825   3.754 -0.4069  0.2652 -0.4810
 5553SOL     OW17053   6.924   6.360   5.415  0.2421  0.2334  0.2353
 5553SOL    HW117054   6.974   6.441   5.420  1.0659 -0.2239 -0.2515
 5553SOL    HW217055   6.960   6.304   5.483 -0.0272  0.1208  0.2883
 5554SOL     OW17056   1.362   1.659   3.305  0.1826  0.3288 -0.4832
 5554SOL    HW117057   1.398   1.736   3.261 -0.2283  0.3607 -0.7695
 5554SOL    HW217058   1.280   1.642   3.259 -0.8877  1.1120  1.0596
 5555SOL     OW17059   4.331   2.644   2.307  0.1310  0.1149  0.0699
 5555SOL    HW117060   4.379   2.678   2.383 -0.6109  0.5837  0.3352
 5555SOL    HW217061   4.274   2.576   2.343 -0.6810  0.7692  0.0453
 5556SOL     OW17062   2.619   6.432   5.981  0.1114  0.6032  0.1565
 5556SOL    HW117063   2.549   6.418   6.044  0.6918 -1.4270  0.4371
 5556SOL    HW217064   2.581   6.489   5.914 -1.7817 -0.3750  0.3353
 5557SOL     OW17065   1.419   1.938   5.972  0.3819 -0.2176  0.1833
 5557SOL    HW117066   1.371   1.935   6.055  0.9812 -0.5777  0.5197
 5557SOL    HW217067   1.399   2.025   5.937  1.5130  0.6328  1.5353
 5558SOL     OW17068   6.213   0.621   3.678  0.1781  0.0617 -0.0407
 5558SOL    HW117069   6.259   0.557   3.733  2.2181  1.1384 -0.3759
 5558SOL    HW217070   6.243   0.706   3.711 -2.4115  0.8863  0.3470
 5559SOL     OW17071   3.989   5.013   3.316 -0.4388  0.5906  0.0974
 5559SOL    HW117072   3.940   4.935   3.342 -1.1313  0.6225 -1.0412
 5559SOL    HW217073   3.948   5.084   3.366  0.2929  0.2404  1.2553
 5560SOL     OW17074   3.239   2.722   3.430  0.3434  0.7813 -0.6969
 5560SOL    HW117075   3.254   2.798   3.374 -0.3239  0.7342 -0.9549
 5560SOL    HW217076   3.255   2.753   3.519 -1.3439  1.6470 -0.6478
 5561SOL     OW17077   4.369   2.524   4.854  0.1742 -0.2788  0.3011
 5561SOL    HW117078   4.384   2.430   4.841 -1.9821 -0.4665 -1.5249
 5561SOL    HW217079   4.315   2.529   4.933 -0.7688 -0.7460 -0.2887
 5562SOL     OW17080   3.657   2.071   4.733 -0.3617  0.9451 -0.1832
 5562SOL    HW117081   3.722   2.074   4.664  0.7367  0.3639  0.7919
 5562SOL    HW217082   3.664   1.982   4.769 -0.0092  1.6040  1.4859
 5563SOL     OW17083   1.397   5.965   1.047 -0.3882  0.0101 -0.0366
 5563SOL    HW117084   1.363   5.876   1.055  2.2463 -1.0468  0.6952
 5563SOL    HW217085   1.321   6.018   1.023 -2.3624 -2.1585  1.0021
 5564SOL     OW17086   1.150   4.780   4.737  0.1746 -0.0295  0.0092
 5564SOL    HW117087   1.230   4.830   4.725  0.4310 -0.8213 -1.9096
 5564SOL    HW217088   1.083   4.831   4.692  0.3649 -1.1385 -1.6359
 5565SOL     OW17089   4.696   1.333   0.929 -0.5196 -0.0599  0.3825
 5565SOL    HW117090   4.766   1.389   0.963 -0.2340 -0.8460  1.1230
 5565SOL    HW217091   4.645   1.390   0.871 -0.5391  1.1008  1.5130
 5566SOL     OW17092   0.786   2.397   5.572 -0.5638  0.1276  0.8222
 5566SOL    HW117093   0.854   2.446   5.526  1.1185 -2.9037 -0.1967
 5566SOL    HW217094   0.827   2.369   5.654 -1.7335  0.9223  1.7248
 5567SOL     OW17095   4.885   0.583   1.786  0.6327 -0.0764 -0.0553
 5567SOL    HW117096   4.910   0.495   1.812  0.4558 -0.3003 -0.6347
 5567SOL    HW217097   4.903   0.637   1.863 -0.5057 -0.8254  0.7589
 5568SOL     OW17098   1.471   1.524   6.070 -0.2507  0.0426  0.0956
 5568SOL    HW117099   1.498   1.501   5.981 -0.2479  0.5036 -0.0253
 5568SOL    HW217100   1.451   1.440   6.111  1.6497 -0.3511  0.2867
 5569SOL     OW17101   0.684   5.867   3.509 -0.3510  0.2025  0.5731
 5569SOL    HW117102   0.698   5.961   3.497  0.3616 -0.0102 -0.4614
 5569SOL    HW217103   0.613   5.845   3.449 -0.3969  0.0528  0.6819
 5570SOL     OW17104   6.442   2.165   6.395 -0.9277 -0.0307  0.4398
 5570SOL    HW117105   6.468   2.159   6.303 -1.6753  0.7138  0.1638
 5570SOL    HW217106   6.395   2.248   6.401  0.0372  0.4504  1.7309
 5571SOL     OW17107   5.579   6.075   6.289  0.0708  0.1841 -0.1945
 5571SOL    HW117108   5.535   6.000   6.248 -2.2008  1.1289  0.4061
 5571SOL    HW217109   5.637   6.035   6.354 -1.8324 -1.0877  0.8250
 5572SOL     OW17110   5.296   1.234   1.998 -0.7782 -0.0188  0.0865
 5572SOL    HW117111   5.382   1.191   1.995 -0.3384  0.8875 -1.3951
 5572SOL    HW217112   5.266   1.222   2.088  1.6271  1.0582  1.1259
 5573SOL     OW17113   6.268   3.586   2.985 -0.4238 -0.0064 -0.4057
 5573SOL    HW117114   6.184   3.610   3.022 -0.1236 -0.6527  0.7467
 5573SOL    HW217115   6.247   3.539   2.904 -1.1025  1.2064 -0.9428
 5574SOL     OW17116   6.623   0.800   2.219  0.3251  0.0815  0.5970
 5574SOL    HW117117   6.558   0.761   2.160 -0.9985 -1.1607  2.7365
 5574SOL    HW217118   6.698   0.741   2.213  0.3306  0.1478 -0.0661
 5575SOL     OW17119   5.093   1.651   2.576  0.1204  0.2940  0.1652
 5575SOL    HW117120   5.179   1.689   2.558 -0.0915  0.5741 -0.2930
 5575SOL    HW217121   5.067   1.610   2.493 -1.8558  3.5212 -1.0419
 5576SOL     OW17122   5.049   5.323   4.210  0.4287  0.1813 -0.1960
 5576SOL    HW117123   4.983   5.369   4.262 -0.5004 -1.0910 -0.1981
 5576SOL    HW217124   5.044   5.232   4.239  0.4921 -0.3949 -1.8895
 5577SOL     OW17125   3.406   2.538   3.323 -0.1588 -0.4471 -0.4065
 5577SOL    HW117126   3.364   2.616   3.359 -0.1179 -0.2283 -0.8225
 5577SOL    HW217127   3.457   2.502   3.395  2.3617  1.6437 -0.9863
 5578SOL     OW17128   2.874   5.522   5.321  0.0257 -0.8137  0.5690
 5578SOL    HW117129   2.919   5.456   5.268 -1.7622  0.1508 -2.3913
 5578SOL    HW217130   2.938   5.548   5.388  2.9345 -1.2239 -1.8624
 5579SOL     OW17131   2.416   4.029   2.249  0.1696 -1.0283 -0.2405
 5579SOL    HW117132   2.466   4.086   2.191  0.2619 -0.8128  0.0542
 5579SOL    HW217133   2.448   4.048   2.337 -1.0747 -0.1842  0.0687
 5580SOL     OW17134   6.898   5.456   1.350 -0.5933  0.1614 -0.3829
 5580SOL    HW117135   6.826   5.407   1.391 -0.3364  0.1085  0.0118
 5580SOL    HW217136   6.976   5.423   1.394 -0.3844  0.6547 -0.3866
 5581SOL     OW17137   3.144   3.807   2.688  0.4946 -0.2029  0.1095
 5581SOL    HW117138   3.052   3.786   2.670  0.2965 -1.0447  1.8797
 5581SOL    HW217139   3.140   3.873   2.757  1.1988 -0.3736  0.3221
 5582SOL     OW17140   4.170   1.497   3.389  0.1975  0.1309  0.0633
 5582SOL    HW117141   4.126   1.445   3.456  0.7178 -2.5252 -1.5141
 5582SOL    HW217142   4.241   1.541   3.435 -0.1023 -0.7850  1.4609
 5583SOL     OW17143   5.540   4.658   5.453 -0.1053 -0.0217  0.2943
 5583SOL    HW117144   5.596   4.597   5.405 -0.3687 -1.1382  1.3519
 5583SOL    HW217145   5.464   4.671   5.397  1.1761  1.5957 -1.2159
 5584SOL     OW17146   0.640   1.429   1.433  0.4511 -0.2199 -0.3566
 5584SOL    HW117147   0.586   1.378   1.494  0.9026  1.6554  1.7250
 5584SOL    HW217148   0.610   1.401   1.347 -0.4691 -2.7526  0.6677
 5585SOL     OW17149   1.502   1.665   6.766 -0.2025  0.2473 -0.0168
 5585SOL    HW117150   1.550   1.748   6.760  0.9313 -0.3189  1.0460
 5585SOL    HW217151   1.524   1.619   6.685 -0.0079  0.5432 -0.1332
 5586SOL     OW17152   3.969   4.850   3.043 -0.6033 -0.0873  0.4905
 5586SOL    HW117153   4.036   4.897   3.094  1.2871 -0.1462 -1.7661
 5586SOL    HW217154   3.919   4.801   3.109  2.7688 -1.5401  2.2518
 5587SOL     OW17155   3.535   0.817   0.305 -0.2269 -0.2170 -0.3369
 5587SOL    HW117156   3.595   0.847   0.373  0.0686  0.7905 -1.0184
 5587SOL    HW217157   3.456   0.791   0.353  0.3310 -0.4785  0.4670
 5588SOL     OW17158   4.547   3.584   4.063 -0.2611  0.2363  0.5059
 5588SOL    HW117159   4.465   3.622   4.033  0.3843  0.5637 -0.9425
 5588SOL    HW217160   4.543   3.492   4.034  0.2746  0.4994 -0.4560
 5589SOL     OW17161   4.301   3.522   1.365 -0.4521  0.1077  0.0137
 5589SOL    HW117162   4.296   3.610   1.404  0.1915 -0.7009  2.0773
 5589SOL    HW217163   4.232   3.473   1.409 -0.0254 -0.7312 -0.2436
 5590SOL     OW17164   3.286   2.504   5.293  0.3373 -0.0067  0.2688
 5590SOL    HW117165   3.293   2.452   5.373  0.3317  1.2425  1.1069
 5590SOL    HW217166   3.357   2.568   5.299 -0.9938  1.5265  0.3797
 5591SOL     OW17167   6.299   5.353   4.918  0.3973 -0.0869 -0.1573
 5591SOL    HW117168   6.289   5.448   4.911  0.4045  0.0405  1.2388
 5591SOL    HW217169   6.355   5.341   4.994 -0.8021 -1.2391  0.5875
 5592SOL     OW17170   0.454   0.423   4.384  0.5484 -0.3673  0.5381
 5592SOL    HW117171   0.433   0.379   4.467 -0.4946 -0.1630  0.3872
 5592SOL    HW217172   0.550   0.416   4.378  0.5270 -1.5236  1.1219
 5593SOL     OW17173   5.450   3.587   5.394  0.6161 -0.2944  0.5037
 5593SOL    HW117174   5.511   3.514   5.401  0.5941 -0.4665 -0.7975
 5593SOL    HW217175   5.505   3.662   5.373  0.4149 -0.4413 -0.6277
 5594SOL     OW17176   2.632   1.651   3.964 -0.7591 -0.1560  0.0402
 5594SOL    HW117177   2.704   1.701   3.925 -0.9536 -0.6152 -0.9546
 5594SOL    HW217178   2.642   1.563   3.927 -1.0833 -0.5553  0.8911
 5595SOL     OW17179   2.149   1.973   1.439 -0.0900  0.0134  0.2126
 5595SOL    HW117180   2.198   1.934   1.511  0.4913  0.9956  0.3788
 5595SOL    HW217181   2.144   2.066   1.462 -1.5774  0.0255 -0.0679
 5596SOL     OW17182   6.395   3.876   4.260 -0.2480  0.1212  0.4814
 5596SOL    HW117183   6.347   3.814   4.314 -1.4474  1.3505  0.8847
 5596SOL    HW217184   6.443   3.931   4.322  0.2217  0.0631  0.1734
 5597SOL     OW17185   2.923   5.377   1.412 -0.0797  0.0646 -0.0579
 5597SOL    HW117186   2.898   5.369   1.321  0.7837 -1.1876 -0.2154
 5597SOL    HW217187   2.998   5.317   1.422 -2.0494 -2.2847  2.1678
 5598SOL     OW17188   0.335   4.842   2.354 -0.3553  0.1004 -0.0247
 5598SOL    HW117189   0.379   4.806   2.277  0.0384  0.7071 -0.0930
 5598SOL    HW217190   0.242   4.826   2.339 -0.1584 -1.4934  0.2646
 5599SOL     OW17191   3.765   2.135   2.223 -0.2990 -0.6107  0.7069
 5599SOL    HW117192   3.724   2.054   2.191  0.0670  0.1263 -1.8716
 5599SOL    HW217193   3.691   2.188   2.254 -1.6275  0.7776 -4.0251
 5600SOL     OW17194   1.892   0.498   3.555 -0.0467 -0.5323  0.3967
 5600SOL    HW117195   1.925   0.542   3.477  0.4065  0.0527  0.9065
 5600SOL    HW217196   1.949   0.421   3.565  0.6262 -0.0047  0.7699
 5601SOL     OW17197   0.902   6.532   0.876 -0.1202  0.3622  0.2318
 5601SOL    HW117198   0.971   6.594   0.899  0.7006 -0.2616 -0.4451
 5601SOL    HW217199   0.905   6.527   0.780 -1.4659  0.7076  0.1509
 5602SOL     OW17200   2.461   4.649   2.182 -0.4411  0.1706 -0.4047
 5602SOL    HW117201   2.458   4.661   2.277 -1.0978 -0.7272 -0.3029
 5602SOL    HW217202   2.543   4.603   2.166 -1.1153 -1.1980 -0.0732
 5603SOL     OW17203   5.636   4.135   2.614  0.2668  0.7100 -0.0040
 5603SOL    HW117204   5.577   4.205   2.643  2.5314  2.6536  0.1783
 5603SOL    HW217205   5.654   4.157   2.522 -0.5063 -0.7954 -0.5446
 5604SOL     OW17206   1.785   4.371   1.412  0.5293  0.3200  0.1815
 5604SOL    HW117207   1.800   4.339   1.323  0.1922  2.1327 -0.5758
 5604SOL    HW217208   1.873   4.390   1.446  0.5865  1.5058 -0.5472
 5605SOL     OW17209   5.616   1.857   1.851  0.7390  0.2464 -0.5478
 5605SOL    HW117210   5.618   1.894   1.763  2.8223 -0.5324 -0.8990
 5605SOL    HW217211   5.634   1.764   1.838  3.1056  0.4269  0.7688
 5606SOL     OW17212   1.850   3.788   6.014 -0.3783  0.4002  0.8597
 5606SOL    HW117213   1.803   3.753   5.938 -1.4860  1.8564  0.8143
 5606SOL    HW217214   1.899   3.862   5.979 -0.8296  1.0292  1.5155
 5607SOL     OW17215   1.324   6.575   6.459  0.0415 -0.3409  0.1988
 5607SOL    HW117216   1.342   6.641   6.526 -1.2755 -0.2909  0.5318
 5607SOL    HW217217   1.370   6.606   6.382 -1.5247  1.6710 -0.0229
 5608SOL     OW17218   0.118   4.723   4.058 -0.0745 -0.4949  0.3299
 5608SOL    HW117219   0.158   4.790   4.003 -0.3079 -0.1515  0.5697
 5608SOL    HW217220   0.059   4.772   4.115  1.3607 -0.6045  2.0218
 5609SOL     OW17221   6.522   6.594   6.811 -0.1933  0.4442 -0.0199
 5609SOL    HW117222   6.504   6.551   6.727  0.9255 -3.2670  1.4253
 5609SOL    HW217223   6.444   6.577   6.864 -1.2682  3.5202 -0.4175
 5610SOL     OW17224   2.788   4.998   6.596 -0.1687 -0.7498  0.1233
 5610SOL    HW117225   2.712   4.945   6.572 -0.4690 -1.0986  1.7292
 5610SOL    HW217226   2.753   5.067   6.652  0.4887  0.1052 -0.4694
 5611SOL     OW17227   4.666   1.924   6.458  0.2044 -0.7913  0.3221
 5611SOL    HW117228   4.729   1.869   6.411  0.9724  0.3707 -0.0363
 5611SOL    HW217229   4.601   1.948   6.392 -1.4372 -3.0875  0.9841
 5612SOL     OW17230   0.034   0.949   6.396  1.1133  0.1556 -0.5495
 5612SOL    HW117231  -0.007   0.880   6.343 -1.8425  1.4893 -0.1905
 5612SOL    HW217232   0.076   0.902   6.468  0.4670 -1.3559 -1.1192
 5613SOL     OW17233   1.631   6.740   2.961 -0.0344 -0.0070  0.5230
 5613SOL    HW117234   1.639   6.646   2.976  1.5652  0.1368  0.7505
 5613SOL    HW217235   1.540   6.760   2.984 -0.7523 -1.6669 -0.6210
 5614SOL     OW17236   2.666   3.607   0.061  0.3819 -0.0557  0.5293
 5614SOL    HW117237   2.578   3.624   0.029  0.5140 -0.9814 -0.3826
 5614SOL    HW217238   2.663   3.516   0.092  0.6467  0.3645  1.8069
 5615SOL     OW17239   1.273   0.316   4.198 -0.4264 -0.1270 -0.4960
 5615SOL    HW117240   1.301   0.381   4.263  0.1556  1.2070 -2.0275
 5615SOL    HW217241   1.281   0.361   4.114 -1.8271 -1.5820 -1.4605
 5616SOL     OW17242   0.551   2.445   5.826  1.1183  0.6440 -0.0339
 5616SOL    HW117243   0.634   2.398   5.835 -0.8527 -2.9751  0.9623
 5616SOL    HW217244   0.536   2.485   5.911  1.1809  0.1130  0.2264
 5617SOL     OW17245   0.249   6.865   6.440  0.8848 -0.3459 -0.5027
 5617SOL    HW117246   0.224   6.791   6.494 -0.0225  0.0566 -0.3487
 5617SOL    HW217247   0.337   6.888   6.469  1.9548 -2.4925 -1.8176
 5618SOL     OW17248   5.641   4.299   2.152  0.0156 -0.4665 -0.1322
 5618SOL    HW117249   5.689   4.329   2.075  0.9924 -0.1774  0.5656
 5618SOL    HW217250   5.560   4.349   2.151 -1.1638 -2.2189 -2.3154
 5619SOL     OW17251   2.556   2.794   0.781 -0.3370 -0.2760  0.6627
 5619SOL    HW117252   2.540   2.887   0.762  0.4961 -0.0965  0.7779
 5619SOL    HW217253   2.589   2.794   0.871 -1.1873 -0.7871  0.9833
 5620SOL     OW17254   3.769   3.892   6.295 -0.3858 -0.8831 -0.1941
 5620SOL    HW117255   3.843   3.865   6.349  0.3660  0.2679 -0.6081
 5620SOL    HW217256   3.692   3.857   6.340  0.3818 -1.9612  0.3361
 5621SOL     OW17257   2.454   0.055   3.637  0.4512 -0.4240 -0.3183
 5621SOL    HW117258   2.459  -0.038   3.616  0.9561 -0.4708 -0.0057
 5621SOL    HW217259   2.524   0.070   3.700 -1.5028 -0.4672  2.0335
 5622SOL     OW17260   6.683   3.724   0.119  0.2158 -0.2055  0.3476
 5622SOL    HW117261   6.589   3.709   0.108  0.2240  0.1519 -0.2466
 5622SOL    HW217262   6.712   3.653   0.176 -0.4408 -0.2375  0.6478
 5623SOL     OW17263   4.155   3.786   3.544  0.1483 -0.0764 -0.1853
 5623SOL    HW117264   4.194   3.818   3.463  0.5244  1.9369  0.7256
 5623SOL    HW217265   4.229   3.779   3.605  0.1951 -3.3766 -0.4558
 5624SOL     OW17266   5.520   1.285   3.058 -0.0674 -0.1712  0.2158
 5624SOL    HW117267   5.568   1.367   3.067  0.1050 -0.2763  0.2492
 5624SOL    HW217268   5.434   1.304   3.094  0.3026 -0.3071  1.1882
 5625SOL     OW17269   6.603   4.903   0.399  0.1725 -0.6957 -0.2134
 5625SOL    HW117270   6.667   4.867   0.338  0.0999 -0.1301 -0.6395
 5625SOL    HW217271   6.585   4.833   0.462  1.1215 -0.8976 -0.1593
 5626SOL     OW17272   4.893   5.740   6.447 -0.3086 -0.0632 -0.2110
 5626SOL    HW117273   4.984   5.715   6.464  0.0766  0.6939 -1.0668
 5626SOL    HW217274   4.883   5.732   6.352  0.0682  3.5764 -0.6846
 5627SOL     OW17275   0.852   1.882   1.873  0.1588  0.0244  0.0417
 5627SOL    HW117276   0.902   1.908   1.795 -1.0794  2.1012 -0.1140
 5627SOL    HW217277   0.761   1.887   1.846 -0.3249  1.3684  1.7607
 5628SOL     OW17278   4.215   5.097   1.317 -0.9336  0.1708 -0.2107
 5628SOL    HW117279   4.198   5.010   1.281  1.9437  0.0129 -1.4635
 5628SOL    HW217280   4.303   5.119   1.287 -1.0005  2.9454  1.2571
 5629SOL     OW17281   0.714   3.363   2.327  0.1558  0.2237 -0.1273
 5629SOL    HW117282   0.632   3.353   2.277 -1.3814  0.0625  2.2305
 5629SOL    HW217283   0.689   3.415   2.403  2.4746  0.8365  0.2813
 5630SOL     OW17284   2.721   3.132   5.134  0.0412  0.0154 -0.2653
 5630SOL    HW117285   2.793   3.142   5.197  0.4889 -2.0154 -0.3961
 5630SOL    HW217286   2.648   3.100   5.187 -0.2592  0.4240 -0.4280
 5631SOL     OW17287   1.340   6.818   0.078 -0.0842 -0.5000  0.0595
 5631SOL    HW117288   1.311   6.907   0.100  1.0595 -0.1997  0.4273
 5631SOL    HW217289   1.397   6.830   0.002 -1.1839 -1.1290 -0.9059
 5632SOL     OW17290   1.570   4.536   1.527 -0.3376  0.0383 -0.6926
 5632SOL    HW117291   1.639   4.489   1.482  0.7515  0.1977  0.7276
 5632SOL    HW217292   1.570   4.623   1.487  2.7230  1.2305  1.4708
 5633SOL     OW17293   0.607   5.991   0.987 -0.0941  0.0427 -0.4809
 5633SOL    HW117294   0.678   5.955   0.933 -0.2425  0.6371 -1.0905
 5633SOL    HW217295   0.628   5.964   1.076 -0.4860 -2.0632 -0.9564
 5634SOL     OW17296   0.451   4.582   3.817  0.4042  0.3746  0.0537
 5634SOL    HW117297   0.524   4.607   3.874  0.3111  0.8205 -0.0217
 5634SOL    HW217298   0.398   4.522   3.870  0.4521  0.5893  0.3476
 5635SOL     OW17299   5.980   2.903   5.634 -0.3300 -0.1293 -0.7035
 5635SOL    HW117300   5.917   2.906   5.561  0.3703  1.6709 -1.2929
 5635SOL    HW217301   5.933   2.858   5.704 -1.7381 -0.1683 -1.6254
 5636SOL     OW17302   6.697   4.428   5.335 -0.6876 -0.3687 -0.4904
 5636SOL    HW117303   6.628   4.474   5.384  0.0651 -0.9361  1.1882
 5636SOL    HW217304   6.716   4.485   5.261 -2.0181  0.4480 -0.2405
 5637SOL     OW17305   5.230   3.780   6.035 -0.2622  0.1839 -0.5365
 5637SOL    HW117306   5.239   3.743   6.123 -0.0492 -0.2246 -0.7294
 5637SOL    HW217307   5.300   3.845   6.029 -0.6264  0.6125 -0.2027
 5638SOL     OW17308   1.763   4.961   4.345  0.3320 -0.1902 -0.5759
 5638SOL    HW117309   1.670   4.942   4.357  0.4295 -0.6465 -0.5170
 5638SOL    HW217310   1.800   4.879   4.313  0.5266  0.2917 -1.6397
 5639SOL     OW17311   6.503   3.301   4.993 -0.3273 -0.0332  0.9794
 5639SOL    HW117312   6.569   3.337   5.052  1.1958 -0.1883 -0.5472
 5639SOL    HW217313   6.509   3.355   4.914  0.5572 -2.2444 -0.5632
 5640SOL     OW17314   6.385   3.390   4.424 -0.5390  0.7539 -0.6202
 5640SOL    HW117315   6.316   3.395   4.357 -1.5319  1.4478  0.4348
 5640SOL    HW217316   6.339   3.360   4.503  0.5081  0.5600 -0.0762
 5641SOL     OW17317   5.754   3.988   3.547 -0.3171  0.2899  0.3540
 5641SOL    HW117318   5.661   3.999   3.568 -0.6383 -0.8905 -0.3878
 5641SOL    HW217319   5.796   3.981   3.633 -1.0432 -0.1250  0.6920
 5642SOL     OW17320   4.172   3.574   0.588 -0.0122  0.0588  0.1089
 5642SOL    HW117321   4.087   3.580   0.632  0.5972 -1.2625  1.5572
 5642SOL    HW217322   4.232   3.624   0.645  0.6372 -1.0082  0.3801
 5643SOL     OW17323   1.124   4.771   4.109 -0.0544 -0.2994  0.6888
 5643SOL    HW117324   1.194   4.713   4.079 -2.0062 -3.0084  1.0432
 5643SOL    HW217325   1.047   4.745   4.059 -1.2371  1.3962  1.5313
 5644SOL     OW17326   1.203   5.956   2.385  0.1905  0.3640  0.4885
 5644SOL    HW117327   1.201   6.051   2.387 -0.3647  0.3571  0.5438
 5644SOL    HW217328   1.183   5.934   2.294  0.0185  0.2968  0.5424
 5645SOL     OW17329   2.854   4.339   4.990  0.3038  0.2836 -0.1688
 5645SOL    HW117330   2.938   4.383   4.999  1.4556 -1.7571 -0.3398
 5645SOL    HW217331   2.874   4.260   4.940 -1.8647  0.1021 -0.8625
 5646SOL     OW17332   2.303   6.861   2.015  0.3598  0.5972 -0.1673
 5646SOL    HW117333   2.294   6.769   1.989  0.0929  0.4923  0.2748
 5646SOL    HW217334   2.289   6.910   1.934 -0.9011  0.2975 -0.1582
 5647SOL     OW17335   3.764   1.965   6.883 -0.0335 -0.0501 -0.5913
 5647SOL    HW117336   3.715   2.011   6.951  2.8671  0.3363  1.3819
 5647SOL    HW217337   3.814   2.034   6.838  0.2777 -0.6661 -1.2128
 5648SOL     OW17338   1.628   5.811   2.097 -0.3581 -0.3806  0.4033
 5648SOL    HW117339   1.581   5.786   2.177  0.3568 -0.3162  0.8517
 5648SOL    HW217340   1.704   5.860   2.128 -0.2965  0.0143 -0.3403
 5649SOL     OW17341   1.975   5.944   2.480 -0.0429 -0.0781  0.0921
 5649SOL    HW117342   2.020   5.976   2.401 -0.9851  0.1877 -0.3486
 5649SOL    HW217343   2.012   5.857   2.495  1.9988  0.8587  0.8572
 5650SOL     OW17344   0.972   1.134   6.419  0.2927 -0.4305  0.4229
 5650SOL    HW117345   1.005   1.206   6.473  1.2473 -0.5596  0.0378
 5650SOL    HW217346   1.023   1.139   6.338 -0.4744 -0.8035 -0.0977
 5651SOL     OW17347   1.947   1.579   2.855  0.3059 -0.1248  0.1907
 5651SOL    HW117348   1.915   1.609   2.940  2.0291  1.8780  0.2175
 5651SOL    HW217349   1.925   1.650   2.795 -1.0741 -1.5962 -1.1516
 5652SOL     OW17350   6.789   4.453   1.849 -0.0957  0.0554  0.1874
 5652SOL    HW117351   6.884   4.445   1.857 -0.3235 -1.1751  2.4778
 5652SOL    HW217352   6.768   4.539   1.885  0.1174  0.3041 -0.2679
 5653SOL     OW17353   6.936   5.556   0.650  0.3123  0.3340  0.0508
 5653SOL    HW117354   6.971   5.597   0.572 -0.8463 -0.6630 -1.0376
 5653SOL    HW217355   6.842   5.551   0.634  0.3167 -2.0115  0.4600
 5654SOL     OW17356   6.553   3.732   5.385  0.1834  0.2937  0.1824
 5654SOL    HW117357   6.505   3.658   5.348  0.0598  0.2620  0.4086
 5654SOL    HW217358   6.640   3.698   5.405  0.4581  0.4633 -0.6540
 5655SOL     OW17359   2.586   1.357   3.207 -0.3095  0.1188  0.7810
 5655SOL    HW117360   2.593   1.263   3.220 -0.3118  0.3093  2.3627
 5655SOL    HW217361   2.495   1.370   3.178  0.2596 -0.5253 -1.5018
 5656SOL     OW17362   1.105   3.542   4.981 -0.0784 -0.3997 -0.0003
 5656SOL    HW117363   1.141   3.533   4.893 -1.5657 -0.5508 -0.6256
 5656SOL    HW217364   1.077   3.633   4.986  3.6062  0.8387  1.8241
 5657SOL     OW17365   0.483   1.582   4.789 -0.5020 -0.3139  0.3809
 5657SOL    HW117366   0.510   1.653   4.847 -1.0154  0.0829  0.1425
 5657SOL    HW217367   0.399   1.611   4.753  0.2157 -0.1709 -1.2297
 5658SOL     OW17368   0.632   2.698   4.757 -0.1012  0.5423 -0.2607
 5658SOL    HW117369   0.592   2.662   4.836 -2.3943  1.2508 -0.9953
 5658SOL    HW217370   0.690   2.629   4.725  0.6157  0.1152  1.8228
 5659SOL     OW17371   4.218   5.112   3.238 -0.4386  0.0850 -0.1655
 5659SOL    HW117372   4.130   5.085   3.263 -0.5386  0.2918 -0.2973
 5659SOL    HW217373   4.257   5.033   3.200  0.1468 -0.6111  1.7540
 5660SOL     OW17374   3.295   3.946   1.965  0.1064 -0.6073 -0.5069
 5660SOL    HW117375   3.304   3.864   2.014  0.5152  0.1366  0.7147
 5660SOL    HW217376   3.380   3.958   1.923  0.1247 -0.7061 -0.4977
 5661SOL     OW17377   2.860   0.962   0.362 -0.0864 -0.1663  0.1250
 5661SOL    HW117378   2.929   0.932   0.421 -0.5989  2.2703  2.1298
 5661SOL    HW217379   2.889   0.934   0.275  1.7142 -2.1300  1.2585
 5662SOL     OW17380   0.898   3.262   3.725 -0.4314  0.1381 -0.3842
 5662SOL    HW117381   0.878   3.333   3.665 -2.9230  0.8954  1.1814
 5662SOL    HW217382   0.836   3.193   3.703  0.2670 -0.5650 -0.2305
 5663SOL     OW17383   5.557   3.437   2.433 -0.6375  0.1817 -0.7162
 5663SOL    HW117384   5.548   3.503   2.502 -2.9429 -1.3182  0.5555
 5663SOL    HW217385   5.512   3.476   2.358 -0.3494  0.8008 -0.5748
 5664SOL     OW17386   6.700   6.484   5.566 -0.7135  1.0138  0.0408
 5664SOL    HW117387   6.761   6.448   5.502 -0.4462  1.6754 -0.0781
 5664SOL    HW217388   6.617   6.439   5.547 -0.8236  1.7062 -1.2336
 5665SOL     OW17389   3.052   5.606   4.686  0.0543 -0.1796 -0.5346
 5665SOL    HW117390   2.977   5.551   4.706 -0.3521  0.7794  0.6727
 5665SOL    HW217391   3.114   5.547   4.642 -1.1730 -1.0979 -1.0753
 5666SOL     OW17392   2.504   2.096   1.963 -0.5281 -0.5379  0.4368
 5666SOL    HW117393   2.548   2.173   1.926  0.9193 -1.1455  0.8210
 5666SOL    HW217394   2.491   2.038   1.889  0.6481 -0.9557  0.5375
 5667SOL     OW17395   3.988   1.846   0.987 -0.3529 -0.3070  0.3196
 5667SOL    HW117396   4.061   1.792   0.958 -2.0025 -2.5811  0.1321
 5667SOL    HW217397   4.006   1.865   1.079  0.9423  0.0507  0.0070
 5668SOL     OW17398   4.747   5.174   1.060 -0.2233  0.0665 -0.2688
 5668SOL    HW117399   4.754   5.269   1.055 -0.0354 -0.0031 -1.9362
 5668SOL    HW217400   4.687   5.151   0.988 -0.1857 -1.0801  0.0498
 5669SOL     OW17401   4.678   3.587   4.453  0.3252 -0.2643 -0.0601
 5669SOL    HW117402   4.712   3.626   4.373  1.1749  0.3124  0.5706
 5669SOL    HW217403   4.753   3.543   4.492 -0.1281 -0.7045  0.3295
 5670SOL     OW17404   6.011   0.997   4.381 -0.1436  0.1536 -0.1251
 5670SOL    HW117405   5.980   0.914   4.344  0.6855 -1.1627  1.9747
 5670SOL    HW217406   5.931   1.045   4.401 -0.6561 -0.5098 -0.5183
 5671SOL     OW17407   1.348   2.906   5.879 -0.8594  0.2112  0.1547
 5671SOL    HW117408   1.389   2.824   5.906 -1.4883 -0.8567 -1.9325
 5671SOL    HW217409   1.421   2.969   5.877  0.1257 -0.8948 -0.5027
 5672SOL     OW17410   0.670   1.741   2.206  0.0807  0.1230  0.1335
 5672SOL    HW117411   0.603   1.785   2.153 -0.2491  0.4600  0.8170
 5672SOL    HW217412   0.640   1.752   2.296  0.0623 -1.4145  0.3299
 5673SOL     OW17413   4.748   3.959   5.535 -0.0401  0.5786  0.7269
 5673SOL    HW117414   4.724   4.049   5.515 -0.1289  0.4002  0.0031
 5673SOL    HW217415   4.816   3.967   5.602  0.6904  1.2279 -0.0631
 5674SOL     OW17416   3.197   3.808   4.806  0.2023  0.3200  0.4159
 5674SOL    HW117417   3.141   3.887   4.804 -0.4661  0.0274  3.1976
 5674SOL    HW217418   3.138   3.737   4.782  0.4132  0.4509 -0.5355
 5675SOL     OW17419   2.249   3.275   3.067  0.7505  0.6172 -0.1656
 5675SOL    HW117420   2.234   3.229   3.150  0.3752 -0.3075 -0.7407
 5675SOL    HW217421   2.184   3.240   3.007  0.2057  2.1690 -0.5290
 5676SOL     OW17422   1.833   3.146   2.008  0.3924  0.2701 -0.1941
 5676SOL    HW117423   1.853   3.156   2.101  0.9550  1.6009 -0.4240
 5676SOL    HW217424   1.738   3.157   2.002  0.3187 -0.1397  0.2609
 5677SOL     OW17425   3.471   0.565   6.510  0.3999 -0.3149 -0.3781
 5677SOL    HW117426   3.376   0.574   6.503  0.1980 -1.6921  0.3096
 5677SOL    HW217427   3.498   0.635   6.569 -0.4355 -0.9822  0.8399
 5678SOL     OW17428   5.518   1.585   3.951  0.1019 -0.1063 -0.3918
 5678SOL    HW117429   5.505   1.578   4.045  0.2930  0.4042 -0.3267
 5678SOL    HW217430   5.554   1.500   3.925  2.1559  0.4804  0.3475
 5679SOL     OW17431   3.977   0.078   2.961  0.0940 -0.0290 -0.2473
 5679SOL    HW117432   4.030   0.149   2.996 -0.8680 -0.3342  2.0223
 5679SOL    HW217433   3.916   0.121   2.901  0.1461  0.9410  0.3745
 5680SOL     OW17434   4.990   1.937   6.033  0.5497  0.1897 -0.0306
 5680SOL    HW117435   4.916   1.949   5.974 -0.0422 -0.7702  0.4852
 5680SOL    HW217436   5.039   1.864   5.996  0.1581 -0.4391  0.6444
 5681SOL     OW17437   0.986   3.343   4.178 -0.7636 -0.4322 -1.1623
 5681SOL    HW117438   0.904   3.300   4.151 -2.4160  1.9467 -0.2202
 5681SOL    HW217439   0.971   3.368   4.269  0.5036  1.2150 -1.3695
 5682SOL     OW17440   1.638   4.122   4.160  0.0062 -0.1564  0.1191
 5682SOL    HW117441   1.684   4.056   4.108 -0.4570 -1.0306  0.8063
 5682SOL    HW217442   1.624   4.195   4.099  2.5882  0.3079 -0.0358
 5683SOL     OW17443   2.297   1.232   1.121 -0.1315  0.1189 -0.0486
 5683SOL    HW117444   2.376   1.284   1.135 -0.8857  1.1069  0.6878
 5683SOL    HW217445   2.248   1.279   1.054 -0.8004  0.3565  0.5912
 5684SOL     OW17446   5.566   0.752   6.226  0.0422  0.0121  0.4578
 5684SOL    HW117447   5.557   0.758   6.131 -0.0764 -1.6543  0.3220
 5684SOL    HW217448   5.476   0.755   6.259  0.0680  0.3621  0.4913
 5685SOL     OW17449   2.179   4.954   2.788  0.4603 -0.2915 -0.3293
 5685SOL    HW117450   2.258   4.922   2.834  0.6382 -0.9634 -1.0791
 5685SOL    HW217451   2.213   5.014   2.721  0.4215 -1.2277 -1.2089
 5686SOL     OW17452   6.139   3.733   2.325 -0.0713 -0.0019 -0.1222
 5686SOL    HW117453   6.067   3.670   2.322  2.0747 -2.7182  0.8367
 5686SOL    HW217454   6.162   3.748   2.233 -1.6450  0.6988 -0.4202
 5687SOL     OW17455   5.454   2.055   5.461 -0.3898  0.6200  0.1634
 5687SOL    HW117456   5.389   2.077   5.394  0.6264 -1.3450 -1.5774
 5687SOL    HW217457   5.539   2.069   5.418  0.3149 -3.2051 -0.0669
 5688SOL     OW17458   0.044   3.013   4.107 -0.5251  0.2854  0.0783
 5688SOL    HW117459   0.110   3.083   4.106 -0.8010  0.5666  1.0007
 5688SOL    HW217460  -0.012   3.032   4.031  1.2981 -0.8108 -1.6552
 5689SOL     OW17461   0.609   1.399   3.334 -0.1843  0.3442  0.2670
 5689SOL    HW117462   0.527   1.413   3.287 -1.2326  0.3135  1.9683
 5689SOL    HW217463   0.665   1.472   3.308 -0.4081 -0.1059 -1.5779
 5690SOL     OW17464   3.380   0.839   1.722 -0.6873 -0.1688  0.1838
 5690SOL    HW117465   3.430   0.909   1.681 -2.5198  1.5119  0.6587
 5690SOL    HW217466   3.439   0.802   1.788  0.0309  1.5866  0.5787
 5691SOL     OW17467   4.816   4.693   0.969 -0.1977 -0.0464 -0.1135
 5691SOL    HW117468   4.857   4.622   0.919  0.0166 -0.7173  0.9712
 5691SOL    HW217469   4.828   4.771   0.915 -1.0349 -0.9306 -1.6591
 5692SOL     OW17470   4.171   4.406   0.821  0.0602 -0.5914  0.0914
 5692SOL    HW117471   4.262   4.395   0.797  0.1900  0.2820  0.1463
 5692SOL    HW217472   4.121   4.364   0.751  0.4567  0.7894 -1.0605
 5693SOL     OW17473   1.630   1.919   6.673  0.7159  0.4256  0.2404
 5693SOL    HW117474   1.567   1.983   6.640  1.3878  1.0888  0.2160
 5693SOL    HW217475   1.694   1.971   6.722  0.5050 -0.3927  1.4221
 5694SOL     OW17476   2.863   1.841   6.757  0.1612  0.4948 -0.0170
 5694SOL    HW117477   2.886   1.927   6.791 -0.5224  0.8308 -0.3773
 5694SOL    HW217478   2.931   1.822   6.693 -0.1219  1.1319 -0.5208
 5695SOL     OW17479   4.921   0.660   4.754  0.0244  0.7681  0.3742
 5695SOL    HW117480   4.912   0.619   4.668  0.7023 -0.6117  0.9304
 5695SOL    HW217481   5.003   0.625   4.789 -0.9665  0.1309  2.1847
 5696SOL     OW17482   5.018   2.070   4.862  0.7172  0.2673 -0.6687
 5696SOL    HW117483   5.091   2.087   4.803 -1.8214 -1.1988 -4.6657
 5696SOL    HW217484   4.942   2.105   4.816 -1.3335  0.8613  2.8131
 5697SOL     OW17485   3.011   3.928   3.127  0.0665  0.3533 -0.0954
 5697SOL    HW117486   2.971   3.858   3.179 -0.4891 -0.1782 -1.1900
 5697SOL    HW217487   3.040   3.993   3.191 -0.9459 -0.0872  0.8411
 5698SOL     OW17488   1.560   2.880   6.185  0.0229 -0.4167  0.0428
 5698SOL    HW117489   1.467   2.867   6.166 -0.4473 -0.6825  2.2088
 5698SOL    HW217490   1.576   2.825   6.261  1.7308  0.3482  0.2714
 5699SOL     OW17491   0.421   6.689   6.870 -0.2314 -0.6461  0.6273
 5699SOL    HW117492   0.509   6.663   6.896 -0.5395 -1.0631  1.2795
 5699SOL    HW217493   0.434   6.759   6.807  0.5974 -1.5770 -0.2627
 5700SOL     OW17494   3.346   0.444   3.042 -0.3086 -0.5681  0.5975
 5700SOL    HW117495   3.254   0.434   3.016 -0.8644 -1.2189  2.6261
 5700SOL    HW217496   3.390   0.476   2.963 -2.5264  1.1790 -0.0302
 5701SOL     OW17497   0.103   4.668   2.200 -0.0422 -0.1124 -0.1834
 5701SOL    HW117498   0.128   4.648   2.109 -0.6182 -1.5564 -0.0586
 5701SOL    HW217499   0.156   4.608   2.252 -0.0505  0.3941  0.4112
 5702SOL     OW17500   3.446   4.407   3.756  0.3967  0.4061  0.0367
 5702SOL    HW117501   3.541   4.397   3.760  0.3684 -0.4545 -1.0180
 5702SOL    HW217502   3.412   4.318   3.751 -0.4834  0.6960  0.5605
 5703SOL     OW17503   6.617   3.672   1.216  0.1286 -0.2086  0.0735
 5703SOL    HW117504   6.543   3.687   1.157  0.6513 -0.7054 -0.7249
 5703SOL    HW217505   6.580   3.618   1.286 -0.3999  0.0285 -0.0139
 5704SOL     OW17506   2.891   4.522   1.497 -0.2456  0.0340 -0.0703
 5704SOL    HW117507   2.884   4.442   1.550  2.7072  0.1035  0.5681
 5704SOL    HW217508   2.858   4.591   1.555 -2.9168 -0.6097 -0.6584
 5705SOL     OW17509   2.983   6.648   4.685  0.0937 -0.3059 -0.2164
 5705SOL    HW117510   2.968   6.743   4.688  0.8269 -0.1549 -0.9263
 5705SOL    HW217511   3.038   6.635   4.607 -0.3394 -1.3640 -0.3627
 5706SOL     OW17512   1.011   1.785   4.357  0.4252  0.1136  0.1571
 5706SOL    HW117513   1.054   1.808   4.439 -0.8917 -0.4152  1.0270
 5706SOL    HW217514   1.056   1.837   4.290  0.0493  2.2953  1.5149
 5707SOL     OW17515   6.671   0.847   0.498 -0.2778  0.4871  0.4936
 5707SOL    HW117516   6.622   0.801   0.430  1.9662 -2.5930  0.7192
 5707SOL    HW217517   6.632   0.816   0.580  1.5300 -1.6526  0.6607
 5708SOL     OW17518   0.591   1.744   3.066  0.7241  0.2347  0.1166
 5708SOL    HW117519   0.522   1.809   3.079 -1.5425 -1.9436 -0.2425
 5708SOL    HW217520   0.613   1.751   2.974 -0.0250  0.0486 -0.0844
 5709SOL     OW17521   0.853   0.023   5.819 -0.4491 -0.0505  0.2901
 5709SOL    HW117522   0.850  -0.030   5.739  0.4697  0.1507  0.1093
 5709SOL    HW217523   0.827  -0.037   5.889 -0.2749 -0.5002 -0.0273
 5710SOL     OW17524   1.799   4.384   5.170 -0.7948 -0.4141  0.0026
 5710SOL    HW117525   1.862   4.391   5.242 -0.6944 -0.6905 -0.0575
 5710SOL    HW217526   1.722   4.344   5.209  0.2485 -3.2811 -0.6232
 5711SOL     OW17527   4.431   5.330   5.560  0.3731  0.3743 -0.1765
 5711SOL    HW117528   4.360   5.269   5.540 -0.5495  1.7022 -1.1314
 5711SOL    HW217529   4.466   5.355   5.475  0.6685  1.2309  0.1846
 5712SOL     OW17530   2.369   3.323   1.292 -0.6447 -0.1386  0.4820
 5712SOL    HW117531   2.461   3.307   1.268 -0.7774  0.5098 -0.5106
 5712SOL    HW217532   2.367   3.312   1.387  0.4649 -0.1434  0.5189
 5713SOL     OW17533   1.636   6.343   2.348 -0.2288 -0.6822  0.2841
 5713SOL    HW117534   1.567   6.350   2.414 -0.9904  0.8922 -0.6163
 5713SOL    HW217535   1.660   6.250   2.348 -0.1373 -0.7431  2.7913
 5714SOL     OW17536   0.643   4.821   3.003  0.1558 -0.8233 -0.9489
 5714SOL    HW117537   0.605   4.899   3.042 -0.3689 -0.8435 -1.3998
 5714SOL    HW217538   0.737   4.840   2.995  0.1009 -0.4259 -0.6353
 5715SOL     OW17539   0.846   0.633   2.963 -0.1504  0.1247 -0.8829
 5715SOL    HW117540   0.923   0.688   2.979 -0.5214  0.3663  0.1121
 5715SOL    HW217541   0.801   0.676   2.891 -0.5147  1.2313 -0.0272
 5716SOL     OW17542   6.849   1.457   0.677  0.1968  0.2929 -0.7572
 5716SOL    HW117543   6.836   1.548   0.705  1.8821  0.5845 -0.8208
 5716SOL    HW217544   6.922   1.426   0.730 -1.8457 -1.8638  1.0179
 5717SOL     OW17545   0.309   2.966   4.420  0.1712  0.5316 -0.0197
 5717SOL    HW117546   0.381   2.910   4.449 -0.2157 -0.9571 -1.7144
 5717SOL    HW217547   0.337   2.998   4.334 -0.5203  1.2409  0.0074
 5718SOL     OW17548   0.026   6.164   4.725 -0.1909  0.0823  0.4494
 5718SOL    HW117549   0.096   6.206   4.675 -0.9216  0.4705 -0.2803
 5718SOL    HW217550   0.070   6.124   4.799  0.9181 -0.3843 -0.4286
 5719SOL     OW17551   3.023   1.563   4.876  0.3139  0.4058  0.2262
 5719SOL    HW117552   3.089   1.530   4.937 -0.0360  1.4737  1.2196
 5719SOL    HW217553   3.070   1.573   4.793  1.2853  0.7349  0.8048
 5720SOL     OW17554   4.947   4.949   5.850 -0.2361 -0.4101  0.3538
 5720SOL    HW117555   5.016   4.885   5.864 -1.3303 -1.6615  0.1934
 5720SOL    HW217556   4.894   4.944   5.930  0.5080  1.4395  1.0293
 5721SOL     OW17557   1.303   2.682   0.739  0.2573  0.1411 -0.8232
 5721SOL    HW117558   1.275   2.591   0.749  0.3697  0.2414  0.5778
 5721SOL    HW217559   1.394   2.682   0.770  0.4260  0.6453 -1.2989
 5722SOL     OW17560   3.869   3.284   0.588  0.1600 -0.8766  0.0674
 5722SOL    HW117561   3.810   3.352   0.620 -0.6533 -0.9770 -1.1567
 5722SOL    HW217562   3.915   3.253   0.666  1.0927  1.5476  0.5900
 5723SOL     OW17563   0.329   0.373   3.745  0.2439  0.0657  0.0939
 5723SOL    HW117564   0.420   0.397   3.761  0.2409 -0.3827  0.8693
 5723SOL    HW217565   0.322   0.283   3.777 -1.0939  0.9494  2.5671
 5724SOL     OW17566   1.470   3.846   0.504  1.1509  0.2632 -0.6851
 5724SOL    HW117567   1.439   3.769   0.552 -0.9457  1.8415  0.6833
 5724SOL    HW217568   1.565   3.845   0.516  1.2401 -2.2726 -1.0475
 5725SOL     OW17569   0.152   5.621   2.310 -0.3336 -0.0364  0.1288
 5725SOL    HW117570   0.180   5.564   2.238  0.2156 -1.1112  1.1479
 5725SOL    HW217571   0.057   5.614   2.311 -0.2660 -1.1048  0.3425
 5726SOL     OW17572   0.334   6.411   1.032  0.7460  0.1466 -0.1031
 5726SOL    HW117573   0.320   6.456   0.949  0.1146  2.0059  0.9419
 5726SOL    HW217574   0.423   6.377   1.027  0.8615  0.5872 -1.3720
 5727SOL     OW17575   0.801   5.366   6.754 -0.1344 -0.4372  0.1649
 5727SOL    HW117576   0.867   5.430   6.780 -0.5294 -0.3928  1.1260
 5727SOL    HW217577   0.734   5.372   6.822  0.1709 -2.3908  0.7079
 5728SOL     OW17578   4.975   4.909   0.174 -0.3306  0.6000  0.5403
 5728SOL    HW117579   4.955   4.947   0.089 -1.8738 -0.5711  0.3269
 5728SOL    HW217580   5.013   4.980   0.225  1.4552  1.1249 -1.3671
 5729SOL     OW17581   3.223   6.860   4.365  0.1345  0.1534 -0.0999
 5729SOL    HW117582   3.215   6.824   4.277  0.3779  0.7749 -0.3784
 5729SOL    HW217583   3.313   6.891   4.370  0.3021 -0.4023  0.5736
 5730SOL     OW17584   5.790   3.632   6.600  0.4382 -0.5876 -0.3060
 5730SOL    HW117585   5.704   3.660   6.631  1.1574  1.2127  0.2117
 5730SOL    HW217586   5.778   3.622   6.505 -0.2473  0.1267 -0.3147
 5731SOL     OW17587   1.574   5.491   4.095 -0.5335 -0.2549  0.2012
 5731SOL    HW117588   1.597   5.481   4.003 -1.4567 -1.6906  0.0905
 5731SOL    HW217589   1.479   5.476   4.098 -1.1543  3.0006  0.9627
 5732SOL     OW17590   2.628   3.549   5.567  0.1532 -0.2263  0.2865
 5732SOL    HW117591   2.536   3.540   5.545  0.4915 -1.3697 -0.7927
 5732SOL    HW217592   2.630   3.607   5.643 -1.5468 -1.3844  1.2643
 5733SOL     OW17593   0.651   4.118   6.711  0.5802 -0.0939 -0.3126
 5733SOL    HW117594   0.660   4.156   6.798  0.1863 -0.3542 -0.1569
 5733SOL    HW217595   0.615   4.030   6.726  2.0333 -0.7796 -0.6214
 5734SOL     OW17596   0.232   0.100   5.373  0.4219 -0.2929 -0.1560
 5734SOL    HW117597   0.178   0.175   5.397  1.0433  0.1152  0.0075
 5734SOL    HW217598   0.268   0.068   5.456  1.9805  0.6636 -0.4130
 5735SOL     OW17599   6.854   4.048   5.199 -0.0636  0.1699 -0.5997
 5735SOL    HW117600   6.948   4.067   5.194 -0.2809  1.4102 -0.2469
 5735SOL    HW217601   6.844   4.000   5.281  0.0321  1.6286  0.2988
 5736SOL     OW17602   2.780   1.954   2.450 -0.2082 -0.1118  0.7334
 5736SOL    HW117603   2.711   2.010   2.487 -0.6351  0.8143 -1.3473
 5736SOL    HW217604   2.759   1.949   2.357  0.5771 -2.7155  0.6391
 5737SOL     OW17605   4.851   5.331   4.755 -0.4570 -0.2917 -0.1775
 5737SOL    HW117606   4.767   5.377   4.754 -0.8679 -0.8377 -3.3785
 5737SOL    HW217607   4.827   5.238   4.765 -0.2190 -0.3999 -0.5851
 5738SOL     OW17608   0.474   1.070   0.279 -0.0581  0.3163  0.0330
 5738SOL    HW117609   0.444   1.160   0.279  2.7414  1.3412 -0.0092
 5738SOL    HW217610   0.506   1.055   0.190  2.3085  0.3740  0.8138
 5739SOL     OW17611   6.251   0.808   4.158 -0.0044  0.9282 -0.1799
 5739SOL    HW117612   6.156   0.806   4.166 -0.1892  0.7443 -1.9711
 5739SOL    HW217613   6.272   0.902   4.152  0.0400  1.0146  1.1385
 5740SOL     OW17614   5.743   2.641   4.065 -0.2752 -0.1149 -0.2893
 5740SOL    HW117615   5.675   2.655   4.131 -0.0337 -1.0334  0.1720
 5740SOL    HW217616   5.716   2.696   3.992  0.3144  2.2545  1.1419
 5741SOL     OW17617   4.619   6.549   6.676 -0.0318  0.2192  0.1312
 5741SOL    HW117618   4.528   6.520   6.682 -0.7627  2.4375  0.7243
 5741SOL    HW217619   4.660   6.519   6.757 -0.0582 -1.2101 -0.3511
 5742SOL     OW17620   4.938   4.604   1.550 -0.4645  0.1445  0.0468
 5742SOL    HW117621   4.962   4.608   1.642  0.8084 -0.5380 -0.2283
 5742SOL    HW217622   4.962   4.690   1.515  1.3277 -0.3985 -0.1384
 5743SOL     OW17623   4.707   6.352   6.907  0.1363  0.1511 -0.1049
 5743SOL    HW117624   4.701   6.296   6.829 -0.0658  2.1492 -1.5795
 5743SOL    HW217625   4.616   6.364   6.934  0.2335 -0.9663  0.8085
 5744SOL     OW17626   6.846   3.753   2.910 -0.2161 -0.3481 -0.3815
 5744SOL    HW117627   6.853   3.743   3.005  1.1738 -1.6344 -0.5815
 5744SOL    HW217628   6.809   3.841   2.897 -1.2742 -0.5002  1.3419
 5745SOL     OW17629   3.760   4.250   4.956  0.0307  0.0223  0.0161
 5745SOL    HW117630   3.777   4.179   4.894  1.3295 -0.1771  0.5752
 5745SOL    HW217631   3.774   4.330   4.905 -0.6703 -0.1184 -0.4078
 5746SOL     OW17632   1.939   4.742   1.277 -0.1157 -0.4994  0.4475
 5746SOL    HW117633   1.966   4.831   1.253  0.7664 -0.6243  0.9229
 5746SOL    HW217634   1.961   4.735   1.370 -0.9671 -0.9344  0.6306
 5747SOL     OW17635   2.357   2.527   2.196 -0.3054 -0.4676 -0.5741
 5747SOL    HW117636   2.383   2.444   2.237  0.2253 -0.2159 -0.3930
 5747SOL    HW217637   2.437   2.579   2.194 -0.6234  0.0211 -0.7400
 5748SOL     OW17638   4.314   0.050   6.935 -0.3544 -0.2095  0.1496
 5748SOL    HW117639   4.325   0.144   6.929  1.9019 -0.5311 -2.0041
 5748SOL    HW217640   4.387   0.021   6.991 -0.0902 -0.8185 -0.5041
 5749SOL     OW17641   4.725   0.649   3.189  0.0070  0.1154 -0.2943
 5749SOL    HW117642   4.739   0.653   3.283  2.2159  1.2153 -0.6084
 5749SOL    HW217643   4.637   0.686   3.176 -0.7201 -0.9252  1.3591
 5750SOL     OW17644   3.480   1.749   6.056 -0.0082 -0.3636  0.1971
 5750SOL    HW117645   3.522   1.730   5.973 -1.5874  0.0995 -0.7524
 5750SOL    HW217646   3.542   1.806   6.102  0.7600 -0.3850 -0.7792
 5751SOL     OW17647   3.579   0.713   1.914  0.2513 -0.0296 -0.3882
 5751SOL    HW117648   3.495   0.677   1.942  0.5846 -0.9368 -0.5049
 5751SOL    HW217649   3.635   0.636   1.903  0.7210  0.4538 -1.5570
 5752SOL     OW17650   2.999   1.531   1.325 -0.2607 -0.2686  0.1092
 5752SOL    HW117651   3.009   1.613   1.277 -0.3509  1.0276  2.1515
 5752SOL    HW217652   3.073   1.531   1.387  0.2846 -2.2178 -0.4916
 5753SOL     OW17653   6.912   1.660   0.266 -0.4639 -1.0027  0.3299
 5753SOL    HW117654   6.820   1.668   0.290 -0.2751 -0.1132  0.8140
 5753SOL    HW217655   6.957   1.722   0.323  0.4326 -1.3969  0.0702
 5754SOL     OW17656   4.526   4.808   3.994 -0.3464  0.2676 -0.3070
 5754SOL    HW117657   4.523   4.748   4.068  1.6031  1.2987  0.6842
 5754SOL    HW217658   4.436   4.842   3.987 -1.1775 -1.7567 -0.1028
 5755SOL     OW17659   3.122   5.219   2.848 -0.4424 -0.2347  0.6521
 5755SOL    HW117660   3.178   5.220   2.770  0.1730 -1.8176  1.0286
 5755SOL    HW217661   3.039   5.183   2.817 -1.3617  2.1716  0.0802
 5756SOL     OW17662   1.368   0.597   3.070  0.3379 -0.5649  0.3189
 5756SOL    HW117663   1.277   0.620   3.053 -0.2059 -3.0012 -0.5062
 5756SOL    HW217664   1.363   0.515   3.120  2.0809 -0.3171  0.9658
 5757SOL     OW17665   4.273   1.176   2.064 -0.7556 -0.2114  0.0683
 5757SOL    HW117666   4.324   1.220   1.997 -1.5275 -1.1529 -1.1675
 5757SOL    HW217667   4.286   1.229   2.143  1.5663 -0.0821 -0.3589
 5758SOL     OW17668   0.444   6.667   5.972  0.0203 -0.1722  0.2417
 5758SOL    HW117669   0.427   6.738   6.033  0.5201  0.6779 -0.5860
 5758SOL    HW217670   0.377   6.676   5.905  2.4049  2.0630 -2.0476
 5759SOL     OW17671   3.320   0.817   6.328  0.1443  0.3935  0.3056
 5759SOL    HW117672   3.381   0.890   6.342  2.4233 -0.9970 -1.6459
 5759SOL    HW217673   3.274   0.839   6.247  0.5995 -0.1412 -0.1082
 5760SOL     OW17674   4.780   6.191   1.254  0.1276 -0.4278 -0.2862
 5760SOL    HW117675   4.840   6.210   1.327  0.4934 -0.4178 -0.5834
 5760SOL    HW217676   4.711   6.256   1.262  0.2386 -0.3405 -0.0254
 5761SOL     OW17677   6.333   5.917   6.735  0.4274  0.1667  0.3176
 5761SOL    HW117678   6.395   5.973   6.782  0.3374  0.6416 -0.1143
 5761SOL    HW217679   6.335   5.834   6.782  0.5149  0.5504  1.0210
 5762SOL     OW17680   2.762   1.028   6.147  0.9709  0.2135  0.2659
 5762SOL    HW117681   2.669   1.048   6.137  1.2570  1.2444 -0.5029
 5762SOL    HW217682   2.788   1.074   6.227  0.6087 -0.9509  1.0892
 5763SOL     OW17683   0.245   0.928   3.857 -0.3634  0.1722  0.4178
 5763SOL    HW117684   0.272   0.974   3.777 -2.8221 -2.4275 -2.1441
 5763SOL    HW217685   0.266   0.836   3.841 -6.4141 -1.5144 -0.2424
 5764SOL     OW17686   3.280   3.325   3.467 -0.1478 -0.0172  0.2535
 5764SOL    HW117687   3.191   3.354   3.488 -0.1945  0.2060 -0.2331
 5764SOL    HW217688   3.333   3.358   3.539 -0.7274 -1.7550  1.5233
 5765SOL     OW17689   6.661   3.553   5.092  0.1723 -0.0127  0.2390
 5765SOL    HW117690   6.646   3.643   5.061  1.5202  0.6407  1.3691
 5765SOL    HW217691   6.580   3.530   5.137  0.1158  0.9768  0.6831
 5766SOL     OW17692   1.484   5.107   0.350 -0.4413 -0.3801 -0.3401
 5766SOL    HW117693   1.484   5.190   0.301 -1.5271  0.0406  0.3401
 5766SOL    HW217694   1.473   5.040   0.283 -2.1893  0.2057 -0.6968
 5767SOL     OW17695   1.699   2.410   6.765 -0.3919 -0.2489  0.2636
 5767SOL    HW117696   1.624   2.354   6.745  0.3883 -1.2741  0.1197
 5767SOL    HW217697   1.695   2.421   6.860 -1.0198  0.1525  0.1998
 5768SOL     OW17698   0.891   4.684   1.291 -0.6139 -0.1782 -0.2875
 5768SOL    HW117699   0.956   4.626   1.252 -0.7511 -0.3466 -0.2650
 5768SOL    HW217700   0.819   4.627   1.317 -0.0422 -0.2604  1.2791
 5769SOL     OW17701   0.105   0.279   0.927  0.1582 -0.5594 -0.3671
 5769SOL    HW117702   0.156   0.351   0.964  1.8446 -1.5021 -0.7168
 5769SOL    HW217703   0.018   0.316   0.911  0.8021  1.2151 -0.0009
 5770SOL     OW17704   2.999   0.051   1.787  0.6231  0.0009 -0.1220
 5770SOL    HW117705   3.054   0.076   1.713  1.1614 -0.4644  0.1189
 5770SOL    HW217706   2.974   0.134   1.828 -0.2276  0.3071 -1.2033
 5771SOL     OW17707   4.380   0.209   4.408 -0.2785 -0.4781  0.6933
 5771SOL    HW117708   4.284   0.203   4.410 -0.4102  0.9534  0.0292
 5771SOL    HW217709   4.409   0.118   4.401 -1.5675 -0.9734  1.3018
 5772SOL     OW17710   0.292   3.168   0.634  0.0489  0.1607  0.0728
 5772SOL    HW117711   0.337   3.133   0.557  0.8851  1.1705  0.0858
 5772SOL    HW217712   0.219   3.108   0.648 -0.3816  0.1836 -1.7701
 5773SOL     OW17713   3.696   1.505   1.742  0.2390  0.8913  0.2125
 5773SOL    HW117714   3.725   1.538   1.827 -0.7702 -0.4069  1.0949
 5773SOL    HW217715   3.682   1.412   1.755  1.3439  0.3813 -1.7553
 5774SOL     OW17716   1.296   5.832   5.629  0.1557 -0.1773  0.0202
 5774SOL    HW117717   1.347   5.848   5.550  0.5739  0.0093  0.3219
 5774SOL    HW217718   1.362   5.811   5.696  0.1219  2.6825  1.1037
 5775SOL     OW17719   4.662   5.885   2.795 -0.2996 -0.0192 -0.1709
 5775SOL    HW117720   4.674   5.827   2.870  0.4758  1.3603  0.8303
 5775SOL    HW217721   4.570   5.912   2.799  0.5440  3.0252  2.6687
 5776SOL     OW17722   1.488   0.697   2.643 -0.5862  0.5736 -0.6232
 5776SOL    HW117723   1.554   0.705   2.575  0.3468  0.2866  0.2214
 5776SOL    HW217724   1.523   0.632   2.704 -0.8544  1.6213  0.7161
 5777SOL     OW17725   6.571   5.622   6.118  0.0599 -0.0500  0.2876
 5777SOL    HW117726   6.491   5.576   6.091  0.8738 -0.6847 -1.2020
 5777SOL    HW217727   6.544   5.713   6.129 -1.0853 -0.4398  0.8725
 5778SOL     OW17728   0.580   2.292   5.039  0.0624 -0.1564 -0.1414
 5778SOL    HW117729   0.530   2.210   5.042 -1.5784  0.7121 -1.6818
 5778SOL    HW217730   0.619   2.300   5.126 -1.4877 -1.5264  0.7308
 5779SOL     OW17731   0.018   0.777   4.720  0.6026  0.4534 -0.0835
 5779SOL    HW117732   0.038   0.763   4.628  1.8021 -0.4809  0.2894
 5779SOL    HW217733  -0.065   0.824   4.720 -2.1113 -3.7161 -1.6358
 5780SOL     OW17734   4.058   0.744   4.920  0.0775  0.0118  0.1358
 5780SOL    HW117735   4.043   0.790   5.003  0.5803  2.0344 -0.8285
 5780SOL    HW217736   4.153   0.732   4.915 -0.0809 -1.7690  0.6456
 5781SOL     OW17737   2.622   2.264   1.776 -0.3935  0.3358  0.1610
 5781SOL    HW117738   2.554   2.311   1.729 -0.0999  0.4359 -0.1672
 5781SOL    HW217739   2.695   2.259   1.715 -1.4679 -3.2832 -1.0775
 5782SOL     OW17740   1.406   6.852   3.015  0.0706 -0.0820  0.3557
 5782SOL    HW117741   1.401   6.864   2.920 -1.0407  1.7382  0.5946
 5782SOL    HW217742   1.321   6.813   3.038  0.1824 -0.1516  0.6526
 5783SOL     OW17743   3.626   3.128   6.520 -0.3538  0.1628  0.0140
 5783SOL    HW117744   3.719   3.112   6.534 -0.4095 -0.0220  0.1807
 5783SOL    HW217745   3.582   3.082   6.592 -0.4525  2.4878  1.5533
 5784SOL     OW17746   3.171   0.619   6.471 -0.1733  0.6892  0.2353
 5784SOL    HW117747   3.192   0.706   6.436 -1.8089  0.4339 -1.6226
 5784SOL    HW217748   3.092   0.633   6.523  0.1430  0.4723  0.7744
 5785SOL     OW17749   4.939   4.288   5.477  0.6583 -0.3129  0.4766
 5785SOL    HW117750   5.002   4.342   5.430  0.6320 -0.3811  0.3630
 5785SOL    HW217751   4.863   4.345   5.489  1.3677  0.3525  2.1284
 5786SOL     OW17752   1.661   5.997   5.255  0.3378  0.1183 -0.1383
 5786SOL    HW117753   1.694   5.929   5.197 -2.0588 -1.4938  0.2360
 5786SOL    HW217754   1.686   6.079   5.213 -0.0309 -0.9718 -2.6894
 5787SOL     OW17755   5.437   3.403   4.031 -0.2883  0.3042 -0.0828
 5787SOL    HW117756   5.342   3.407   4.019 -0.8447 -2.1651  2.4569
 5787SOL    HW217757   5.462   3.493   4.051 -2.2849  0.8289  0.2989
 5788SOL     OW17758   1.230   3.265   1.524 -0.3814  0.1085  0.5202
 5788SOL    HW117759   1.194   3.189   1.479  1.3695 -1.2389  1.2626
 5788SOL    HW217760   1.241   3.331   1.455  0.4384 -1.2129 -0.6524
 5789SOL     OW17761   5.710   0.838   5.451  0.0559 -0.1260  0.1092
 5789SOL    HW117762   5.674   0.851   5.363 -0.2469  1.9580  0.4945
 5789SOL    HW217763   5.652   0.888   5.509  1.8775  0.9474  1.1209
 5790SOL     OW17764   2.150   2.088   2.372 -0.7045 -0.5493 -0.4423
 5790SOL    HW117765   2.191   2.117   2.454 -2.3926 -0.8532  0.5486
 5790SOL    HW217766   2.143   2.168   2.320  0.8783 -0.4453 -0.5458
 5791SOL     OW17767   3.618   1.578   4.422 -0.1302 -0.2250 -0.3276
 5791SOL    HW117768   3.643   1.582   4.329 -2.0185  0.1154 -0.8628
 5791SOL    HW217769   3.699   1.598   4.469  0.3081  2.4055 -1.9640
 5792SOL     OW17770   6.836   4.629   1.114 -0.6244 -0.7401 -0.1267
 5792SOL    HW117771   6.872   4.695   1.055 -0.1786 -0.3833  0.5373
 5792SOL    HW217772   6.752   4.606   1.075 -1.0401  0.6115 -0.0688
 5793SOL     OW17773   3.863   1.397   6.543  0.2026  0.3874  0.3667
 5793SOL    HW117774   3.860   1.415   6.449  0.7794 -0.8425  0.0941
 5793SOL    HW217775   3.774   1.370   6.566  0.4041 -0.7907 -0.1589
 5794SOL     OW17776   4.263   4.861   3.768  0.2283  0.3956 -0.2133
 5794SOL    HW117777   4.318   4.939   3.766 -0.7638  1.1350  0.4835
 5794SOL    HW217778   4.232   4.850   3.679 -1.8752  2.4737  0.1673
 5795SOL     OW17779   4.673   1.354   1.528  0.3051  0.3353  0.4237
 5795SOL    HW117780   4.764   1.331   1.508 -0.1596 -1.5482  0.2271
 5795SOL    HW217781   4.632   1.368   1.443  0.6230  2.2298  0.5497
 5796SOL     OW17782   0.879   1.446   1.136  0.1069 -0.3314  0.2738
 5796SOL    HW117783   0.817   1.383   1.172 -1.7940  1.2405 -0.0940
 5796SOL    HW217784   0.894   1.509   1.207  1.4157 -0.7434  0.3967
 5797SOL     OW17785   3.549   3.066   4.672 -1.2716 -0.1244  0.2300
 5797SOL    HW117786   3.573   3.110   4.590 -2.7414  0.4901  0.0953
 5797SOL    HW217787   3.458   3.092   4.687 -1.8141 -2.1774  0.7868
 5798SOL     OW17788   3.011   4.291   4.378  0.2411 -0.2489 -0.3369
 5798SOL    HW117789   2.992   4.369   4.326  0.5723 -0.3422 -0.6062
 5798SOL    HW217790   2.961   4.222   4.337  0.9893 -0.4528 -0.9247
 5799SOL     OW17791   2.749   5.096   4.761 -0.0373  0.5996  0.5693
 5799SOL    HW117792   2.791   5.012   4.776 -0.5944  0.0108 -1.0332
 5799SOL    HW217793   2.806   5.141   4.699 -1.6139 -0.1509 -1.5158
 5800SOL     OW17794   3.244   4.613   0.102 -0.4402  0.1726  0.2752
 5800SOL    HW117795   3.202   4.527   0.105 -0.8993  0.4030  0.5521
 5800SOL    HW217796   3.171   4.674   0.091 -0.6919  0.9315  4.5034
 5801SOL     OW17797   3.046   3.314   1.483  0.4891  0.3510 -0.2229
 5801SOL    HW117798   3.125   3.361   1.511  1.5727 -1.2122 -0.4566
 5801SOL    HW217799   3.080   3.232   1.446 -1.3460 -1.8123  2.4748
 5802SOL     OW17800   1.210   3.679   4.631  0.4059 -0.2562 -0.1277
 5802SOL    HW117801   1.199   3.692   4.537 -0.9232 -2.3998 -0.3260
 5802SOL    HW217802   1.198   3.585   4.644  0.9208 -0.0638  2.1536
 5803SOL     OW17803   5.712   4.665   4.393  0.0611  0.3256  0.3233
 5803SOL    HW117804   5.767   4.641   4.467  1.2263 -0.4475 -0.7613
 5803SOL    HW217805   5.622   4.656   4.426  0.4789 -2.5692  0.9089
 5804SOL     OW17806   2.455   1.391   3.782  0.2133 -0.3128 -0.9604
 5804SOL    HW117807   2.450   1.332   3.707  0.3202 -0.8095 -0.5813
 5804SOL    HW217808   2.541   1.375   3.820  0.6830  0.8716 -1.4829
 5805SOL     OW17809   1.114   0.153   4.022 -0.1649  0.0995  0.3842
 5805SOL    HW117810   1.109   0.225   3.959  1.5501 -1.7057 -1.9726
 5805SOL    HW217811   1.152   0.193   4.100 -1.0211  2.1313 -0.1594
 5806SOL     OW17812   6.364   4.260   5.161 -0.7156  0.0359 -0.1798
 5806SOL    HW117813   6.444   4.210   5.175 -0.9477 -0.2530  0.1281
 5806SOL    HW217814   6.360   4.322   5.234 -2.1825 -1.8050  1.4272
 5807SOL     OW17815   5.061   4.965   6.286  0.4797 -0.0319  0.4452
 5807SOL    HW117816   5.156   4.975   6.281  0.4937  0.3873  1.3150
 5807SOL    HW217817   5.043   4.946   6.378 -0.3928  1.3931  0.6028
 5808SOL     OW17818   5.957   5.065   1.870  0.1473  0.2817  0.0650
 5808SOL    HW117819   6.048   5.086   1.850  0.4451 -0.2960  0.7526
 5808SOL    HW217820   5.933   5.127   1.939 -0.0478  0.5621 -0.2513
 5809SOL     OW17821   1.261   0.388   6.660 -0.0193 -0.3041  0.2615
 5809SOL    HW117822   1.306   0.459   6.707  0.2482 -0.7238  0.6443
 5809SOL    HW217823   1.331   0.329   6.634 -0.4962 -2.3367  3.1227
 5810SOL     OW17824   1.515   5.660   4.640 -0.4584 -0.1134 -0.4268
 5810SOL    HW117825   1.445   5.723   4.657  0.5313  1.2710 -1.1986
 5810SOL    HW217826   1.594   5.703   4.673  0.3333 -0.6900 -1.5073
 5811SOL     OW17827   1.190   2.309   2.887  0.3736 -0.2626  0.5317
 5811SOL    HW117828   1.253   2.280   2.953 -0.2258 -1.5220  0.5745
 5811SOL    HW217829   1.117   2.247   2.894 -0.2438  0.3201 -0.4761
 5812SOL     OW17830   2.863   6.228   6.165  0.4964 -0.3818  0.4564
 5812SOL    HW117831   2.901   6.309   6.198  1.4678 -0.2685 -0.8683
 5812SOL    HW217832   2.898   6.219   6.076 -2.0378 -0.6208 -0.6256
 5813SOL     OW17833   0.742   1.662   4.865 -0.3549  0.2749 -0.0970
 5813SOL    HW117834   0.663   1.714   4.878 -0.2129  0.1575  1.4161
 5813SOL    HW217835   0.750   1.654   4.770 -2.3459 -0.0127 -0.2790
 5814SOL     OW17836   2.852   6.126   4.582 -0.3315 -0.4829 -0.5609
 5814SOL    HW117837   2.817   6.107   4.495 -3.5760 -1.7826  0.8676
 5814SOL    HW217838   2.904   6.049   4.604  0.4402 -0.1830 -1.2973
 5815SOL     OW17839   0.166   1.096   2.528  0.4394  0.0244  0.0831
 5815SOL    HW117840   0.174   1.069   2.436  0.6901 -1.6914  0.5741
 5815SOL    HW217841   0.072   1.108   2.541  0.3283 -0.4531 -0.2298
 5816SOL     OW17842   5.275   2.421   3.273  0.0843 -0.0775 -0.2014
 5816SOL    HW117843   5.296   2.513   3.288  1.2903 -0.3472 -0.0522
 5816SOL    HW217844   5.226   2.394   3.351 -0.7594  0.5726 -0.5041
 5817SOL     OW17845   5.276   3.589   0.571 -0.6516  0.2058  0.3165
 5817SOL    HW117846   5.359   3.555   0.538 -0.6402 -0.1780  0.7154
 5817SOL    HW217847   5.250   3.656   0.508 -0.7272 -0.6293 -0.5631
 5818SOL     OW17848   6.298   6.158   5.702  0.0470 -0.2110  0.7508
 5818SOL    HW117849   6.229   6.202   5.752 -1.5556 -1.0580 -0.6437
 5818SOL    HW217850   6.311   6.075   5.748  0.1368 -0.0538  1.0130
 5819SOL     OW17851   1.133   2.900   1.049  0.1110 -0.5779 -0.1591
 5819SOL    HW117852   1.098   2.906   1.138 -0.7644 -1.9554 -0.3747
 5819SOL    HW217853   1.066   2.851   1.001 -0.1415  1.3776 -1.9632
 5820SOL     OW17854   4.528   0.277   0.648 -0.1156 -0.2824  0.6093
 5820SOL    HW117855   4.459   0.259   0.712 -1.0357 -0.6329 -0.4331
 5820SOL    HW217856   4.507   0.364   0.614 -0.5398 -0.7207 -0.2915
 5821SOL     OW17857   6.528   6.638   1.693  0.0181 -0.3420  0.2713
 5821SOL    HW117858   6.536   6.723   1.650 -1.1584 -0.4369 -0.1836
 5821SOL    HW217859   6.489   6.581   1.626  0.9679 -1.2936  0.5054
 5822SOL     OW17860   2.006   2.439   3.136  0.3475 -0.1846  0.2954
 5822SOL    HW117861   1.962   2.467   3.216  0.3887 -1.6949  0.8797
 5822SOL    HW217862   1.940   2.389   3.088  1.0308 -1.4360  0.6073
 5823SOL     OW17863   4.084   2.941   0.392 -0.2452  0.3482 -0.6705
 5823SOL    HW117864   4.099   3.034   0.371  2.0659  0.3126  0.5139
 5823SOL    HW217865   4.021   2.912   0.326  0.0862  2.3806 -1.9944
 5824SOL     OW17866   4.162   5.579   2.231  0.1904  0.5440 -0.1685
 5824SOL    HW117867   4.095   5.552   2.294  0.7004  2.1000  1.0847
 5824SOL    HW217868   4.206   5.497   2.207 -0.5763 -0.1854  0.8199
 5825SOL     OW17869   4.732   1.027   5.207  0.1857  0.1801 -0.0430
 5825SOL    HW117870   4.671   1.000   5.275  0.2245  2.8037  1.1285
 5825SOL    HW217871   4.819   1.011   5.245  0.2075  1.6641  0.5620
 5826SOL     OW17872   1.307   5.727   6.698  0.4145  0.6467  0.1009
 5826SOL    HW117873   1.339   5.714   6.787 -0.8640 -0.0737  0.4797
 5826SOL    HW217874   1.360   5.667   6.644 -1.5366 -2.1112  1.0120
 5827SOL     OW17875   4.781   2.094   2.185  0.1121  0.7258  0.1278
 5827SOL    HW117876   4.778   2.042   2.104  2.4559  1.5330 -0.5824
 5827SOL    HW217877   4.754   2.182   2.157 -1.1795  0.5424  0.7336
 5828SOL     OW17878   5.980   3.189   0.899 -0.5620 -0.0700  0.1354
 5828SOL    HW117879   5.912   3.142   0.946 -1.1825  0.2683 -0.4178
 5828SOL    HW217880   5.949   3.192   0.808  0.7899 -1.0541 -0.4029
 5829SOL     OW17881   2.763   2.175   4.005 -0.5048  0.7339 -0.1958
 5829SOL    HW117882   2.778   2.203   4.095  1.3727  2.3167 -0.9165
 5829SOL    HW217883   2.676   2.208   3.983 -0.4480  1.4802  0.6511
 5830SOL     OW17884   6.129   5.692   6.214 -0.7727  0.1050  0.6445
 5830SOL    HW117885   6.036   5.667   6.213 -0.4980 -0.9674  0.1889
 5830SOL    HW217886   6.135   5.766   6.154 -1.2395 -0.1771  0.2448
 5831SOL     OW17887   5.609   0.592   5.824 -0.0636 -0.0217  0.0830
 5831SOL    HW117888   5.678   0.554   5.879 -0.5591 -0.5894  0.3273
 5831SOL    HW217889   5.593   0.526   5.757 -1.7246 -0.8139  1.1656
 5832SOL     OW17890   4.369   4.221   4.252 -0.0036 -0.2978  0.3602
 5832SOL    HW117891   4.400   4.234   4.163 -0.2781  0.4044  0.3595
 5832SOL    HW217892   4.324   4.136   4.250  0.5110 -0.5662 -0.0192
 5833SOL     OW17893   5.956   1.750   2.078  0.0648  0.1258  0.9452
 5833SOL    HW117894   5.873   1.797   2.072 -0.8299 -1.4800  0.3323
 5833SOL    HW217895   5.937   1.662   2.045  2.2732  0.0273 -0.2610
 5834SOL     OW17896   1.968   0.607   6.755  0.1924 -0.2793 -0.2115
 5834SOL    HW117897   1.908   0.666   6.801  0.7174 -0.0101  0.1274
 5834SOL    HW217898   1.985   0.650   6.672 -1.1659 -1.0086 -0.9067
 5835SOL     OW17899   4.115   0.679   3.795 -0.3521  0.1513 -0.3600
 5835SOL    HW117900   4.183   0.612   3.787  0.4661  1.1157 -2.0349
 5835SOL    HW217901   4.033   0.633   3.779  0.0808 -0.6664 -0.2585
 5836SOL     OW17902   2.491   5.954   1.348 -0.7895 -0.1714 -0.0386
 5836SOL    HW117903   2.504   5.928   1.257 -0.9577 -1.6307  0.3363
 5836SOL    HW217904   2.529   5.883   1.399 -2.2186 -0.2115  1.0383
 5837SOL     OW17905   2.968   4.706   3.308 -0.3743  0.5170 -0.2661
 5837SOL    HW117906   2.963   4.787   3.257 -1.3552  0.7470  0.1763
 5837SOL    HW217907   2.995   4.734   3.395 -2.6483  0.6625  0.4592
 5838SOL     OW17908   4.388   3.041   1.893  0.1410  0.0649  0.0526
 5838SOL    HW117909   4.305   3.070   1.932  0.8001 -0.0329  1.6294
 5838SOL    HW217910   4.429   2.989   1.962  1.6102  0.3045 -0.6105
 5839SOL     OW17911   4.422   0.300   5.926  0.0348  0.0854  0.0018
 5839SOL    HW117912   4.506   0.310   5.881  0.8479 -0.7253  1.2858
 5839SOL    HW217913   4.418   0.207   5.948 -0.7390  0.3047  0.8313
 5840SOL     OW17914   0.775   4.795   0.034 -0.1639 -0.0402  0.3371
 5840SOL    HW117915   0.784   4.890   0.027  1.4121 -0.2867 -1.3772
 5840SOL    HW217916   0.794   4.776   0.126 -0.7732  1.3023  0.7660
 5841SOL     OW17917   1.663   6.314   6.896  0.1004  0.0989  0.5814
 5841SOL    HW117918   1.744   6.298   6.945  0.8272  0.8738 -0.3390
 5841SOL    HW217919   1.690   6.316   6.805 -0.8106  1.2892  0.3142
 5842SOL     OW17920   2.517   1.756   4.192  1.0592 -0.3366  0.2812
 5842SOL    HW117921   2.560   1.699   4.128 -0.0677  0.1211 -0.9270
 5842SOL    HW217922   2.480   1.826   4.139 -1.0525 -0.6385  1.2870
 5843SOL     OW17923   3.782   2.132   3.789  0.0530 -0.4156  0.3852
 5843SOL    HW117924   3.726   2.199   3.827  0.9989 -0.2408  1.5351
 5843SOL    HW217925   3.740   2.108   3.706 -0.9707  0.6673  0.5827
 5844SOL     OW17926   5.857   4.190   4.347  0.6347 -0.0306  0.0818
 5844SOL    HW117927   5.951   4.180   4.332  0.5140 -1.0414 -0.0098
 5844SOL    HW217928   5.842   4.152   4.434  0.1882 -0.5873 -0.2328
 5845SOL     OW17929   5.299   4.415   0.670  0.6082  0.2387 -0.5044
 5845SOL    HW117930   5.262   4.497   0.638  1.5707  0.2353 -1.6688
 5845SOL    HW217931   5.225   4.371   0.713 -0.2580  1.0839 -1.0879
 5846SOL     OW17932   1.399   6.336   5.337 -0.2185 -0.1230  0.2330
 5846SOL    HW117933   1.407   6.426   5.307  3.0028 -0.1486  0.7159
 5846SOL    HW217934   1.410   6.283   5.259 -0.6610 -0.1344  0.1740
 5847SOL     OW17935   3.328   1.118   0.950  0.1189 -0.0924  0.0996
 5847SOL    HW117936   3.324   1.213   0.941  0.5093 -0.1612 -0.9404
 5847SOL    HW217937   3.241   1.093   0.981  0.6061  0.7701  2.4032
 5848SOL     OW17938   3.163   0.770   3.059  0.5108  0.6196 -0.3425
 5848SOL    HW117939   3.133   0.861   3.056 -1.1793  0.1938  1.3331
 5848SOL    HW217940   3.193   0.757   3.149  0.3969 -0.5647 -0.4506
 5849SOL     OW17941   3.752   6.898   4.997  0.2870 -0.1558  0.0965
 5849SOL    HW117942   3.718   6.814   5.027 -1.5024  0.7432  0.7950
 5849SOL    HW217943   3.714   6.910   4.910  2.3611 -1.0234 -1.0030
 5850SOL     OW17944   4.172   3.259   0.497  0.1176 -0.0666  0.0317
 5850SOL    HW117945   4.155   3.229   0.408  0.0973 -0.9940  0.3419
 5850SOL    HW217946   4.095   3.311   0.520  0.5890  1.0551 -0.8586
 5851SOL     OW17947   3.778   4.503   6.681  0.6475 -0.4704 -0.5109
 5851SOL    HW117948   3.688   4.532   6.675  0.0714 -2.0747 -0.2111
 5851SOL    HW217949   3.776   4.412   6.652  2.1915 -0.5035 -0.6140
 5852SOL     OW17950   4.048   0.970   2.112 -0.0560 -0.0822 -0.2047
 5852SOL    HW117951   4.136   0.933   2.112  0.9588  2.0240  2.5107
 5852SOL    HW217952   4.019   0.964   2.202 -1.7347  1.4267 -0.5895
 5853SOL     OW17953   2.605   2.615   5.748 -0.0606  0.2073 -0.0739
 5853SOL    HW117954   2.657   2.622   5.668 -1.0195  1.7448 -0.6184
 5853SOL    HW217955   2.515   2.623   5.718 -0.4635  0.1702  1.0931
 5854SOL     OW17956   0.376   4.112   3.078 -0.4972  0.1924  0.0229
 5854SOL    HW117957   0.309   4.145   3.018 -1.6632 -0.1067  1.1040
 5854SOL    HW217958   0.392   4.184   3.139  3.6428  2.0597 -2.8155
 5855SOL     OW17959   5.863   6.905   5.177 -0.6264 -0.0806  0.0555
 5855SOL    HW117960   5.789   6.886   5.119 -0.3546 -1.0624  0.0070
 5855SOL    HW217961   5.826   6.906   5.265 -0.7014 -0.6236  0.0355
 5856SOL     OW17962   6.339   3.439   2.472 -0.3898 -0.0333 -0.2055
 5856SOL    HW117963   6.271   3.377   2.448  0.6475 -1.4243  0.2801
 5856SOL    HW217964   6.401   3.436   2.398  0.3346 -0.6361  0.3977
 5857SOL     OW17965   3.423   0.650   2.443 -0.1561 -0.0647 -0.0103
 5857SOL    HW117966   3.433   0.593   2.367  2.2994 -1.0747  0.9637
 5857SOL    HW217967   3.391   0.592   2.512  0.2915  0.2213  0.4416
 5858SOL     OW17968   1.146   4.887   1.176  0.0805  0.9499  0.2346
 5858SOL    HW117969   1.102   4.807   1.146  0.3350  1.3663 -1.3794
 5858SOL    HW217970   1.117   4.898   1.266  0.0573 -0.9645  0.4992
 5859SOL     OW17971   1.257   6.501   4.778 -0.0555  0.5559  0.2651
 5859SOL    HW117972   1.217   6.445   4.845  1.8731 -0.9948  0.2033
 5859SOL    HW217973   1.344   6.520   4.812 -0.6338  3.6580  0.2880
 5860SOL     OW17974   3.079   2.398   1.084  0.3811 -0.0815  0.2488
 5860SOL    HW117975   3.152   2.452   1.117 -1.1180  1.1665  1.6897
 5860SOL    HW217976   3.076   2.324   1.144  0.8117 -0.4537 -0.1767
 5861SOL     OW17977   2.306   3.905   6.683 -0.4617  0.0276 -0.2285
 5861SOL    HW117978   2.264   3.985   6.713 -0.2304  0.8088 -1.8953
 5861SOL    HW217979   2.242   3.836   6.699 -0.6858  0.5321  1.1640
 5862SOL     OW17980   3.749   3.374   2.729 -0.2217 -0.3349  0.2313
 5862SOL    HW117981   3.696   3.344   2.656  0.5334 -1.1171 -0.0196
 5862SOL    HW217982   3.820   3.310   2.735  0.5735  0.5544  0.6902
 5863SOL     OW17983   1.707   2.337   5.243  0.1069  0.0673  0.8491
 5863SOL    HW117984   1.715   2.264   5.304  2.0657  0.9979  1.7888
 5863SOL    HW217985   1.676   2.410   5.297  1.9916  0.9339  0.8239
 5864SOL     OW17986   2.424   4.647   0.986 -0.0510 -0.2325 -0.1291
 5864SOL    HW117987   2.446   4.719   1.045  0.0311  0.2632 -0.7558
 5864SOL    HW217988   2.376   4.689   0.915 -1.5508 -1.0495  0.3583
 5865SOL     OW17989   4.547   1.798   4.150  0.2577 -0.2244 -0.2580
 5865SOL    HW117990   4.494   1.803   4.070 -1.4541  0.4542  0.8727
 5865SOL    HW217991   4.530   1.710   4.184  0.9785 -0.5095 -0.6212
 5866SOL     OW17992   3.655   5.347   5.700 -0.0762 -0.2389 -0.5469
 5866SOL    HW117993   3.701   5.287   5.641 -1.2387 -0.5717 -1.1534
 5866SOL    HW217994   3.615   5.290   5.765 -2.4216 -0.3546 -1.9639
 5867SOL     OW17995   1.369   4.892   1.907 -0.4275  0.2153  0.5630
 5867SOL    HW117996   1.397   4.945   1.833  0.1071  1.0840  1.3588
 5867SOL    HW217997   1.276   4.876   1.892 -0.2704  0.1760 -0.4079
 5868SOL     OW17998   6.355   2.803   3.270 -0.2025 -0.4995  0.0015
 5868SOL    HW117999   6.303   2.724   3.284  0.4911 -0.9736 -0.0395
 5868SOL    HW218000   6.421   2.800   3.339 -0.9859  0.7517  0.8300
 5869SOL     OW18001   3.670   4.124   4.539  0.4036 -0.3393 -0.0419
 5869SOL    HW118002   3.595   4.103   4.596  0.1305  0.6836 -0.0143
 5869SOL    HW218003   3.719   4.190   4.588 -0.1678  1.0127 -1.2554
 5870SOL     OW18004   2.521   0.166   1.694  0.3090  0.1686  0.1904
 5870SOL    HW118005   2.576   0.111   1.749  0.0157 -0.5301 -0.1918
 5870SOL    HW218006   2.432   0.145   1.720  0.0862 -1.2823 -1.4975
 5871SOL     OW18007   4.600   5.022   5.999  0.0587 -0.3265 -0.2828
 5871SOL    HW118008   4.508   5.026   6.025  0.3085  0.7065  0.4850
 5871SOL    HW218009   4.640   4.959   6.059  0.3576  1.0877  1.0701
 5872SOL     OW18010   6.838   4.248   2.965  0.3499 -0.1412 -0.2546
 5872SOL    HW118011   6.932   4.254   2.946  0.4603 -1.7793 -0.3473
 5872SOL    HW218012   6.833   4.248   3.061  0.5489 -1.1093 -0.2341
 5873SOL     OW18013   3.916   4.286   3.371  0.1182 -0.4061  0.0901
 5873SOL    HW118014   3.958   4.250   3.293 -0.7446 -0.5264 -0.3340
 5873SOL    HW218015   3.822   4.279   3.353 -0.0891 -0.1180  0.9983
 5874SOL     OW18016   5.717   6.118   2.265 -0.5026  0.3785  0.3996
 5874SOL    HW118017   5.736   6.121   2.171 -1.0118 -0.6908  0.2460
 5874SOL    HW218018   5.709   6.209   2.291  3.1864  0.9248  0.1529
 5875SOL     OW18019   1.798   5.488   6.632 -0.0387 -0.3581 -0.4775
 5875SOL    HW118020   1.778   5.495   6.539 -0.7778 -0.3885 -0.3196
 5875SOL    HW218021   1.784   5.396   6.653 -1.0882 -0.1140 -0.0612
 5876SOL     OW18022   1.412   2.901   4.357 -0.3706  0.5652 -0.4093
 5876SOL    HW118023   1.413   2.967   4.287  0.4062  0.2209 -0.7448
 5876SOL    HW218024   1.325   2.863   4.354 -0.6106  1.1265 -0.6459
 5877SOL     OW18025   4.251   1.894   3.238 -0.8675 -0.3859  0.5462
 5877SOL    HW118026   4.318   1.940   3.288  1.0517 -1.4089 -0.9746
 5877SOL    HW218027   4.176   1.889   3.297  0.0230  1.6748  1.9461
 5878SOL     OW18028   0.781   0.859   4.817 -0.4627  0.2411  0.3356
 5878SOL    HW118029   0.860   0.861   4.762 -0.4849  0.3033  0.3058
 5878SOL    HW218030   0.814   0.845   4.905 -0.3811  0.7527  0.3905
 5879SOL     OW18031   1.796   4.587   0.134  0.1459  0.0237 -0.1331
 5879SOL    HW118032   1.733   4.567   0.203 -0.4003  0.0099 -0.6320
 5879SOL    HW218033   1.774   4.676   0.105  0.9951  0.4126  0.3744
 5880SOL     OW18034   6.211   5.234   6.572  0.0488  0.1147 -0.2078
 5880SOL    HW118035   6.220   5.322   6.537  2.7840  0.0257  0.0074
 5880SOL    HW218036   6.159   5.244   6.652 -1.7541  1.1006 -1.4544
 5881SOL     OW18037   3.292   2.859   4.764 -0.2003  0.2673 -0.0333
 5881SOL    HW118038   3.249   2.783   4.725  2.2443 -0.6356 -1.2081
 5881SOL    HW218039   3.240   2.934   4.735 -0.1799 -0.6306 -2.6376
 5882SOL     OW18040   1.577   3.235   2.130 -1.0410  0.2363 -0.1395
 5882SOL    HW118041   1.572   3.330   2.144 -3.4598  0.2799 -0.9651
 5882SOL    HW218042   1.560   3.223   2.037  1.4076 -0.9249 -0.5102
 5883SOL     OW18043   5.269   2.014   0.500 -0.0156  0.0489  0.3604
 5883SOL    HW118044   5.273   1.987   0.409  1.9839  0.7808  0.1887
 5883SOL    HW218045   5.209   1.952   0.541 -0.2318 -0.8544 -1.2436
 5884SOL     OW18046   4.778   5.400   0.221 -0.2845 -0.2616  0.1052
 5884SOL    HW118047   4.752   5.342   0.292 -2.6995 -0.2066 -0.6074
 5884SOL    HW218048   4.731   5.482   0.238  0.6340  0.4215 -0.5263
 5885SOL     OW18049   0.438   3.863   5.686  0.0744 -0.1673 -0.2789
 5885SOL    HW118050   0.349   3.831   5.673 -0.0285 -0.5477  1.1386
 5885SOL    HW218051   0.429   3.938   5.745  0.6029  0.5232 -1.0453
 5886SOL     OW18052   5.328   0.569   0.915  0.2785  0.3241  0.6091
 5886SOL    HW118053   5.385   0.596   0.843  0.6718  0.9470  1.1420
 5886SOL    HW218054   5.256   0.523   0.872  1.0115 -0.1937 -0.0924
 5887SOL     OW18055   5.512   5.764   6.933 -0.0120  0.4854 -0.3757
 5887SOL    HW118056   5.499   5.669   6.937  1.5131  0.2248 -0.8757
 5887SOL    HW218057   5.424   5.800   6.930 -0.6263 -0.8813  0.4559
 5888SOL     OW18058   0.435   0.457   5.426  0.3683 -0.3907 -0.1152
 5888SOL    HW118059   0.405   0.543   5.455  1.5382  0.1520 -0.4473
 5888SOL    HW218060   0.407   0.451   5.335  0.6095 -0.1982 -0.2036
 5889SOL     OW18061   4.603   2.220   6.704 -0.4786 -0.1142  0.2159
 5889SOL    HW118062   4.542   2.249   6.771 -1.4353  0.2542 -0.7959
 5889SOL    HW218063   4.633   2.134   6.735 -1.4746 -0.2843  0.7425
 5890SOL     OW18064   0.251   2.230   6.031 -0.2300 -0.3637  0.6059
 5890SOL    HW118065   0.323   2.168   6.021 -0.1984 -0.0449 -1.5254
 5890SOL    HW218066   0.280   2.290   6.101  0.6992 -1.3784  1.1189
 5891SOL     OW18067   4.696   0.086   6.898  0.2035  0.1774  0.2099
 5891SOL    HW118068   4.669  -0.001   6.926 -1.0206  0.1934 -0.8200
 5891SOL    HW218069   4.712   0.077   6.804  0.3294  1.0098  0.1420
 5892SOL     OW18070   5.308   4.973   1.974  0.1787 -0.2993  0.1749
 5892SOL    HW118071   5.267   4.962   2.060 -1.8523  1.8591 -0.4121
 5892SOL    HW218072   5.393   5.011   1.992  1.0182 -2.4966  1.3057
 5893SOL     OW18073   1.241   0.455   4.948  0.0985  0.5675 -0.4892
 5893SOL    HW118074   1.227   0.364   4.975  1.7141  0.7002  1.0031
 5893SOL    HW218075   1.168   0.503   4.987  0.8691  0.3130  1.3992
 5894SOL     OW18076   0.996   3.926   6.380 -0.0698  0.2057 -0.7839
 5894SOL    HW118077   1.015   4.001   6.323 -0.7115 -0.4286 -1.8664
 5894SOL    HW218078   0.955   3.964   6.458 -0.6457  0.9592 -1.4389
 5895SOL     OW18079   2.711   4.810   1.919 -0.5369  0.4482  0.2489
 5895SOL    HW118080   2.727   4.821   2.013 -0.0267 -0.7076  0.3198
 5895SOL    HW218081   2.755   4.885   1.878  1.8213 -0.5549  0.7424
 5896SOL     OW18082   3.635   1.255   4.378 -0.1218 -0.3621  0.5642
 5896SOL    HW118083   3.552   1.233   4.419  0.1460 -0.1550  1.2254
 5896SOL    HW218084   3.690   1.177   4.391 -0.5315 -0.9150 -0.7846
 5897SOL     OW18085   6.176   0.508   2.016  0.2191  0.4675 -0.0692
 5897SOL    HW118086   6.085   0.524   2.042  0.0533 -0.1608 -0.2381
 5897SOL    HW218087   6.214   0.460   2.090  0.5194  1.0526  0.1576
 5898SOL     OW18088   6.401   1.351   3.032 -0.3693  0.8001 -0.6259
 5898SOL    HW118089   6.362   1.273   2.991 -0.6885 -0.2219  1.4872
 5898SOL    HW218090   6.395   1.418   2.964  1.8805 -1.4880 -3.3488
 5899SOL     OW18091   1.766   1.216   2.508  0.5546  0.1404 -0.4929
 5899SOL    HW118092   1.791   1.125   2.498  0.8478  0.3511 -1.8476
 5899SOL    HW218093   1.704   1.232   2.436 -0.8684  0.5479  0.7574
 5900SOL     OW18094   0.780   2.376   2.854 -0.6052  0.4878 -0.5133
 5900SOL    HW118095   0.721   2.449   2.834 -0.1118  1.6033  1.7014
 5900SOL    HW218096   0.867   2.417   2.860 -0.1303 -0.5069 -0.4220
 5901SOL     OW18097   0.604   2.034   1.275 -0.1705  0.0255 -0.2233
 5901SOL    HW118098   0.649   1.994   1.349 -0.8156  0.3014  0.3259
 5901SOL    HW218099   0.577   1.960   1.220 -2.1081 -0.4332  1.2033
 5902SOL     OW18100   6.701   4.782   3.815  0.3513 -0.6163  0.2869
 5902SOL    HW118101   6.651   4.709   3.851  0.3545 -1.1009 -0.6478
 5902SOL    HW218102   6.642   4.821   3.751 -0.3688  1.3950  2.0625
 5903SOL     OW18103   3.830   4.900   0.224  0.7523 -0.0391  0.0429
 5903SOL    HW118104   3.865   4.817   0.257  1.7840  0.3160 -0.1338
 5903SOL    HW218105   3.848   4.899   0.130  0.0383  0.0374 -0.1003
 5904SOL     OW18106   3.870   2.427   3.489  0.0420 -0.7771  0.2031
 5904SOL    HW118107   3.965   2.443   3.492  0.1326 -0.7851 -1.4956
 5904SOL    HW218108   3.860   2.351   3.432 -0.9741 -1.0485  0.7217
 5905SOL     OW18109   4.749   5.631   1.790  0.3958 -0.1535  0.3700
 5905SOL    HW118110   4.761   5.679   1.872  1.3908  1.4827 -0.6725
 5905SOL    HW218111   4.735   5.700   1.724 -0.8464 -1.4335 -0.7790
 5906SOL     OW18112   2.659   4.355   2.633 -0.3914  0.3622 -0.0764
 5906SOL    HW118113   2.753   4.369   2.642 -0.3229  0.4468 -0.8554
 5906SOL    HW218114   2.630   4.330   2.720  0.4750 -0.3588  0.0158
 5907SOL     OW18115   5.086   1.401   6.838  0.2463  0.7218  0.1387
 5907SOL    HW118116   5.064   1.349   6.915 -0.4689 -0.7344 -0.9888
 5907SOL    HW218117   5.095   1.491   6.870 -1.1227  0.3235  1.7183
 5908SOL     OW18118   4.709   0.672   0.710 -0.2270  0.0080 -0.0219
 5908SOL    HW118119   4.658   0.608   0.660 -1.4436  0.8357  0.1223
 5908SOL    HW218120   4.691   0.652   0.801 -0.1352  0.1818  0.0343
 5909SOL     OW18121   4.777   0.997   4.278 -0.1329 -0.2777 -0.2702
 5909SOL    HW118122   4.704   1.048   4.243 -0.1102 -0.1260 -0.0975
 5909SOL    HW218123   4.804   0.940   4.205  0.3672  0.5238 -0.7259
 5910SOL     OW18124   3.571   4.122   0.853  0.1339 -0.1138  0.0862
 5910SOL    HW118125   3.546   4.101   0.943  0.6185 -2.1016 -0.1806
 5910SOL    HW218126   3.566   4.217   0.848 -3.4813 -0.1237  1.1371
 5911SOL     OW18127   1.127   0.758   6.915  0.0851  0.5879 -0.2336
 5911SOL    HW118128   1.049   0.814   6.912 -1.2157 -1.0624  0.7714
 5911SOL    HW218129   1.127   0.721   7.003  1.3712 -0.3212 -0.5838
 5912SOL     OW18130   4.676   0.440   5.268  0.0282  0.1020 -0.1188
 5912SOL    HW118131   4.620   0.405   5.337  0.1764  0.1055  0.0071
 5912SOL    HW218132   4.650   0.394   5.189  1.9326 -2.2141  0.4814
 5913SOL     OW18133   0.271   0.318   5.646  0.2766  0.3100  0.0897
 5913SOL    HW118134   0.183   0.351   5.628 -0.4230 -2.5057 -2.6347
 5913SOL    HW218135   0.320   0.335   5.566  0.3788 -3.2304 -0.7630
 5914SOL     OW18136   1.247   0.536   6.387 -0.1430 -0.0291  0.0744
 5914SOL    HW118137   1.283   0.608   6.438 -1.3194  0.6582 -0.0321
 5914SOL    HW218138   1.183   0.495   6.445 -1.0744  0.3999 -0.6209
 5915SOL     OW18139   4.324   5.352   2.520 -0.0999  0.1797  0.7851
 5915SOL    HW118140   4.243   5.317   2.558  0.7614 -0.2600  2.2682
 5915SOL    HW218141   4.394   5.299   2.559  0.8368 -0.8742 -2.0513
 5916SOL     OW18142   4.407   4.638   5.526  0.3622  0.5134  0.3600
 5916SOL    HW118143   4.472   4.683   5.473 -0.1495  1.0006  0.1341
 5916SOL    HW218144   4.447   4.628   5.612  1.8021 -1.6060 -0.4784
 5917SOL     OW18145   3.486   2.769   6.338  0.5313  0.4537 -0.5726
 5917SOL    HW118146   3.463   2.854   6.301 -2.3135 -0.2521 -0.6602
 5917SOL    HW218147   3.460   2.774   6.430 -0.4148 -0.5506 -0.7645
 5918SOL     OW18148   3.430   6.367   1.298  0.2038  0.6190  0.3617
 5918SOL    HW118149   3.402   6.278   1.318 -2.4349  0.9819 -1.2591
 5918SOL    HW218150   3.476   6.359   1.215 -1.9055  0.9507 -0.9073
 5919SOL     OW18151   6.179   4.996   4.041  0.8258  0.2048 -0.5792
 5919SOL    HW118152   6.115   5.062   4.070  1.0522  0.4421 -0.6173
 5919SOL    HW218153   6.264   5.036   4.058  0.9826 -0.5038  0.3620
 5920SOL     OW18154   3.948   6.531   6.495  0.4297 -0.0516  0.5036
 5920SOL    HW118155   4.013   6.597   6.521 -0.8881  0.7269  2.0134
 5920SOL    HW218156   3.867   6.581   6.484 -0.2449 -1.2060  0.1034
 5921SOL     OW18157   2.116   3.558   6.419  0.1805 -0.3339  0.0614
 5921SOL    HW118158   2.051   3.616   6.459  0.6338  0.4097 -0.2673
 5921SOL    HW218159   2.109   3.575   6.325  1.1214  0.0424  0.0541
 5922SOL     OW18160   2.986   2.611   3.113 -0.4500  0.4516  0.1850
 5922SOL    HW118161   2.939   2.692   3.095 -0.8730 -0.0227 -0.8907
 5922SOL    HW218162   3.069   2.620   3.066 -0.5817  0.1887 -0.1068
 5923SOL     OW18163   1.508   3.057   4.169 -0.2972  0.1810 -0.0519
 5923SOL    HW118164   1.578   2.992   4.178 -0.2316  0.2463 -0.0832
 5923SOL    HW218165   1.554   3.137   4.141 -0.3951  0.2010 -0.1564
 5924SOL     OW18166   0.345   5.885   4.886 -0.2347  0.0124 -0.1521
 5924SOL    HW118167   0.260   5.843   4.903  0.3531 -0.6793  1.1944
 5924SOL    HW218168   0.407   5.835   4.938  1.6206 -1.6012 -3.5447
 5925SOL     OW18169   6.094   2.219   1.000 -0.0337  1.3853 -0.2349
 5925SOL    HW118170   6.000   2.225   1.019  0.3556  1.1242  2.0934
 5925SOL    HW218171   6.128   2.156   1.064  1.8352  1.9143 -0.6293
 5926SOL     OW18172   2.222   2.260   6.549  0.0891 -0.0641  0.3402
 5926SOL    HW118173   2.246   2.351   6.568 -0.3675  0.2510 -0.5692
 5926SOL    HW218174   2.150   2.266   6.487  0.8193 -1.0517 -0.6453
 5927SOL     OW18175   2.192   6.878   4.354  0.2972  0.3609 -0.4813
 5927SOL    HW118176   2.164   6.857   4.265  5.2929 -2.9272 -1.6794
 5927SOL    HW218177   2.264   6.940   4.342  0.4975  0.5555  1.4077
 5928SOL     OW18178   2.703   1.349   6.295  0.0788 -0.3656  0.7980
 5928SOL    HW118179   2.776   1.410   6.303  1.3928 -1.7309 -0.2080
 5928SOL    HW218180   2.645   1.389   6.231 -0.0188  0.6710  1.5066
 5929SOL     OW18181   5.914   1.883   4.707 -0.2582  0.6497 -0.1480
 5929SOL    HW118182   5.934   1.861   4.798 -0.1384  1.1696 -0.0451
 5929SOL    HW218183   5.927   1.977   4.702  0.8006  0.4747 -0.9797
 5930SOL     OW18184   5.457   1.755   6.063  0.1364  0.0071 -0.5290
 5930SOL    HW118185   5.551   1.768   6.063  0.2477 -0.7692 -0.7662
 5930SOL    HW218186   5.421   1.840   6.090  0.8683  0.4973 -1.0696
 5931SOL     OW18187   3.061   6.298   1.680  0.3700  0.2565 -0.5116
 5931SOL    HW118188   3.151   6.331   1.676  0.4552  0.8299  2.8904
 5931SOL    HW218189   3.071   6.203   1.681  1.4780  0.2087  3.6233
 5932SOL     OW18190   0.899   0.853   3.170 -0.2663 -0.3688 -0.8885
 5932SOL    HW118191   0.936   0.940   3.158  0.9213 -0.6040  0.7041
 5932SOL    HW218192   0.841   0.862   3.246 -1.3109 -0.6510 -1.6317
 5933SOL     OW18193   0.008   3.944   2.009  0.0810 -0.2002  0.4040
 5933SOL    HW118194  -0.017   3.883   2.078 -0.6789 -0.9406 -0.4902
 5933SOL    HW218195   0.075   4.000   2.049 -2.0255  1.0172  2.5083
 5934SOL     OW18196   3.822   1.718   4.626 -0.3201  0.0997  0.0673
 5934SOL    HW118197   3.875   1.797   4.620  0.1291 -0.1606  0.5370
 5934SOL    HW218198   3.883   1.646   4.611 -0.3900 -0.2392  1.3013
 5935SOL     OW18199   1.851   6.083   5.712 -0.5729 -0.3972 -0.0191
 5935SOL    HW118200   1.807   6.039   5.785  1.0205 -0.7716  0.7796
 5935SOL    HW218201   1.909   6.146   5.755  0.7640 -0.9807 -0.9105
 5936SOL     OW18202   6.022   5.250   0.531 -0.0478  0.6177 -0.2449
 5936SOL    HW118203   6.011   5.195   0.608  1.7550  1.2210  0.5022
 5936SOL    HW218204   5.950   5.313   0.535 -0.1955  0.3979  0.7414
 5937SOL     OW18205   5.070   1.807   5.269  0.5079  0.0757  0.6860
 5937SOL    HW118206   5.060   1.846   5.356  4.0476  2.7919  0.1041
 5937SOL    HW218207   5.127   1.868   5.222 -0.3049 -1.8653 -3.2101
 5938SOL     OW18208   2.367   3.345   1.917  0.4467 -0.2086 -0.2733
 5938SOL    HW118209   2.437   3.319   1.976 -1.1878 -1.1699  1.3459
 5938SOL    HW218210   2.348   3.266   1.866 -1.8632 -1.1746  1.8907
 5939SOL     OW18211   6.266   4.038   0.074  0.3313 -0.0741 -0.5148
 5939SOL    HW118212   6.263   3.971   0.141  0.9562 -1.2201 -1.5846
 5939SOL    HW218213   6.278   4.120   0.122  0.5492 -0.8325  0.7616
 5940SOL     OW18214   3.831   3.441   1.158 -0.3962  0.0912  0.0914
 5940SOL    HW118215   3.744   3.454   1.196  0.1331 -1.4311  2.0008
 5940SOL    HW218216   3.817   3.375   1.091 -0.8473  0.5351 -0.2646
 5941SOL     OW18217   0.025   4.149   4.312 -0.1465 -0.3870 -0.2092
 5941SOL    HW118218  -0.004   4.176   4.225 -0.8659 -0.3221  0.0477
 5941SOL    HW218219   0.088   4.216   4.339 -0.8008  0.2337 -0.1968
 5942SOL     OW18220   4.975   1.229   2.476 -0.1425  0.3826 -0.2119
 5942SOL    HW118221   4.911   1.300   2.473  0.3400  0.8241 -0.5222
 5942SOL    HW218222   4.925   1.150   2.459 -0.7447  0.6104  0.4454
 5943SOL     OW18223   4.584   0.939   6.553  0.4787 -0.3404  0.7704
 5943SOL    HW118224   4.552   0.958   6.641 -1.4296 -1.2543  0.3211
 5943SOL    HW218225   4.505   0.917   6.503  1.7184 -1.9101 -0.6239
 5944SOL     OW18226   6.452   6.032   4.089 -0.2038 -0.3734  0.2683
 5944SOL    HW118227   6.364   5.999   4.075  0.1643 -1.3566  0.1850
 5944SOL    HW218228   6.483   5.988   4.168  0.6362 -0.9741 -0.3672
 5945SOL     OW18229   1.997   1.546   6.273  0.4221 -0.7724  0.2467
 5945SOL    HW118230   2.003   1.517   6.181  1.9609  1.8639 -0.6119
 5945SOL    HW218231   1.916   1.597   6.277  1.6853  1.4490 -0.5121
 5946SOL     OW18232   4.211   2.481   6.377  0.0146  0.7407  0.0297
 5946SOL    HW118233   4.130   2.523   6.348 -0.5263  0.2208  0.7309
 5946SOL    HW218234   4.261   2.466   6.297 -0.0730  2.0952 -0.3022
 5947SOL     OW18235   1.214   6.602   0.191 -0.4130  0.4533 -0.0212
 5947SOL    HW118236   1.277   6.663   0.153 -0.0953 -0.8044 -1.5973
 5947SOL    HW218237   1.257   6.517   0.186 -1.8474 -0.2860 -0.2477
 5948SOL     OW18238   2.346   2.871   3.388 -0.4846 -0.1548  0.7393
 5948SOL    HW118239   2.323   2.779   3.398  0.4363 -0.2150  2.8221
 5948SOL    HW218240   2.437   2.877   3.417  0.2096  1.0799 -1.4529
 5949SOL     OW18241   3.774   0.659   5.539 -0.1156  0.5952 -0.1275
 5949SOL    HW118242   3.844   0.704   5.587 -0.4430 -0.4631  1.4258
 5949SOL    HW218243   3.698   0.666   5.596 -0.5231 -0.7194 -0.4847
 5950SOL     OW18244   3.652   6.237   3.622 -0.4815 -0.2820 -0.0156
 5950SOL    HW118245   3.628   6.175   3.553  0.7328 -0.9397  0.1253
 5950SOL    HW218246   3.690   6.183   3.691 -0.2884  0.5236  0.5229
 5951SOL     OW18247   3.306   3.428   1.528  0.6181  0.3920  0.1129
 5951SOL    HW118248   3.306   3.493   1.599 -4.0233 -0.8677  1.5743
 5951SOL    HW218249   3.368   3.361   1.557  1.2108  1.4348  1.3713
 5952SOL     OW18250   2.575   5.786   3.782  0.2401  0.8876  0.5383
 5952SOL    HW118251   2.572   5.802   3.688  1.8231  1.8449  0.6207
 5952SOL    HW218252   2.530   5.862   3.821 -1.9461 -0.3186  0.5478
 5953SOL     OW18253   6.096   3.985   2.959 -0.3223  0.2683 -0.2678
 5953SOL    HW118254   6.003   4.003   2.948 -0.3533  1.4029  1.5706
 5953SOL    HW218255   6.140   4.060   2.919 -0.0034 -1.4453 -3.5245
 5954SOL     OW18256   0.029   3.499   3.505  0.0628 -0.1429 -0.2772
 5954SOL    HW118257  -0.005   3.456   3.583 -1.8172 -1.8281 -1.9086
 5954SOL    HW218258   0.097   3.441   3.473  0.0432 -0.0319 -0.5226
 5955SOL     OW18259   4.945   1.652   1.535  0.5174 -0.2295  0.3075
 5955SOL    HW118260   5.005   1.722   1.560  0.7465 -0.4423  0.3625
 5955SOL    HW218261   4.906   1.682   1.452 -0.5685  0.6669  1.1105
 5956SOL     OW18262   3.336   1.957   6.720 -0.0136  0.5767 -0.6122
 5956SOL    HW118263   3.389   1.887   6.758 -1.5946 -0.6320 -0.5197
 5956SOL    HW218264   3.400   2.019   6.684  1.4572  0.1073  1.0747
 5957SOL     OW18265   2.445   0.691   0.265  0.0044 -0.1545  0.1467
 5957SOL    HW118266   2.498   0.714   0.342  1.5687 -0.9480 -0.6781
 5957SOL    HW218267   2.407   0.775   0.237  1.9165  0.6882 -0.0478
 5958SOL     OW18268   2.326   1.330   6.231  0.2995  0.0760  0.2761
 5958SOL    HW118269   2.380   1.409   6.236 -1.1866  1.0809  1.1139
 5958SOL    HW218270   2.273   1.343   6.152  0.4005 -0.3324  0.1383
 5959SOL     OW18271   1.793   6.294   1.319  0.0011  0.2617  0.3852
 5959SOL    HW118272   1.771   6.366   1.379 -1.1131 -1.4300  2.1552
 5959SOL    HW218273   1.886   6.306   1.300 -0.1146  2.0467  0.7654
 5960SOL     OW18274   4.785   4.411   6.450  0.1494 -0.2449 -0.2163
 5960SOL    HW118275   4.792   4.493   6.402  0.0443  1.1605  2.0162
 5960SOL    HW218276   4.872   4.400   6.490 -0.4440 -0.0968  1.1598
 5961SOL     OW18277   6.827   5.348   2.204 -0.2045  0.0699  0.1268
 5961SOL    HW118278   6.813   5.406   2.279  0.2246  0.1047  0.1818
 5961SOL    HW218279   6.743   5.347   2.159 -0.0628  1.1930 -0.1947
 5962SOL     OW18280   0.199   2.266   1.138 -0.1750 -0.1734 -0.2380
 5962SOL    HW118281   0.261   2.258   1.066 -0.2512  0.3243 -0.3616
 5962SOL    HW218282   0.114   2.252   1.098 -0.2068 -0.0378 -0.2181
 5963SOL     OW18283   5.467   1.857   3.944  0.2419 -0.0491  0.0850
 5963SOL    HW118284   5.503   1.768   3.935  1.2105  0.3421 -0.0361
 5963SOL    HW218285   5.526   1.911   3.892 -0.3582  0.6644  0.1443
 5964SOL     OW18286   2.828   2.053   2.905  0.0958  0.2153  0.6127
 5964SOL    HW118287   2.882   2.072   2.982 -0.2647 -1.2298  1.2452
 5964SOL    HW218288   2.891   2.047   2.833  0.5176  0.8180  0.9201
 5965SOL     OW18289   3.564   2.245   5.199  0.2166 -0.4962  0.1525
 5965SOL    HW118290   3.518   2.325   5.174 -2.4688 -2.2168 -0.7858
 5965SOL    HW218291   3.636   2.238   5.135 -0.1807  0.6031 -0.4312
 5966SOL     OW18292   4.006   3.489   1.963 -0.1085  0.7450  0.4489
 5966SOL    HW118293   4.054   3.565   1.931  0.4006 -0.4473 -1.8224
 5966SOL    HW218294   4.004   3.500   2.058  4.1213  1.2554  0.6910
 5967SOL     OW18295   4.996   0.873   2.183 -0.5531  0.3952  0.9116
 5967SOL    HW118296   4.922   0.838   2.233  0.5713 -0.6776  1.8920
 5967SOL    HW218297   5.070   0.869   2.244  0.5375  0.5195 -0.3553
 5968SOL     OW18298   4.725   3.815   3.566 -0.9451 -0.0641 -0.2783
 5968SOL    HW118299   4.752   3.743   3.623 -0.2558 -0.7379 -1.4040
 5968SOL    HW218300   4.689   3.881   3.625 -2.1873 -1.5843  0.7406
 5969SOL     OW18301   0.477   1.826   5.904 -0.5096  0.2690 -0.0696
 5969SOL    HW118302   0.481   1.751   5.963  1.1478  0.2778 -0.1239
 5969SOL    HW218303   0.568   1.853   5.894 -0.8882  1.0608 -1.6409
 5970SOL     OW18304   5.305   2.620   6.229  0.1241  0.3563  0.2734
 5970SOL    HW118305   5.358   2.679   6.282 -0.3402  0.7442  0.3113
 5970SOL    HW218306   5.360   2.599   6.154  1.2981 -1.1957  1.4844
 5971SOL     OW18307   4.087   4.147   4.392  0.1285 -0.4863  0.1715
 5971SOL    HW118308   4.150   4.076   4.383  0.1920 -0.7292  2.0982
 5971SOL    HW218309   4.005   4.104   4.417  0.7488  0.1174  3.9072
 5972SOL     OW18310   6.527   6.406   5.990 -0.1951 -0.1036 -0.2641
 5972SOL    HW118311   6.568   6.405   6.076 -0.2976  3.8756  0.0366
 5972SOL    HW218312   6.433   6.395   6.008  0.0175 -2.4718 -0.2926
 5973SOL     OW18313   4.047   2.355   1.822 -0.2659  0.4102 -0.4773
 5973SOL    HW118314   4.015   2.406   1.748  0.7222 -0.9603 -1.9329
 5973SOL    HW218315   3.980   2.288   1.837 -1.1850  1.5910  0.9088
 5974SOL     OW18316   1.286   2.702   0.083  0.1882  0.0052 -0.1175
 5974SOL    HW118317   1.249   2.621   0.049 -2.3036  0.7709  0.5376
 5974SOL    HW218318   1.277   2.695   0.178  0.7731  0.6932 -0.0025
 5975SOL     OW18319   6.596   2.392   2.631  0.6385 -0.0647 -0.2750
 5975SOL    HW118320   6.527   2.406   2.566  1.2631 -1.6369 -1.3430
 5975SOL    HW218321   6.549   2.373   2.712 -0.2017 -0.8622 -0.9226
 5976SOL     OW18322   5.620   0.694   4.132 -0.2299  0.0686  0.0359
 5976SOL    HW118323   5.589   0.748   4.204 -1.6893  0.2421 -0.6822
 5976SOL    HW218324   5.541   0.672   4.082  0.9898  3.1440 -3.7449
 5977SOL     OW18325   6.643   1.684   0.328  0.5266  0.0089  0.1791
 5977SOL    HW118326   6.570   1.650   0.380  1.2049 -2.4207 -0.3188
 5977SOL    HW218327   6.603   1.716   0.247 -0.0299 -1.2978 -0.0862
 5978SOL     OW18328   0.134   0.393   0.066 -0.0451 -0.1594 -0.5322
 5978SOL    HW118329   0.226   0.419   0.067  0.2850 -1.2916  0.4975
 5978SOL    HW218330   0.123   0.339   0.144 -1.4828 -0.3959 -0.8705
 5979SOL     OW18331   1.291   1.156   2.911  0.3997 -0.2840  0.0300
 5979SOL    HW118332   1.334   1.117   2.988 -0.0080 -0.9770 -0.0857
 5979SOL    HW218333   1.208   1.109   2.904 -1.0632  1.9701  1.0698
 5980SOL     OW18334   1.070   4.229   0.565 -0.1673 -0.1572 -0.4302
 5980SOL    HW118335   1.135   4.170   0.528 -0.6014 -0.7453 -0.2712
 5980SOL    HW218336   1.102   4.316   0.545  0.0874 -0.4546 -1.3540
 5981SOL     OW18337   4.808   1.140   0.592  0.0900 -0.0217  0.0322
 5981SOL    HW118338   4.791   1.054   0.632  0.8454 -0.7283 -1.0965
 5981SOL    HW218339   4.903   1.147   0.590  0.0565  0.3478 -0.8804
 5982SOL     OW18340   3.809   2.573   0.982  0.0114 -0.1631 -0.3579
 5982SOL    HW118341   3.773   2.640   1.040 -3.1460  0.3306 -2.6551
 5982SOL    HW218342   3.875   2.619   0.930 -1.3168  0.9743 -1.1168
 5983SOL     OW18343   5.853   3.713   1.116 -0.4185  0.2345  0.0740
 5983SOL    HW118344   5.901   3.781   1.163  0.9897  0.5525 -1.7537
 5983SOL    HW218345   5.789   3.681   1.180  0.8893  1.1776  1.9393
 5984SOL     OW18346   3.514   1.399   3.405  0.1678 -0.4591  0.3361
 5984SOL    HW118347   3.512   1.352   3.321 -1.4251  0.3131 -0.1163
 5984SOL    HW218348   3.531   1.331   3.470 -1.3197 -1.5868 -0.3679
 5985SOL     OW18349   6.838   0.201   4.230 -0.2094  0.6705  0.0740
 5985SOL    HW118350   6.923   0.218   4.191 -0.4497 -0.7302 -1.1886
 5985SOL    HW218351   6.856   0.146   4.306  0.0564  0.9706  0.2280
 5986SOL     OW18352   1.524   3.239   2.545  0.0401 -0.4419  0.4003
 5986SOL    HW118353   1.614   3.247   2.512 -0.7379  0.7172 -1.5827
 5986SOL    HW218354   1.510   3.318   2.597 -0.0378 -0.3407  0.2230
 5987SOL     OW18355   5.079   1.982   4.526  0.3412 -0.2136 -0.2844
 5987SOL    HW118356   5.028   2.045   4.576  0.9001 -0.4867  0.6550
 5987SOL    HW218357   5.034   1.898   4.537  0.6698 -0.3462  0.0795
 5988SOL     OW18358   1.718   1.326   1.811 -0.0069 -0.0180 -1.0766
 5988SOL    HW118359   1.813   1.327   1.807  0.0733 -0.9904  0.1451
 5988SOL    HW218360   1.696   1.356   1.899 -0.7077 -1.9943 -0.5115
 5989SOL     OW18361   2.608   5.419   4.149  0.0748  0.6853 -0.3750
 5989SOL    HW118362   2.521   5.429   4.111  0.0248  0.1295 -0.4086
 5989SOL    HW218363   2.668   5.430   4.075 -0.0160 -0.2133 -0.5945
 5990SOL     OW18364   4.637   4.743   1.196 -0.0359 -0.4846  0.3156
 5990SOL    HW118365   4.699   4.737   1.122 -0.4880 -2.7675  0.0415
 5990SOL    HW218366   4.551   4.741   1.155 -0.2987 -0.0989  0.8420
 5991SOL     OW18367   2.508   1.864   6.744 -0.2208 -0.7382 -0.3088
 5991SOL    HW118368   2.536   1.894   6.830 -0.3146 -2.3396  0.3002
 5991SOL    HW218369   2.511   1.943   6.689  0.9827  0.0640  0.8582
 5992SOL     OW18370   3.724   0.270   3.135  0.2172  0.8576 -0.1650
 5992SOL    HW118371   3.712   0.350   3.187 -0.7219  1.3880 -1.1582
 5992SOL    HW218372   3.788   0.219   3.184  0.7534  2.1716  0.5463
 5993SOL     OW18373   5.388   5.948   0.382  0.3248 -0.7574  0.0536
 5993SOL    HW118374   5.410   5.954   0.475 -1.3108  0.1450  0.4139
 5993SOL    HW218375   5.470   5.920   0.340  1.8847  1.4498  1.4175
 5994SOL     OW18376   4.344   3.341   3.431 -0.0671  0.3390 -0.1930
 5994SOL    HW118377   4.346   3.246   3.441  1.3766  0.2586 -1.0144
 5994SOL    HW218378   4.265   3.368   3.479 -0.8485 -1.3176 -0.4621
 5995SOL     OW18379   5.203   1.031   1.553  0.1853  0.1816  0.0878
 5995SOL    HW118380   5.258   0.960   1.521  0.5281 -0.3591  1.7415
 5995SOL    HW218381   5.222   1.105   1.496  0.5535 -0.7716 -1.0634
 5996SOL     OW18382   3.619   2.130   1.830 -0.5258  0.0931  0.2814
 5996SOL    HW118383   3.611   2.195   1.760  0.8474  1.1987  1.1166
 5996SOL    HW218384   3.608   2.046   1.785 -0.9911  0.8272 -1.0410
 5997SOL     OW18385   6.276   0.371   0.552  0.3282  0.1947  0.4670
 5997SOL    HW118386   6.343   0.325   0.503 -0.2783 -0.6597  0.4188
 5997SOL    HW218387   6.235   0.429   0.488  0.7568  0.4427  0.4111
 5998SOL     OW18388   1.666   2.886   0.583 -0.0965 -0.0534 -0.0332
 5998SOL    HW118389   1.719   2.909   0.660 -0.0623  0.2382 -0.1433
 5998SOL    HW218390   1.675   2.791   0.575 -0.9689 -0.2336  0.9626
 5999SOL     OW18391   1.390   1.856   2.103 -0.3615  0.2944  0.0229
 5999SOL    HW118392   1.470   1.810   2.077  0.3839  0.8612  1.2724
 5999SOL    HW218393   1.383   1.929   2.041  0.3785  0.5524  0.2377
 6000SOL     OW18394   2.901   0.860   2.400  0.3535 -0.2866 -0.2480
 6000SOL    HW118395   2.884   0.779   2.352  1.8331  0.0327 -1.3762
 6000SOL    HW218396   2.976   0.840   2.456 -0.2614 -0.1397  0.6472
 6001SOL     OW18397   3.646   5.909   4.127 -0.1623 -0.4933  0.4945
 6001SOL    HW118398   3.610   5.973   4.189 -0.1033  0.8663 -0.8260
 6001SOL    HW218399   3.680   5.838   4.183  0.3714  0.9172  2.0533
 6002SOL     OW18400   6.278   4.701   5.195  0.3677  0.2385 -0.0056
 6002SOL    HW118401   6.278   4.639   5.123  1.1752  2.9132 -2.4943
 6002SOL    HW218402   6.186   4.728   5.204  0.3235  0.1898 -0.3066
 6003SOL     OW18403   6.647   2.278   0.659  0.1593 -0.4821 -0.3867
 6003SOL    HW118404   6.586   2.329   0.712  1.9224  1.4551 -0.0746
 6003SOL    HW218405   6.597   2.253   0.582 -1.4748 -0.3621  0.5948
 6004SOL     OW18406   5.090   0.509   3.250 -0.4529 -0.0137  0.2855
 6004SOL    HW118407   5.017   0.552   3.205 -2.0538 -0.5665  2.2214
 6004SOL    HW218408   5.105   0.429   3.199 -1.0043  0.2630 -0.3292
 6005SOL     OW18409   1.075   3.296   2.926 -0.1783 -0.2561 -0.0444
 6005SOL    HW118410   1.140   3.258   2.867 -0.1123  1.5251 -1.2271
 6005SOL    HW218411   1.013   3.340   2.868 -1.0482  0.1855  1.1693
 6006SOL     OW18412   5.720   5.218   2.294 -0.3076 -0.5764  0.2392
 6006SOL    HW118413   5.635   5.183   2.318 -0.4880 -1.4433 -1.5295
 6006SOL    HW218414   5.775   5.202   2.371 -1.7521  0.2037  1.4976
 6007SOL     OW18415   2.428   3.783   1.366  0.7647 -0.1438 -0.3257
 6007SOL    HW118416   2.395   3.716   1.306  0.7297 -1.1290  0.7594
 6007SOL    HW218417   2.436   3.738   1.450  3.6993  0.3560 -0.2233
 6008SOL     OW18418   0.804   6.859   3.431 -0.0129  0.2213 -0.0714
 6008SOL    HW118419   0.881   6.873   3.486 -0.4491  0.1126  0.5786
 6008SOL    HW218420   0.736   6.912   3.472 -0.4282 -0.1127 -0.3304
 6009SOL     OW18421   3.091   4.624   2.705  0.1831 -0.2985  0.0073
 6009SOL    HW118422   3.103   4.713   2.737  0.5476 -0.7463  1.1655
 6009SOL    HW218423   3.153   4.572   2.756 -0.2477 -1.2612 -0.4277
 6010SOL     OW18424   0.144   5.286   4.017  0.1867  0.0772 -0.1308
 6010SOL    HW118425   0.072   5.349   4.014 -1.5441 -1.5572  2.1970
 6010SOL    HW218426   0.201   5.318   4.088 -0.6891 -0.8523  1.0470
 6011SOL     OW18427   1.121   2.501   1.520 -0.5608 -0.8180  0.2490
 6011SOL    HW118428   1.199   2.549   1.493  0.5998 -1.2489  2.5471
 6011SOL    HW218429   1.060   2.568   1.552 -0.5798 -0.5935 -0.2482
 6012SOL     OW18430   1.534   0.825   6.135 -0.3747 -0.1410 -1.0078
 6012SOL    HW118431   1.553   0.734   6.113  0.2957  0.1321 -1.5947
 6012SOL    HW218432   1.601   0.875   6.089  0.6682  0.5118  1.0908
 6013SOL     OW18433   4.176   1.607   4.113  0.2579  0.1091  0.6159
 6013SOL    HW118434   4.144   1.634   4.027 -2.6434  0.0121  1.5575
 6013SOL    HW218435   4.138   1.521   4.127 -1.4613  1.1247  2.9440
 6014SOL     OW18436   6.595   2.472   6.596 -0.3242  0.5402 -0.2158
 6014SOL    HW118437   6.646   2.549   6.570  0.7725 -0.6539 -1.8389
 6014SOL    HW218438   6.616   2.460   6.689  1.5040  0.7755 -0.5548
 6015SOL     OW18439   2.143   2.522   4.617  0.1408 -0.0039  0.8927
 6015SOL    HW118440   2.138   2.605   4.571  1.7503 -0.7127 -0.7090
 6015SOL    HW218441   2.237   2.508   4.630 -0.0087 -2.0015  0.1922
 6016SOL     OW18442   2.961   0.154   6.901 -0.2858 -0.0350 -0.2344
 6016SOL    HW118443   2.983   0.224   6.839  1.0326 -0.4784 -0.2816
 6016SOL    HW218444   3.018   0.081   6.878 -0.5203 -0.5851  0.8315
 6017SOL     OW18445   6.369   1.021   4.670  0.3890  0.2052 -0.5050
 6017SOL    HW118446   6.454   1.045   4.706  0.5036 -1.1476  0.2051
 6017SOL    HW218447   6.357   1.078   4.594  2.7227 -0.7157 -1.6543
 6018SOL     OW18448   6.558   2.180   5.354 -0.4620 -0.0686 -0.2171
 6018SOL    HW118449   6.575   2.086   5.353  0.4980  0.0936 -0.5500
 6018SOL    HW218450   6.640   2.219   5.387  0.3364  0.8507 -3.0501
 6019SOL     OW18451   5.662   2.488   4.462  0.1849  0.3680  0.2018
 6019SOL    HW118452   5.650   2.569   4.412  0.1603 -0.0131 -0.4215
 6019SOL    HW218453   5.734   2.507   4.522  0.1258  0.8746  0.1147
 6020SOL     OW18454   3.269   6.565   5.028 -0.5935  0.5613  0.3937
 6020SOL    HW118455   3.243   6.656   5.020 -1.8060  0.1610 -0.5513
 6020SOL    HW218456   3.365   6.566   5.024 -0.4263  1.9686  2.6760
 6021SOL     OW18457   1.051   3.990   2.593 -0.0699 -0.3172 -0.3095
 6021SOL    HW118458   0.968   4.005   2.547  0.3271  0.4659 -0.7724
 6021SOL    HW218459   1.045   4.045   2.671  0.6566  0.9444 -1.1276
 6022SOL     OW18460   2.376   1.294   2.930  0.0678 -0.0404 -0.5848
 6022SOL    HW118461   2.432   1.366   2.903  0.1057 -0.8097 -2.7234
 6022SOL    HW218462   2.292   1.335   2.952 -0.1795  0.6450 -2.5754
 6023SOL     OW18463   3.010   0.515   1.188  0.5910 -0.8697 -0.0080
 6023SOL    HW118464   2.993   0.549   1.276 -0.1975 -0.6877 -0.2258
 6023SOL    HW218465   2.936   0.456   1.171  0.4004 -0.4159 -0.7969
 6024SOL     OW18466   5.675   4.586   1.979 -0.1514 -0.0867  0.5691
 6024SOL    HW118467   5.705   4.505   1.938 -1.6040  0.0282 -0.8496
 6024SOL    HW218468   5.742   4.651   1.959  0.5708 -0.7224  0.9123
 6025SOL     OW18469   2.041   5.806   2.197 -0.1930  0.2134  0.4393
 6025SOL    HW118470   1.969   5.743   2.196 -1.2858  1.3895 -1.5954
 6025SOL    HW218471   1.998   5.891   2.190  1.3545  1.0092  0.3003
 6026SOL     OW18472   0.619   5.758   4.867 -0.0752  0.4618 -0.0844
 6026SOL    HW118473   0.656   5.673   4.893 -0.2164  1.0124  2.1276
 6026SOL    HW218474   0.675   5.822   4.911 -1.1081  1.4499 -0.1757
 6027SOL     OW18475   4.982   1.035   0.336 -0.3824 -0.2428  0.2231
 6027SOL    HW118476   5.040   0.995   0.271 -1.3377 -0.0921 -0.7474
 6027SOL    HW218477   5.041   1.070   0.403  0.5416 -2.2680  0.5387
 6028SOL     OW18478   4.967   6.318   2.031  0.2307 -0.0673  0.0090
 6028SOL    HW118479   5.001   6.284   1.948  1.6238  1.8712 -0.2908
 6028SOL    HW218480   4.893   6.374   2.007 -0.4322 -0.8216  0.2545
 6029SOL     OW18481   5.178   4.295   4.143 -0.3705  0.2226  0.4056
 6029SOL    HW118482   5.108   4.241   4.107  0.5513 -1.1906  0.6473
 6029SOL    HW218483   5.250   4.234   4.160  0.7002  1.5184  0.7652
 6030SOL     OW18484   0.892   2.325   1.434 -0.0313  0.3071 -0.3212
 6030SOL    HW118485   0.971   2.371   1.464 -0.7398  1.7272 -0.5377
 6030SOL    HW218486   0.917   2.290   1.348  0.4551  0.4748 -0.2546
 6031SOL     OW18487   6.400   0.017   5.362  0.1983 -0.0855  0.7192
 6031SOL    HW118488   6.428  -0.069   5.331  0.4945 -0.1607  1.1855
 6031SOL    HW218489   6.480   0.070   5.360  0.6451 -0.5863  3.0399
 6032SOL     OW18490   0.056   2.938   5.709 -0.5972 -0.4979 -0.1196
 6032SOL    HW118491  -0.013   2.872   5.712 -1.9403  0.8740  1.4407
 6032SOL    HW218492   0.011   3.019   5.685  0.4729  0.4150  0.8015
 6033SOL     OW18493   1.932   0.750   4.439  0.2787 -0.2176  1.0465
 6033SOL    HW118494   1.943   0.822   4.377  0.9519 -0.6632  0.6297
 6033SOL    HW218495   1.972   0.781   4.520 -0.7936  0.4512  1.3369
 6034SOL     OW18496   4.157   0.094   4.706 -0.3633 -0.0326 -0.4985
 6034SOL    HW118497   4.152   0.014   4.654 -0.3818 -0.5828  0.3257
 6034SOL    HW218498   4.198   0.066   4.789  0.0599  0.9023 -0.3784
 6035SOL     OW18499   4.786   1.621   4.473 -0.1090  0.0490  0.0918
 6035SOL    HW118500   4.816   1.530   4.482 -1.9153 -0.5022  0.9858
 6035SOL    HW218501   4.849   1.672   4.525  0.6795 -0.7186 -0.0765
 6036SOL     OW18502   3.691   2.847   0.932  0.5624 -0.2414  0.7075
 6036SOL    HW118503   3.703   2.884   0.845 -0.4276  1.2932  1.1940
 6036SOL    HW218504   3.748   2.898   0.989 -0.8756  0.6835  1.3972
 6037SOL     OW18505   4.493   1.925   0.391  0.0630  0.1911 -0.2582
 6037SOL    HW118506   4.513   1.934   0.298 -2.3023  0.2878 -0.8245
 6037SOL    HW218507   4.442   1.845   0.397 -2.1496  1.5670  0.4700
 6038SOL     OW18508   0.940   1.978   3.419  0.0532  0.2423 -0.0809
 6038SOL    HW118509   0.976   1.945   3.501  0.8767  1.7328  0.1821
 6038SOL    HW218510   1.010   1.966   3.354 -1.0086 -2.0898 -0.9404
 6039SOL     OW18511   0.637   2.538   1.910  0.1022  0.5142  0.1624
 6039SOL    HW118512   0.702   2.608   1.913  0.7408 -0.0052 -0.7293
 6039SOL    HW218513   0.686   2.462   1.879 -0.2469 -0.7229  2.4766
 6040SOL     OW18514   0.891   0.417   0.118  0.6317  0.1917 -0.1091
 6040SOL    HW118515   0.893   0.324   0.139  0.1781 -0.1753 -1.5843
 6040SOL    HW218516   0.983   0.441   0.107  0.7837  0.0671  0.8544
 6041SOL     OW18517   0.011   0.660   5.310 -0.1233 -0.2159 -0.2815
 6041SOL    HW118518   0.011   0.584   5.368  0.6231  1.3225  1.9175
 6041SOL    HW218519   0.101   0.694   5.316 -0.0323  0.0426 -2.3680
 6042SOL     OW18520   2.010   1.839   5.607  0.2158  0.0060  0.3570
 6042SOL    HW118521   2.085   1.873   5.655  0.6020 -1.3649  0.7673
 6042SOL    HW218522   2.026   1.865   5.516  1.3988 -0.5984  0.3709
 6043SOL     OW18523   1.934   6.578   3.166 -0.1192 -0.0035 -0.3046
 6043SOL    HW118524   1.867   6.634   3.205  0.8180  1.4657 -0.7272
 6043SOL    HW218525   1.894   6.544   3.086 -0.7082  0.0262 -0.0259
 6044SOL     OW18526   6.166   0.774   0.641 -0.8126 -0.5440  0.1913
 6044SOL    HW118527   6.249   0.823   0.649 -1.3025  0.1375  1.2996
 6044SOL    HW218528   6.119   0.795   0.721 -2.1413 -0.7982 -0.5096
 6045SOL     OW18529   1.739   0.997   1.732  0.2040 -0.1136 -0.2496
 6045SOL    HW118530   1.763   1.074   1.783 -0.1450  0.8583 -1.5054
 6045SOL    HW218531   1.676   0.950   1.787  1.1372 -0.0144  0.9271
 6046SOL     OW18532   2.665   6.652   3.449 -0.1176  0.4420  0.1198
 6046SOL    HW118533   2.727   6.589   3.414 -1.3725 -0.3088 -0.8277
 6046SOL    HW218534   2.710   6.736   3.443  1.0042 -0.1599 -0.0205
 6047SOL     OW18535   6.251   6.147   3.677 -0.4903 -0.4609 -0.1902
 6047SOL    HW118536   6.185   6.141   3.607 -1.3902  1.6764  0.3895
 6047SOL    HW218537   6.200   6.151   3.758  0.2489  2.0829  0.2210
 6048SOL     OW18538   4.972   4.847   4.424  0.5668  0.2952 -0.0776
 6048SOL    HW118539   4.894   4.839   4.369  0.3400  0.6966  0.1810
 6048SOL    HW218540   4.942   4.824   4.512  1.0780 -1.0118 -0.2142
 6049SOL     OW18541   1.038   0.113   4.647 -0.2791 -0.1681  0.2306
 6049SOL    HW118542   0.967   0.146   4.701 -1.3320 -1.0748 -0.5434
 6049SOL    HW218543   1.083   0.192   4.615 -1.0717  0.4288  0.5653
 6050SOL     OW18544   6.415   2.564   5.084 -0.0318 -0.0467  0.0134
 6050SOL    HW118545   6.346   2.499   5.096  0.7368 -0.8235  0.3599
 6050SOL    HW218546   6.463   2.564   5.167 -0.1460  1.1405  0.1050
 6051SOL     OW18547   1.469   3.879   1.669 -0.1251  0.4827 -0.2634
 6051SOL    HW118548   1.410   3.917   1.734 -0.0317 -1.7797  1.2498
 6051SOL    HW218549   1.546   3.936   1.669 -0.5953  1.1329  0.8106
 6052SOL     OW18550   4.037   5.051   6.044  0.1422  0.2315 -0.1169
 6052SOL    HW118551   3.984   5.129   6.027  0.3048  0.1842 -0.8540
 6052SOL    HW218552   4.112   5.059   5.985  0.4868 -0.1696  0.2556
 6053SOL     OW18553   5.936   6.914   3.318  0.1370  0.0889 -0.0664
 6053SOL    HW118554   5.985   6.839   3.352 -0.3432 -0.5076 -0.6702
 6053SOL    HW218555   5.928   6.973   3.393 -1.4632 -1.4772  1.0631
 6054SOL     OW18556   2.539   0.819   1.058  0.1049  0.3148 -0.1833
 6054SOL    HW118557   2.497   0.733   1.071 -0.5732  0.3302 -1.9323
 6054SOL    HW218558   2.467   0.877   1.033  0.3402  1.7718  2.1671
 6055SOL     OW18559   6.633   4.653   2.809 -0.6675 -0.4273  0.1397
 6055SOL    HW118560   6.562   4.706   2.773  0.3222  2.4673  2.1155
 6055SOL    HW218561   6.604   4.632   2.897 -0.0108 -1.1601  0.1872
 6056SOL     OW18562   5.769   3.026   6.455 -0.4916  0.1877 -0.0534
 6056SOL    HW118563   5.801   3.066   6.536  0.9681 -0.0227 -0.4867
 6056SOL    HW218564   5.810   2.939   6.453 -0.7439  0.0716 -0.8580
 6057SOL     OW18565   5.886   6.675   4.189  0.1940 -0.1474 -0.1111
 6057SOL    HW118566   5.855   6.746   4.246 -0.6555 -1.2871  0.9161
 6057SOL    HW218567   5.972   6.703   4.160 -0.9800  2.2910 -1.5199
 6058SOL     OW18568   4.815   1.020   5.529  0.2392  0.3259 -0.0223
 6058SOL    HW118569   4.736   1.024   5.474  1.5695  1.1438 -2.0207
 6058SOL    HW218570   4.802   0.943   5.584 -0.7524 -1.2350 -2.2549
 6059SOL     OW18571   3.985   2.783   5.060 -0.5537  0.0080  0.1518
 6059SOL    HW118572   3.892   2.763   5.060 -0.5218 -0.1365 -0.2790
 6059SOL    HW218573   3.992   2.868   5.017 -0.3217 -0.7560 -1.3685
 6060SOL     OW18574   3.193   3.520   5.416 -0.0960  0.2304 -0.0443
 6060SOL    HW118575   3.139   3.489   5.490 -0.1102  2.0627  0.7580
 6060SOL    HW218576   3.199   3.444   5.358  2.5968 -2.4216  3.2819
 6061SOL     OW18577   2.471   5.162   4.810  0.4228  0.2400 -0.3478
 6061SOL    HW118578   2.397   5.136   4.755  0.3781  0.2459 -0.2898
 6061SOL    HW218579   2.540   5.185   4.747  0.2577  0.5813 -0.4017
 6062SOL     OW18580   3.803   4.105   5.374  0.4246 -0.0231 -0.5578
 6062SOL    HW118581   3.852   4.065   5.445 -1.1020 -1.8168 -0.4257
 6062SOL    HW218582   3.813   4.199   5.387 -0.7595 -0.2444  2.7473
 6063SOL     OW18583   5.643   5.259   5.591  0.4435 -0.5939  0.3259
 6063SOL    HW118584   5.569   5.250   5.531  2.1112 -0.0118 -1.9742
 6063SOL    HW218585   5.697   5.182   5.574  0.9297 -0.4409  1.1268
 6064SOL     OW18586   6.713   1.885   5.651  0.0528  0.2095 -0.0366
 6064SOL    HW118587   6.735   1.975   5.628  1.6036  0.0571  0.7274
 6064SOL    HW218588   6.676   1.848   5.571  1.0683  1.0087 -0.8978
 6065SOL     OW18589   4.094   5.847   5.646 -0.2513 -0.1111  0.0181
 6065SOL    HW118590   4.048   5.800   5.715  1.4285 -0.5878  0.8522
 6065SOL    HW218591   4.183   5.858   5.679 -0.1284  2.1406 -0.8760
 6066SOL     OW18592   4.384   0.057   5.648 -0.0677  0.2771 -0.4805
 6066SOL    HW118593   4.403   0.129   5.589  0.5012  1.3527  0.9634
 6066SOL    HW218594   4.463   0.047   5.701  1.0992 -3.4088 -2.5426
 6067SOL     OW18595   0.564   1.190   5.740 -0.3634  0.5610 -0.6345
 6067SOL    HW118596   0.487   1.247   5.746 -0.0965  0.8184  0.5992
 6067SOL    HW218597   0.563   1.140   5.822  0.4268  0.1050 -0.8955
 6068SOL     OW18598   6.399   4.560   4.255  0.3341 -0.5955  0.0763
 6068SOL    HW118599   6.323   4.599   4.212  1.0146  0.8522  0.0922
 6068SOL    HW218600   6.415   4.479   4.207 -2.0171 -1.6676  0.9717
 6069SOL     OW18601   6.201   3.739   1.570 -0.7832 -0.1252  0.0971
 6069SOL    HW118602   6.277   3.716   1.516 -0.5216  0.6664  0.1137
 6069SOL    HW218603   6.221   3.703   1.656  0.3654  1.5153  0.5519
 6070SOL     OW18604   4.243   2.674   1.709 -0.2167 -0.6054 -0.0515
 6070SOL    HW118605   4.221   2.740   1.775 -0.0495 -1.0918  0.4977
 6070SOL    HW218606   4.311   2.620   1.751  0.1021 -0.7399 -0.7296
 6071SOL     OW18607   3.653   1.378   4.097  0.1310  0.6401  0.5999
 6071SOL    HW118608   3.565   1.414   4.101  0.1113  0.6277  0.3028
 6071SOL    HW218609   3.656   1.314   4.168 -0.0537  0.7341  0.6951
 6072SOL     OW18610   6.352   5.562   2.669 -0.2146  0.2761 -0.0358
 6072SOL    HW118611   6.371   5.555   2.576  0.4965 -1.0362  0.1874
 6072SOL    HW218612   6.257   5.549   2.675 -0.1987 -0.0914 -0.5344
 6073SOL     OW18613   3.936   4.080   6.585 -0.6877  0.2014 -0.5037
 6073SOL    HW118614   3.960   4.131   6.662  0.1180 -1.8890  0.7202
 6073SOL    HW218615   3.881   4.010   6.619  0.1919 -1.1289 -1.6932
 6074SOL     OW18616   1.772   6.576   4.703  0.6028  0.3570  0.0541
 6074SOL    HW118617   1.699   6.632   4.730 -0.4067  0.0246 -1.8229
 6074SOL    HW218618   1.849   6.633   4.707  1.0731 -0.0962  5.3274
 6075SOL     OW18619   6.199   4.997   5.180 -0.0000 -0.0884  0.0601
 6075SOL    HW118620   6.133   4.931   5.158 -0.6907 -0.4184  2.8196
 6075SOL    HW218621   6.283   4.951   5.171 -0.4577 -1.2741  1.5990
 6076SOL     OW18622   2.304   6.444   3.061 -0.4248 -0.0288 -0.2136
 6076SOL    HW118623   2.237   6.475   3.122  0.0364  0.3442  0.1158
 6076SOL    HW218624   2.384   6.438   3.115  0.0777  0.6897 -0.8631
 6077SOL     OW18625   6.663   4.327   3.910 -0.5069 -0.2606 -0.4878
 6077SOL    HW118626   6.615   4.402   3.876  0.6988  0.5901 -0.3539
 6077SOL    HW218627   6.662   4.338   4.005  0.7252  0.2687 -0.5226
 6078SOL     OW18628   1.515   4.270   1.965  0.0025  0.6201 -0.5570
 6078SOL    HW118629   1.547   4.331   1.898  1.4640  1.9639  1.2684
 6078SOL    HW218630   1.479   4.326   2.034  0.3836 -0.6234  0.7049
 6079SOL     OW18631   2.732   5.960   6.778 -0.0566 -0.2881 -0.1352
 6079SOL    HW118632   2.739   6.001   6.692 -1.6520  1.0241  0.3053
 6079SOL    HW218633   2.695   5.873   6.761 -1.3888  0.3674 -0.7206
 6080SOL     OW18634   2.997   6.932   4.729  0.0142  0.3260  0.3035
 6080SOL    HW118635   2.938   6.997   4.692 -1.4841 -0.8368  0.5592
 6080SOL    HW218636   2.998   6.952   4.823 -3.4613 -2.1451  1.0629
 6081SOL     OW18637   3.929   0.926   6.079 -0.0059 -0.2385 -0.2757
 6081SOL    HW118638   3.996   0.932   6.011 -0.4307 -0.7734 -0.7542
 6081SOL    HW218639   3.961   0.856   6.137 -0.9081 -1.6511 -1.4060
 6082SOL     OW18640   2.452   3.655   0.344 -0.6129  0.0360  0.5154
 6082SOL    HW118641   2.541   3.688   0.355 -0.1840 -0.0038 -2.2277
 6082SOL    HW218642   2.414   3.709   0.275 -1.8004 -1.6103 -0.2038
 6083SOL     OW18643   5.974   2.017   2.490 -0.2577  0.0309  0.4313
 6083SOL    HW118644   5.985   1.957   2.564 -0.7834 -0.6877 -0.0664
 6083SOL    HW218645   5.916   2.086   2.524 -0.8936 -0.5493  0.5549
 6084SOL     OW18646   3.642   5.938   0.127  0.2011 -0.0414  0.7340
 6084SOL    HW118647   3.712   5.933   0.062  1.7620  2.4659  2.0962
 6084SOL    HW218648   3.605   6.025   0.117 -2.9658 -1.3026 -0.0264
 6085SOL     OW18649   2.523   0.744   4.727 -0.0181  0.0750  0.0830
 6085SOL    HW118650   2.516   0.717   4.818 -0.1700  0.2118  0.1128
 6085SOL    HW218651   2.617   0.742   4.708 -0.0034 -0.1377  0.1851
 6086SOL     OW18652   2.595   6.712   5.469  0.2573  0.2010  0.2063
 6086SOL    HW118653   2.524   6.670   5.420  0.2318  0.5859 -0.0913
 6086SOL    HW218654   2.675   6.673   5.433  0.1872 -0.8993  1.1574
 6087SOL     OW18655   1.618   5.496   6.039  0.3952  0.7592  0.0315
 6087SOL    HW118656   1.587   5.438   5.970  2.7718 -1.8413  0.9410
 6087SOL    HW218657   1.544   5.502   6.100 -0.1663 -0.8371 -0.4244
 6088SOL     OW18658   4.112   5.551   5.323 -1.2080 -0.4987  0.4210
 6088SOL    HW118659   4.056   5.480   5.354  0.1662 -1.9427 -0.2090
 6088SOL    HW218660   4.116   5.539   5.228 -0.1035 -0.2720  0.4167
 6089SOL     OW18661   4.789   5.927   4.613  0.5167 -0.3071 -0.4284
 6089SOL    HW118662   4.839   5.900   4.689  2.1733  0.3724 -1.2352
 6089SOL    HW218663   4.766   5.844   4.569  1.2340 -0.6193 -0.2262
 6090SOL     OW18664   3.635   5.850   1.741 -0.1079 -0.0650 -0.5102
 6090SOL    HW118665   3.676   5.934   1.761  0.5613 -1.0426  2.7763
 6090SOL    HW218666   3.690   5.812   1.672  2.0822  0.5039  0.8134
 6091SOL     OW18667   6.238   1.219   2.654 -0.0628  0.3051 -0.1198
 6091SOL    HW118668   6.177   1.147   2.671 -0.3942  0.8746  1.3040
 6091SOL    HW218669   6.321   1.176   2.635  0.7369 -0.6153  4.2858
 6092SOL     OW18670   5.091   3.800   4.433  0.1640  0.1926  0.8897
 6092SOL    HW118671   5.174   3.838   4.460 -0.0161  0.0676  1.6538
 6092SOL    HW218672   5.114   3.732   4.370  0.7418 -0.6983  2.0369
 6093SOL     OW18673   1.630   6.739   0.127 -0.0405  0.0506  0.2189
 6093SOL    HW118674   1.583   6.815   0.163 -1.6568 -0.8829  0.1791
 6093SOL    HW218675   1.638   6.679   0.201  2.5388  0.8045  0.6281
 6094SOL     OW18676   0.405   0.979   1.840 -0.0270  0.1907  0.1901
 6094SOL    HW118677   0.368   1.023   1.917 -1.1141 -0.0295 -0.1911
 6094SOL    HW218678   0.476   1.036   1.812 -0.8464  1.2686  0.2218
 6095SOL     OW18679   0.085   1.425   3.301  0.0385 -0.4198  0.2404
 6095SOL    HW118680   0.054   1.428   3.211  0.0247 -2.0591  0.1592
 6095SOL    HW218681   0.147   1.352   3.303  0.9802  0.3762  1.2862
 6096SOL     OW18682   6.324   0.107   3.093  0.5364  0.2209 -0.5459
 6096SOL    HW118683   6.370   0.140   3.015  4.5371 -0.8244  1.1187
 6096SOL    HW218684   6.283   0.184   3.131  2.6821  1.7499 -1.1437
 6097SOL     OW18685   6.197   3.173   6.564 -0.0209  0.0245 -0.3857
 6097SOL    HW118686   6.211   3.083   6.593 -0.3158  0.5831  1.6979
 6097SOL    HW218687   6.102   3.185   6.569  0.0913  0.7211  0.3273
 6098SOL     OW18688   6.282   0.790   6.125  0.1075  0.1806 -0.2207
 6098SOL    HW118689   6.216   0.851   6.092  0.1634  0.7464  0.6771
 6098SOL    HW218690   6.358   0.845   6.143 -0.0068 -0.0434  1.0701
 6099SOL     OW18691   5.608   2.730   4.391 -0.5524 -0.0603  0.1858
 6099SOL    HW118692   5.679   2.789   4.417  0.5171 -1.1847 -0.0833
 6099SOL    HW218693   5.559   2.779   4.325  2.0916 -0.4961 -2.2916
 6100SOL     OW18694   5.096   5.252   4.813 -0.4467  0.5520 -0.2075
 6100SOL    HW118695   5.076   5.227   4.903 -0.3410  2.7997  0.5150
 6100SOL    HW218696   5.014   5.290   4.780 -0.0418  1.2207 -0.4717
 6101SOL     OW18697   6.624   5.653   4.460  0.3993  0.1819  0.3582
 6101SOL    HW118698   6.547   5.687   4.414  0.8740  1.0593  0.1931
 6101SOL    HW218699   6.698   5.701   4.423  0.9410 -0.0619  1.0858
 6102SOL     OW18700   0.351   5.102   2.981 -0.4386  0.2794 -0.1439
 6102SOL    HW118701   0.422   5.159   2.951  0.0753  0.2928  1.0471
 6102SOL    HW218702   0.371   5.016   2.943  0.2593  0.2670  0.2373
 6103SOL     OW18703   6.563   0.587   6.274  0.2092 -0.2269  0.7678
 6103SOL    HW118704   6.623   0.630   6.214  1.4179  1.6974  3.1637
 6103SOL    HW218705   6.548   0.501   6.235 -0.4343  1.4375 -3.0382
 6104SOL     OW18706   6.197   1.856   6.598  0.1668  0.6948 -0.0834
 6104SOL    HW118707   6.112   1.813   6.591 -0.1405  1.4834 -1.5626
 6104SOL    HW218708   6.260   1.784   6.609 -0.7839  0.1704  2.6510
 6105SOL     OW18709   4.962   4.698   4.657 -0.3633  0.3790 -0.1253
 6105SOL    HW118710   4.937   4.614   4.695 -0.5890  1.4089  2.1770
 6105SOL    HW218711   5.052   4.712   4.686 -1.2548  2.1831  2.0278
 6106SOL     OW18712   1.445   2.562   6.168 -0.6458  0.3305  0.0633
 6106SOL    HW118713   1.421   2.469   6.178  1.5667 -0.3433 -0.3022
 6106SOL    HW218714   1.536   2.566   6.197 -0.4218  2.2229 -0.7799
 6107SOL     OW18715   3.854   2.376   4.463 -0.6292 -0.2789 -0.1502
 6107SOL    HW118716   3.783   2.404   4.521 -0.0515 -0.7456  0.8178
 6107SOL    HW218717   3.849   2.435   4.388  0.5955  2.6057  1.8346
 6108SOL     OW18718   4.273   2.203   5.619  0.3954 -0.0809 -0.5302
 6108SOL    HW118719   4.354   2.251   5.600  0.1571  0.5859  0.0765
 6108SOL    HW218720   4.253   2.156   5.538  0.6494  0.8346 -1.1366
 6109SOL     OW18721   4.747   6.380   3.182  0.7029  0.0730  0.4012
 6109SOL    HW118722   4.712   6.345   3.264 -0.8266 -0.8436 -0.5805
 6109SOL    HW218723   4.675   6.432   3.146  0.3072 -1.6732 -1.5761
 6110SOL     OW18724   4.085   5.158   2.224 -0.1835 -0.2743  0.0830
 6110SOL    HW118725   4.075   5.083   2.166 -0.0197 -0.1926 -0.0532
 6110SOL    HW218726   4.054   5.128   2.310  1.1647 -0.9255  0.3627
 6111SOL     OW18727   6.698   5.719   2.839 -0.5806 -0.5305  0.8478
 6111SOL    HW118728   6.643   5.790   2.805 -0.6219 -1.3685 -0.9327
 6111SOL    HW218729   6.760   5.763   2.897 -0.5603  0.9837 -0.2583
 6112SOL     OW18730   5.910   0.763   4.270 -0.8142  0.5437  0.0390
 6112SOL    HW118731   5.906   0.716   4.186 -4.4195 -1.0654  0.9206
 6112SOL    HW218732   5.852   0.714   4.327  0.3371  2.4757  3.0872
 6113SOL     OW18733   2.296   3.302   6.686  0.3484 -0.0704  0.1585
 6113SOL    HW118734   2.214   3.330   6.645  0.7358  0.3297 -0.3614
 6113SOL    HW218735   2.321   3.222   6.639  0.8967  0.4984 -0.5440
 6114SOL     OW18736   5.604   6.020   6.761 -0.1550 -0.2417 -0.0276
 6114SOL    HW118737   5.587   6.112   6.741 -1.7296 -1.0400 -2.9130
 6114SOL    HW218738   5.558   6.005   6.844  0.5434  1.6222  0.7722
 6115SOL     OW18739   1.413   0.400   2.299  0.4029 -0.1467  0.4574
 6115SOL    HW118740   1.344   0.396   2.233 -0.4427 -1.9146  1.3621
 6115SOL    HW218741   1.482   0.343   2.265  0.5924  0.1043  0.4226
 6116SOL     OW18742   3.829   0.170   5.615 -0.2787 -0.2908  0.2698
 6116SOL    HW118743   3.894   0.108   5.582  0.2266  0.1151  0.4716
 6116SOL    HW218744   3.882   0.240   5.656 -0.7605  1.0597 -1.3100
 6117SOL     OW18745   3.850   3.754   0.363 -0.5501 -0.5745  0.0259
 6117SOL    HW118746   3.791   3.753   0.438  1.4245  0.3884  1.6997
 6117SOL    HW218747   3.924   3.699   0.390  1.0319  1.2106 -0.4367
 6118SOL     OW18748   4.550   2.976   3.218 -0.2898 -0.3392  0.3194
 6118SOL    HW118749   4.634   3.006   3.183 -0.8138 -0.6696 -1.3115
 6118SOL    HW218750   4.485   3.034   3.177 -1.0170 -1.4067 -0.0755
 6119SOL     OW18751   5.221   6.075   6.496  0.5002  0.7642  0.1304
 6119SOL    HW118752   5.188   5.990   6.525 -1.2772  1.2639 -0.2882
 6119SOL    HW218753   5.304   6.056   6.454  0.2638 -0.7317  0.2974
 6120SOL     OW18754   3.611   4.859   1.388  0.1673 -0.0873  0.4330
 6120SOL    HW118755   3.559   4.925   1.342 -2.4108 -2.6532 -0.6728
 6120SOL    HW218756   3.677   4.832   1.323 -0.1506 -0.0895  0.1048
 6121SOL     OW18757   3.148   4.115   4.052  0.8129  0.4039 -0.1619
 6121SOL    HW118758   3.115   4.191   4.005  1.8879  1.3853  0.5998
 6121SOL    HW218759   3.202   4.068   3.988  0.8808  0.7842 -0.3819
 6122SOL     OW18760   6.682   5.350   0.802 -0.4793  0.2339 -0.0072
 6122SOL    HW118761   6.695   5.398   0.720  0.5851 -0.5849 -0.3421
 6122SOL    HW218762   6.694   5.258   0.778 -0.6581 -0.0624  0.9771
 6123SOL     OW18763   5.691   3.703   4.775 -0.2926  0.0777  0.4293
 6123SOL    HW118764   5.631   3.649   4.724 -0.8655 -0.0700  1.2275
 6123SOL    HW218765   5.679   3.673   4.865  1.3851 -0.3244  0.5398
 6124SOL     OW18766   1.797   0.852   5.775  0.2223  0.5347  0.3519
 6124SOL    HW118767   1.766   0.905   5.701  1.3331 -0.5370 -0.9277
 6124SOL    HW218768   1.792   0.762   5.744 -0.0869 -0.0217  1.9172
 6125SOL     OW18769   5.259   3.060   5.264 -0.1874  0.6148  0.1406
 6125SOL    HW118770   5.310   3.028   5.339  0.5307  0.6090 -0.3382
 6125SOL    HW218771   5.176   3.089   5.302  0.5481  1.5592  1.0821
 6126SOL     OW18772   0.494   4.158   1.522  0.0830  0.3063  0.4779
 6126SOL    HW118773   0.539   4.234   1.557  0.5373 -0.1774  0.9582
 6126SOL    HW218774   0.434   4.194   1.456  1.8974  0.8819 -0.9419
 6127SOL     OW18775   6.876   2.393   3.063 -0.1056 -0.0142 -0.3742
 6127SOL    HW118776   6.837   2.430   3.142  0.8044 -0.5077  0.3261
 6127SOL    HW218777   6.873   2.464   2.999 -0.9853  0.3458  0.0570
 6128SOL     OW18778   4.033   4.417   5.808  0.1303 -0.1724 -0.2037
 6128SOL    HW118779   4.098   4.455   5.868 -0.0531  0.5060 -0.4188
 6128SOL    HW218780   3.989   4.493   5.770 -2.1110 -0.5716  1.3750
 6129SOL     OW18781   4.761   0.008   6.359 -0.1165  0.8049  0.2075
 6129SOL    HW118782   4.840  -0.044   6.372  0.5138  1.8329  0.5857
 6129SOL    HW218783   4.713  -0.001   6.441 -2.4768 -3.1230 -1.3285
 6130SOL     OW18784   2.864   1.045   5.885  0.5100  0.1893 -0.6501
 6130SOL    HW118785   2.823   1.046   5.972  0.1913  0.4395 -0.7990
 6130SOL    HW218786   2.849   0.956   5.853 -2.4656  1.0002 -1.8702
 6131SOL     OW18787   2.529   1.369   2.221 -0.0034 -0.2041  0.1830
 6131SOL    HW118788   2.559   1.307   2.288 -0.9722 -1.0568 -0.1536
 6131SOL    HW218789   2.560   1.333   2.138  0.5373  0.4535  0.0881
 6132SOL     OW18790   6.631   4.692   2.415  0.2744 -0.2657  0.0294
 6132SOL    HW118791   6.706   4.633   2.407  1.0876  0.9153 -1.8562
 6132SOL    HW218792   6.670   4.779   2.429 -0.7116  0.3371 -0.7841
 6133SOL     OW18793   6.469   2.504   2.312 -0.3613 -0.0302 -0.3599
 6133SOL    HW118794   6.381   2.487   2.280 -0.1920 -2.5452  0.2763
 6133SOL    HW218795   6.504   2.572   2.254 -1.5644 -1.3303 -2.7316
 6134SOL     OW18796   0.079   0.401   4.632 -0.4208 -0.3626 -0.5984
 6134SOL    HW118797   0.006   0.395   4.693  0.0203 -2.8638 -0.2164
 6134SOL    HW218798   0.038   0.401   4.545 -0.9578  1.3082 -0.3826
 6135SOL     OW18799   5.450   2.650   0.538  0.6029 -0.6038  0.0391
 6135SOL    HW118800   5.406   2.678   0.618  0.5241 -0.4248 -0.0657
 6135SOL    HW218801   5.383   2.601   0.490  1.0297 -1.8449  0.6787
 6136SOL     OW18802   5.566   5.496   2.309  0.1877 -0.7701 -0.0400
 6136SOL    HW118803   5.640   5.556   2.297  0.4154 -0.6985  1.5412
 6136SOL    HW218804   5.489   5.550   2.292  0.4588 -0.6306 -0.8755
 6137SOL     OW18805   0.127   5.829   6.904 -0.7938  0.1624  0.0318
 6137SOL    HW118806   0.211   5.872   6.920 -0.8247  0.5224 -0.7230
 6137SOL    HW218807   0.135   5.795   6.815 -1.3563 -0.0202  0.0522
 6138SOL     OW18808   3.904   2.834   4.040  0.9747  0.4848 -0.1883
 6138SOL    HW118809   3.848   2.824   4.117  1.0079 -0.2095 -0.2485
 6138SOL    HW218810   3.842   2.841   3.967  0.9501 -1.0486 -0.3453
 6139SOL     OW18811   5.181   4.042   3.513  0.8880  0.3453  0.1929
 6139SOL    HW118812   5.275   4.025   3.523  0.6224 -1.2695  0.2982
 6139SOL    HW218813   5.154   4.075   3.599  0.9796 -1.2981  0.8959
 6140SOL     OW18814   2.850   3.133   1.354  0.1213  0.4985 -0.3873
 6140SOL    HW118815   2.894   3.060   1.398 -2.7739 -0.1016  1.7835
 6140SOL    HW218816   2.861   3.207   1.413  0.0349  0.9089 -0.8750
 6141SOL     OW18817   0.849   1.418   6.230 -0.1537  0.9069  0.4258
 6141SOL    HW118818   0.801   1.496   6.257 -0.3383  1.3110 -0.9746
 6141SOL    HW218819   0.925   1.415   6.288 -0.6521  1.5791  1.1287
 6142SOL     OW18820   2.210   2.988   0.037  0.7668 -0.0613  0.1822
 6142SOL    HW118821   2.157   2.931   0.094 -0.0090 -0.2223 -0.6827
 6142SOL    HW218822   2.179   3.076   0.058 -1.7752 -0.2804 -2.1343
 6143SOL     OW18823   1.765   5.609   0.796  0.8717 -0.0515 -0.2275
 6143SOL    HW118824   1.829   5.537   0.796  0.0633 -0.8529 -2.2419
 6143SOL    HW218825   1.725   5.605   0.709  0.0491  2.2076 -0.0137
 6144SOL     OW18826   0.956   5.928   1.220 -0.2260  0.2634  0.1159
 6144SOL    HW118827   0.983   5.851   1.270 -1.6652  1.3943  2.8726
 6144SOL    HW218828   0.864   5.941   1.243 -0.0926  2.6613 -0.3999
 6145SOL     OW18829   1.395   0.384   2.577 -0.2817  0.0026  0.0135
 6145SOL    HW118830   1.486   0.403   2.601  0.1179 -0.1646 -1.3101
 6145SOL    HW218831   1.392   0.395   2.482 -1.8708  0.8696  0.1312
 6146SOL     OW18832   4.283   6.474   4.815  0.2190  0.4966 -0.2416
 6146SOL    HW118833   4.256   6.488   4.906  0.6759 -1.7030  0.2851
 6146SOL    HW218834   4.378   6.463   4.819  0.2098  0.0983 -0.9506
 6147SOL     OW18835   5.928   6.377   5.572  0.2837  0.5359 -0.0043
 6147SOL    HW118836   6.004   6.368   5.515  0.2767 -1.3298  0.2375
 6147SOL    HW218837   5.947   6.455   5.624  1.2108  1.1123 -1.1471
 6148SOL     OW18838   4.418   0.120   6.447  0.5898 -0.4118 -0.1530
 6148SOL    HW118839   4.345   0.180   6.462  1.7907  1.0910 -0.0985
 6148SOL    HW218840   4.466   0.158   6.374  2.0178 -0.6907  0.6096
 6149SOL     OW18841   2.192   6.516   3.516 -0.0468  0.0885  0.2857
 6149SOL    HW118842   2.244   6.459   3.573  0.4703 -1.0031 -1.2322
 6149SOL    HW218843   2.138   6.456   3.464  0.0072  1.0079 -0.8662
 6150SOL     OW18844   3.909   0.619   5.833  0.3109  0.0466  0.1411
 6150SOL    HW118845   3.922   0.524   5.831 -2.4432 -0.4201 -2.1753
 6150SOL    HW218846   3.822   0.631   5.872 -0.7835  1.2785 -2.4011
 6151SOL     OW18847   4.262   4.653   6.315  0.0630 -0.5081  0.0577
 6151SOL    HW118848   4.302   4.677   6.399  2.6055  0.6053 -1.3605
 6151SOL    HW218849   4.321   4.588   6.278 -1.1110 -1.1012 -0.8282
 6152SOL     OW18850   2.997   2.786   2.650  0.3031 -0.2933 -0.3258
 6152SOL    HW118851   2.992   2.880   2.670  0.2015  0.1355 -2.2476
 6152SOL    HW218852   3.090   2.767   2.647  0.3319 -0.5727  1.3109
 6153SOL     OW18853   1.545   0.047   1.464  0.4153 -0.0971  0.5138
 6153SOL    HW118854   1.536  -0.044   1.435 -1.5513  0.0350  0.5743
 6153SOL    HW218855   1.507   0.048   1.551  0.8825  0.7003  0.7187
 6154SOL     OW18856   5.964   5.049   3.585  0.0328 -1.0690 -0.2372
 6154SOL    HW118857   5.937   5.070   3.674  0.4677  0.1939 -0.3840
 6154SOL    HW218858   6.060   5.058   3.585 -0.0526  0.0154 -1.0873
 6155SOL     OW18859   5.911   1.431   3.423  0.3330  0.5925 -0.1496
 6155SOL    HW118860   5.881   1.346   3.390 -0.6011  1.0399 -0.4899
 6155SOL    HW218861   6.000   1.414   3.455 -0.7189 -1.1230  2.1967
 6156SOL     OW18862   1.916   6.443   5.195 -0.1959 -0.1889 -0.2475
 6156SOL    HW118863   1.935   6.412   5.107  1.8232  1.2101 -0.3496
 6156SOL    HW218864   1.854   6.515   5.182 -0.8981 -0.8054 -0.3954
 6157SOL     OW18865   1.251   6.558   0.962 -0.3531 -1.0818  0.3451
 6157SOL    HW118866   1.223   6.528   0.875  0.4037  0.2903 -0.4042
 6157SOL    HW218867   1.337   6.598   0.946 -0.3904 -0.4496  1.6657
 6158SOL     OW18868   6.678   1.138   5.291 -0.0512  0.5454 -0.2178
 6158SOL    HW118869   6.617   1.064   5.290  0.2452  0.2779 -1.9173
 6158SOL    HW218870   6.746   1.114   5.228 -0.2114  2.4971 -1.2048
 6159SOL     OW18871   2.327   0.225   5.320  0.0113 -0.0819  0.3771
 6159SOL    HW118872   2.254   0.163   5.315  0.2013 -0.4771  2.0094
 6159SOL    HW218873   2.396   0.179   5.368  0.5740  0.9955  0.6574
 6160SOL     OW18874   0.471   5.577   0.174  0.0654 -0.6710 -0.6697
 6160SOL    HW118875   0.435   5.492   0.199 -0.2858 -0.9662 -2.0911
 6160SOL    HW218876   0.396   5.625   0.139  0.0982  0.5267  0.8167
 6161SOL     OW18877   5.965   4.817   1.383  0.2936 -1.5639 -0.0421
 6161SOL    HW118878   6.058   4.797   1.388  0.2722 -1.4307  3.6540
 6161SOL    HW218879   5.922   4.731   1.381  0.4290 -1.6255 -1.7590
 6162SOL     OW18880   2.929   0.084   3.914  0.4404  0.3709  0.4135
 6162SOL    HW118881   2.927   0.007   3.970  0.1395  0.2318  0.2173
 6162SOL    HW218882   3.012   0.078   3.867 -0.1780 -0.5897 -0.6292
 6163SOL     OW18883   4.981   1.429   0.871 -0.3212 -0.1844 -0.3382
 6163SOL    HW118884   5.062   1.384   0.846 -1.2050 -0.7816 -2.3335
 6163SOL    HW218885   4.945   1.461   0.788 -1.4549  1.2606  0.6600
 6164SOL     OW18886   2.883   5.433   3.722  0.0026 -0.1667 -0.1703
 6164SOL    HW118887   2.883   5.339   3.703 -1.2658 -0.4564  1.0573
 6164SOL    HW218888   2.858   5.474   3.639 -1.2236 -1.0676 -0.2862
 6165SOL     OW18889   5.232   5.747   1.516 -0.5479  0.3906  0.1696
 6165SOL    HW118890   5.281   5.666   1.526 -0.1844  0.2565 -2.0246
 6165SOL    HW218891   5.145   5.720   1.485 -0.3914  0.8103 -0.6856
 6166SOL     OW18892   2.330   5.105   5.347  0.3452 -0.2037  0.1500
 6166SOL    HW118893   2.272   5.125   5.419 -0.0932 -0.5810 -0.0951
 6166SOL    HW218894   2.320   5.011   5.332 -0.6798  0.0992 -1.3409
 6167SOL     OW18895   1.370   2.037   4.175 -0.3103  0.4932 -0.0636
 6167SOL    HW118896   1.314   1.961   4.157  0.1846 -0.3301  1.7155
 6167SOL    HW218897   1.353   2.059   4.266 -0.1756  2.3468 -0.4339
 6168SOL     OW18898   4.945   3.996   5.731 -0.3074 -0.0216 -0.4780
 6168SOL    HW118899   4.985   4.057   5.792 -3.3717  0.5328  1.2046
 6168SOL    HW218900   4.964   3.910   5.767 -2.5313  0.3028  1.8016
 6169SOL     OW18901   6.818   2.370   6.012  0.2985  0.8645  0.0979
 6169SOL    HW118902   6.892   2.406   6.060 -0.1578  1.2207  0.5452
 6169SOL    HW218903   6.856   2.300   5.958  1.2854  2.3372 -1.2003
 6170SOL     OW18904   5.592   5.044   2.543 -0.3958 -0.1475 -0.4343
 6170SOL    HW118905   5.662   5.105   2.568 -0.0540 -0.1877 -1.2711
 6170SOL    HW218906   5.636   4.959   2.537 -0.2926 -0.0035 -1.9558
 6171SOL     OW18907   0.215   2.949   0.978  0.2990  0.4900  0.6081
 6171SOL    HW118908   0.146   2.956   0.912  0.9225 -0.9967 -0.2816
 6171SOL    HW218909   0.248   3.038   0.989 -0.5868  0.9402 -0.2473
 6172SOL     OW18910   2.425   3.078   6.598 -0.0010  0.2906  0.0330
 6172SOL    HW118911   2.467   3.081   6.685 -0.9497  1.4035  0.4810
 6172SOL    HW218912   2.497   3.093   6.537  0.4484  1.1057  0.7303
 6173SOL     OW18913   4.771   4.696   0.639 -0.4131 -0.1069 -0.0149
 6173SOL    HW118914   4.772   4.600   0.632 -1.5237 -0.1559  0.2795
 6173SOL    HW218915   4.761   4.726   0.549  1.2159 -0.2032 -0.2648
 6174SOL     OW18916   3.329   6.091   2.716 -0.0752  0.2051  0.3495
 6174SOL    HW118917   3.307   6.117   2.627 -1.5454 -0.2516  0.5477
 6174SOL    HW218918   3.317   6.170   2.768 -2.5511 -0.2674  0.6328
 6175SOL     OW18919   6.946   4.356   6.705  0.1658 -0.1301 -0.1518
 6175SOL    HW118920   6.871   4.313   6.665  1.6388 -2.3340 -0.7031
 6175SOL    HW218921   6.923   4.449   6.705 -1.8271 -0.5564 -1.8322
 6176SOL     OW18922   0.502   2.943   1.194 -0.9769 -0.2974  0.5920
 6176SOL    HW118923   0.508   2.849   1.177 -0.2091 -0.2262  0.4151
 6176SOL    HW218924   0.535   2.953   1.284  0.0588 -0.0793  0.2063
 6177SOL     OW18925   2.691   2.838   0.135  0.4253 -0.0447 -0.5017
 6177SOL    HW118926   2.619   2.775   0.129 -0.4418  0.7464  0.9665
 6177SOL    HW218927   2.739   2.827   0.053  1.0809 -3.4978  0.1679
 6178SOL     OW18928   3.227   4.559   1.780 -0.2005 -0.3370  0.1530
 6178SOL    HW118929   3.227   4.585   1.688  1.7750 -2.4185 -0.5364
 6178SOL    HW218930   3.185   4.473   1.781  0.7742 -0.8306  1.0081
 6179SOL     OW18931   2.585   5.197   3.725  0.2883 -0.2304  0.0576
 6179SOL    HW118932   2.559   5.287   3.742 -0.8154 -0.4780 -0.2270
 6179SOL    HW218933   2.681   5.200   3.721  0.3905  0.5857  1.9251
 6180SOL     OW18934   5.276   5.087   0.742  0.1994  0.1572  0.3783
 6180SOL    HW118935   5.246   5.177   0.730 -1.1210 -0.3520 -0.4470
 6180SOL    HW218936   5.284   5.077   0.837 -4.7017 -0.2693  1.0409
 6181SOL     OW18937   0.723   2.943   1.007  0.1712  0.2979 -0.3393
 6181SOL    HW118938   0.646   2.999   1.002 -0.4106 -0.3654  0.7015
 6181SOL    HW218939   0.792   3.000   1.040  0.4665  1.1919 -2.3876
 6182SOL     OW18940   2.827   3.772   4.677  0.0070 -0.2515 -0.6480
 6182SOL    HW118941   2.897   3.807   4.623  0.2774 -0.9336 -0.7526
 6182SOL    HW218942   2.757   3.749   4.615 -1.0684  2.0455 -0.4088
 6183SOL     OW18943   2.898   3.668   0.747 -0.2603  0.1876  0.1079
 6183SOL    HW118944   2.807   3.696   0.748 -0.1618  0.6887 -1.4683
 6183SOL    HW218945   2.895   3.575   0.768 -1.0206  0.4180  1.0887
 6184SOL     OW18946   3.910   3.709   6.473 -0.4582 -0.1051  0.5010
 6184SOL    HW118947   3.979   3.644   6.491 -0.0780 -0.3556 -1.6576
 6184SOL    HW218948   3.843   3.660   6.425 -0.7734  0.8043 -0.0110
 6185SOL     OW18949   4.764   5.150   4.237 -0.3326 -0.2923  0.7692
 6185SOL    HW118950   4.676   5.111   4.239 -0.7404  0.6298  1.3104
 6185SOL    HW218951   4.784   5.168   4.329  0.2068 -0.0161  0.6009
 6186SOL     OW18952   0.635   0.764   2.603 -0.0675  0.0762  0.3389
 6186SOL    HW118953   0.546   0.775   2.570  0.4769 -1.0048 -1.6619
 6186SOL    HW218954   0.688   0.751   2.525  1.5652 -1.1744  1.5764
 6187SOL     OW18955   6.586   4.683   4.518 -0.2427 -0.4982  0.0636
 6187SOL    HW118956   6.643   4.688   4.442 -0.4237 -0.8525 -0.0960
 6187SOL    HW218957   6.518   4.620   4.494 -1.0253  0.3355  0.0440
 6188SOL     OW18958   6.519   2.729   3.523  0.4413 -0.5076 -0.7310
 6188SOL    HW118959   6.589   2.732   3.457  1.3637  0.7173  0.2511
 6188SOL    HW218960   6.523   2.815   3.566 -2.0795 -0.1722 -1.0215
 6189SOL     OW18961   5.366   5.539   1.625  0.1210  0.4157  0.2498
 6189SOL    HW118962   5.331   5.462   1.670 -1.4050  0.6670 -0.4527
 6189SOL    HW218963   5.448   5.558   1.670 -0.2333 -0.7094  1.4142
 6190SOL     OW18964   3.587   6.849   1.649 -0.7635  0.1445  0.2603
 6190SOL    HW118965   3.654   6.909   1.681 -0.1545 -0.7393  0.6806
 6190SOL    HW218966   3.507   6.876   1.694 -0.2583 -0.0483  1.2990
 6191SOL     OW18967   6.823   1.103   1.223  0.3685  0.4336  0.3088
 6191SOL    HW118968   6.756   1.170   1.211  0.5812  0.4730 -0.7718
 6191SOL    HW218969   6.905   1.151   1.220  0.4620  0.3352  1.2372
 6192SOL     OW18970   3.759   3.028   0.328  0.1204  0.1767  0.0933
 6192SOL    HW118971   3.762   2.948   0.380 -0.5370 -1.0777 -1.6975
 6192SOL    HW218972   3.667   3.040   0.307  0.1221  1.8378  0.9367
 6193SOL     OW18973   2.620   3.344   3.430  0.3449 -0.6443  0.3121
 6193SOL    HW118974   2.526   3.326   3.436  0.1740  0.6938  3.5458
 6193SOL    HW218975   2.639   3.402   3.504  3.3088  1.1877 -1.6530
 6194SOL     OW18976   2.632   2.125   4.648  0.4190 -0.1884  0.1861
 6194SOL    HW118977   2.609   2.158   4.734  0.3228 -0.3079  0.2066
 6194SOL    HW218978   2.576   2.173   4.587  1.2669  0.7100  0.0825
 6195SOL     OW18979   5.468   4.666   0.178 -0.0407  0.0380  0.2472
 6195SOL    HW118980   5.452   4.722   0.254  1.2908  1.0524 -0.1818
 6195SOL    HW218981   5.543   4.613   0.203 -0.8282 -1.0470  0.3594
 6196SOL     OW18982   1.466   6.862   0.735 -0.0544 -0.4250  0.6521
 6196SOL    HW118983   1.479   6.815   0.817 -0.9813  0.7863  1.5350
 6196SOL    HW218984   1.442   6.951   0.762  0.8922  0.3583 -0.9459
 6197SOL     OW18985   6.189   5.534   4.595  0.0830  0.0992 -0.0859
 6197SOL    HW118986   6.186   5.457   4.652  0.0338 -0.6964 -1.1305
 6197SOL    HW218987   6.113   5.525   4.538  0.3596  0.6670 -0.5541
 6198SOL     OW18988   2.434   2.221   5.547  0.6682  0.3252  0.4409
 6198SOL    HW118989   2.455   2.250   5.635  0.7650  0.4654  0.3718
 6198SOL    HW218990   2.352   2.265   5.526 -0.3965 -1.2146  1.2001
 6199SOL     OW18991   2.161   4.191   2.311  0.5955  0.0667  0.1765
 6199SOL    HW118992   2.219   4.131   2.263  0.1712 -0.3180  0.1434
 6199SOL    HW218993   2.105   4.229   2.243  1.2294  0.9214  0.1219
 6200SOL     OW18994   4.977   3.680   5.598  0.2176 -0.4520  0.6094
 6200SOL    HW118995   4.999   3.682   5.691 -0.7921  0.4583  0.8459
 6200SOL    HW218996   5.047   3.628   5.558 -0.0584 -2.0444  2.0625
 6201SOL     OW18997   3.717   5.146   0.805  0.2396  0.7485 -0.2718
 6201SOL    HW118998   3.735   5.082   0.736  0.7255  0.5085  0.0782
 6201SOL    HW218999   3.801   5.190   0.820 -0.0871  1.4845 -0.5159
 6202SOL     OW19000   6.750   5.288   6.368  0.1118 -0.1463  0.6236
 6202SOL    HW119001   6.661   5.269   6.396 -0.1600 -0.1260 -0.2081
 6202SOL    HW219002   6.755   5.384   6.365 -0.3627 -0.1534 -0.9346
 6203SOL     OW19003   1.389   2.189   0.100 -0.1146  0.3357 -0.0098
 6203SOL    HW119004   1.342   2.169   0.019  1.9273 -4.6857 -0.3357
 6203SOL    HW219005   1.331   2.158   0.169  0.1612 -0.0686  0.0443
 6204SOL     OW19006   0.274   0.065   2.359  0.0526  0.1243 -0.3407
 6204SOL    HW119007   0.281   0.158   2.379  2.8301 -0.0946  0.0557
 6204SOL    HW219008   0.344   0.023   2.408 -0.5698 -2.0923 -1.1671
 6205SOL     OW19009   6.848   2.551   0.896 -0.1587  0.0544  0.4049
 6205SOL    HW119010   6.755   2.562   0.875  0.4190  2.2107 -1.4432
 6205SOL    HW219011   6.864   2.616   0.965 -0.1323 -0.7729  1.1926
 6206SOL     OW19012   5.439   3.666   3.695 -0.0004  0.2297 -0.4686
 6206SOL    HW119013   5.474   3.578   3.705 -1.6269 -0.3223  0.9982
 6206SOL    HW219014   5.488   3.719   3.758  0.2911  0.1366 -0.6194
 6207SOL     OW19015   0.898   1.164   1.261 -0.0239 -0.2002 -0.1971
 6207SOL    HW119016   0.930   1.074   1.264  0.2609 -0.0866  0.3945
 6207SOL    HW219017   0.953   1.211   1.323 -0.1323  0.3972 -0.5410
 6208SOL     OW19018   4.754   1.857   1.658  0.3171  0.1435 -0.2890
 6208SOL    HW119019   4.745   1.762   1.651  1.7005  0.0613 -1.2176
 6208SOL    HW219020   4.668   1.890   1.632 -0.7953 -0.8786  1.8658
 6209SOL     OW19021   0.004   3.611   5.866  0.2617  0.2011  0.1058
 6209SOL    HW119022   0.004   3.521   5.832 -1.5475  0.2113 -0.0612
 6209SOL    HW219023  -0.026   3.602   5.957 -0.8551  0.6766 -0.1915
 6210SOL     OW19024   4.643   6.117   6.702  0.0820  0.3893 -0.1799
 6210SOL    HW119025   4.565   6.084   6.748  0.1682  0.2426 -0.1393
 6210SOL    HW219026   4.653   6.057   6.628  0.0491  0.5180 -0.2890
 6211SOL     OW19027   2.406   5.767   0.880  0.1044 -0.0218 -0.3891
 6211SOL    HW119028   2.403   5.809   0.794  1.2705  2.7950  0.8446
 6211SOL    HW219029   2.315   5.766   0.909 -0.5233 -2.3320 -2.1588
 6212SOL     OW19030   2.577   3.478   4.931 -0.0364  0.6782 -0.0249
 6212SOL    HW119031   2.549   3.565   4.904 -2.3020  0.2890  0.8621
 6212SOL    HW219032   2.532   3.419   4.870 -1.1588  0.0201  1.4005
 6213SOL     OW19033   3.514   3.137   0.799  0.3270 -0.1375 -0.0971
 6213SOL    HW119034   3.548   3.185   0.875 -0.9257  1.7338 -0.6282
 6213SOL    HW219035   3.449   3.077   0.836 -1.1103  1.5675  0.2782
 6214SOL     OW19036   6.338   3.066   3.376 -0.5548  0.2299 -0.0288
 6214SOL    HW119037   6.412   3.043   3.433 -1.1485  0.3594  0.8163
 6214SOL    HW219038   6.339   3.000   3.307 -1.3999 -1.5435  1.5796
 6215SOL     OW19039   1.837   6.738   5.187  0.0058 -0.6817  0.2744
 6215SOL    HW119040   1.929   6.720   5.167  0.4273  2.6232 -1.4980
 6215SOL    HW219041   1.840   6.779   5.273  0.6413  1.7318 -0.8101
 6216SOL     OW19042   2.815   4.446   6.058  0.7756  0.4301 -0.1854
 6216SOL    HW119043   2.878   4.465   6.127  0.7618  0.7526 -0.2596
 6216SOL    HW219044   2.841   4.360   6.024  1.0095  0.4409 -0.0335
 6217SOL     OW19045   4.514   6.379   0.512  0.2123  0.1040 -0.1359
 6217SOL    HW119046   4.521   6.475   0.519  1.4804 -0.0131  0.6193
 6217SOL    HW219047   4.422   6.363   0.493  0.0175  1.4905 -0.4931
 6218SOL     OW19048   2.343   6.108   3.688 -0.8459 -0.6382  0.5543
 6218SOL    HW119049   2.410   6.043   3.668 -1.0055 -1.1166  1.5130
 6218SOL    HW219050   2.260   6.061   3.680 -1.0457 -0.1809 -0.1330
 6219SOL     OW19051   5.135   2.353   4.293 -0.4681 -0.3399 -0.2949
 6219SOL    HW119052   5.118   2.404   4.372 -1.2018  1.5963 -1.6343
 6219SOL    HW219053   5.231   2.356   4.283 -0.4917  0.6204 -0.2549
 6220SOL     OW19054   0.875   2.700   1.885 -0.8690  0.0295  0.0385
 6220SOL    HW119055   0.933   2.632   1.918  2.1300  2.1727 -0.4268
 6220SOL    HW219056   0.888   2.700   1.791 -3.6158 -1.0202 -0.4468
 6221SOL     OW19057   6.298   4.934   0.336  0.0080 -0.2537  0.1359
 6221SOL    HW119058   6.270   4.911   0.424 -1.1542 -1.6206 -0.5457
 6221SOL    HW219059   6.219   4.972   0.295  0.5397  0.3898 -0.3122
 6222SOL     OW19060   6.894   1.651   1.595  0.1785  0.1352 -0.0499
 6222SOL    HW119061   6.914   1.559   1.579  4.0226  0.6147  1.1123
 6222SOL    HW219062   6.927   1.668   1.683 -1.6528  2.3683  0.3027
 6223SOL     OW19063   1.441   5.219   1.617 -0.1856 -0.2331 -0.2698
 6223SOL    HW119064   1.392   5.248   1.541 -1.9338 -1.7273  0.2128
 6223SOL    HW219065   1.375   5.201   1.683  1.3178  1.7356  1.9257
 6224SOL     OW19066   0.701   6.188   4.807  0.0817 -0.3276 -0.1646
 6224SOL    HW119067   0.760   6.263   4.810  0.4447 -0.6485  1.4212
 6224SOL    HW219068   0.743   6.127   4.747 -0.3461  0.7987 -1.6842
 6225SOL     OW19069   2.752   6.695   4.413 -0.0570  1.1340 -0.1351
 6225SOL    HW119070   2.832   6.741   4.437  0.2163  0.5617  0.0718
 6225SOL    HW219071   2.731   6.642   4.490 -0.5183  1.1165 -0.2689
 6226SOL     OW19072   2.732   5.047   1.815  0.1425  0.0909 -0.1414
 6226SOL    HW119073   2.684   5.086   1.887  0.0631  0.7004 -0.5207
 6226SOL    HW219074   2.753   5.120   1.757  0.5804 -0.3260 -0.5221
 6227SOL     OW19075   0.919   1.695   5.690 -0.1944  0.3337  0.2488
 6227SOL    HW119076   0.990   1.667   5.633 -0.0673  1.1547 -0.0124
 6227SOL    HW219077   0.884   1.614   5.727  1.0255 -0.0582  0.5671
 6228SOL     OW19078   3.348   5.435   3.253  0.2123 -0.0685  0.5397
 6228SOL    HW119079   3.294   5.356   3.245 -0.3377  0.4267 -0.8918
 6228SOL    HW219080   3.379   5.452   3.165  0.3011  1.3370  0.8241
 6229SOL     OW19081   4.194   3.188   0.218  0.0717  0.6104  0.0196
 6229SOL    HW119082   4.216   3.148   0.135 -0.2790  1.6431 -0.5993
 6229SOL    HW219083   4.125   3.251   0.196 -2.2989 -1.2577  1.5670
 6230SOL     OW19084   6.643   3.410   1.930  0.3693  0.3024  0.0525
 6230SOL    HW119085   6.688   3.364   1.859  0.1491 -1.0091  0.7339
 6230SOL    HW219086   6.693   3.389   2.008 -0.6169 -0.0585  0.6144
 6231SOL     OW19087   0.556   0.618   3.255  0.0295 -0.3165 -1.3373
 6231SOL    HW119088   0.602   0.549   3.207  3.0408  0.0410  0.8134
 6231SOL    HW219089   0.486   0.571   3.302  1.6671 -1.9020 -0.3394
 6232SOL     OW19090   1.242   3.439   0.023  0.3114 -0.0027  0.0512
 6232SOL    HW119091   1.310   3.490  -0.022 -1.6994  1.3413 -1.6319
 6232SOL    HW219092   1.171   3.433  -0.041 -2.6188  1.7324  2.8663
 6233SOL     OW19093   2.085   0.849   3.814 -0.1719 -0.3611 -0.0732
 6233SOL    HW119094   2.032   0.880   3.887  2.0558 -0.9400  1.9305
 6233SOL    HW219095   2.056   0.900   3.739 -1.2564  1.6575  1.6241
 6234SOL     OW19096   1.558   0.437   3.587  0.3720 -0.8326  0.3629
 6234SOL    HW119097   1.552   0.436   3.492 -1.2902  0.3643  0.4173
 6234SOL    HW219098   1.599   0.353   3.610  1.3396 -0.8839 -1.4061
 6235SOL     OW19099   5.349   6.523   2.528 -0.0632 -0.3620  0.2312
 6235SOL    HW119100   5.400   6.501   2.450 -0.6088 -0.5360 -0.0846
 6235SOL    HW219101   5.405   6.497   2.601  0.4895 -0.1242 -0.0965
 6236SOL     OW19102   6.034   3.966   1.623  0.1835 -0.0494  0.1002
 6236SOL    HW119103   6.008   3.965   1.715  0.4898  0.3076  0.1954
 6236SOL    HW219104   6.077   3.882   1.609  2.7303  0.9843  1.0626
 6237SOL     OW19105   2.043   0.414   4.606  0.0601 -0.2411 -0.3771
 6237SOL    HW119106   2.121   0.469   4.612 -0.0638 -0.1741  1.0750
 6237SOL    HW219107   1.976   0.471   4.570  0.0007  0.5350  0.8735
 6238SOL     OW19108   2.272   1.700   6.291  0.0785 -0.0246  0.6845
 6238SOL    HW119109   2.200   1.647   6.258  0.8054 -1.2544  0.9903
 6238SOL    HW219110   2.295   1.758   6.219 -0.1583 -0.7539  0.0142
 6239SOL     OW19111   5.894   6.387   6.789  1.0985 -0.2011 -0.5598
 6239SOL    HW119112   5.883   6.464   6.845  4.3765 -2.0357  3.0901
 6239SOL    HW219113   5.828   6.325   6.821  0.0515  0.2069 -1.8595
 6240SOL     OW19114   4.143   4.261   5.226  0.3137  0.5898  0.2178
 6240SOL    HW119115   4.076   4.255   5.294  0.7329 -2.1772  0.5222
 6240SOL    HW219116   4.210   4.319   5.262 -0.5072  0.9529  1.1975
 6241SOL     OW19117   0.712   0.011   3.929  0.0308 -0.2760 -0.2840
 6241SOL    HW119118   0.664  -0.016   3.851  3.1307 -5.8097 -0.8005
 6241SOL    HW219119   0.792   0.051   3.895  1.0912 -2.1086 -0.0737
 6242SOL     OW19120   2.364   5.489   0.410  0.3301 -0.1098 -0.6530
 6242SOL    HW119121   2.340   5.569   0.365 -1.1536 -0.2827 -0.2259
 6242SOL    HW219122   2.321   5.419   0.360  0.0373 -0.4469  0.0522
 6243SOL     OW19123   2.082   4.950   3.517  0.2546 -0.2977  0.4748
 6243SOL    HW119124   2.136   4.872   3.504  1.0274  0.4501 -0.9600
 6243SOL    HW219125   1.993   4.916   3.525  0.4535 -1.2718 -1.1240
 6244SOL     OW19126   4.342   3.927   6.727 -0.2629  0.3830 -0.5025
 6244SOL    HW119127   4.295   3.908   6.646 -0.1307 -0.3083 -0.4309
 6244SOL    HW219128   4.422   3.873   6.721 -0.5253 -0.1267  0.3334
 6245SOL     OW19129   6.163   6.514   6.708  0.3067 -0.4038  0.4953
 6245SOL    HW119130   6.109   6.462   6.767  0.5797 -0.0584  1.0600
 6245SOL    HW219131   6.136   6.604   6.724  0.8331 -0.2551  0.5624
 6246SOL     OW19132   4.567   0.574   3.933 -0.7478 -0.1829 -0.1790
 6246SOL    HW119133   4.630   0.560   4.003  0.1930 -0.6479 -1.0958
 6246SOL    HW219134   4.612   0.547   3.853 -2.5876 -1.9314 -0.7120
 6247SOL     OW19135   0.651   2.194   0.617 -0.4787 -0.3244 -0.8014
 6247SOL    HW119136   0.574   2.249   0.632  0.7897  1.1667  0.5859
 6247SOL    HW219137   0.649   2.130   0.689 -0.0150  0.2253 -0.2882
 6248SOL     OW19138   4.090   6.535   1.772 -0.0419  0.7078 -0.2707
 6248SOL    HW119139   4.177   6.571   1.794 -0.9514  2.7584  0.2434
 6248SOL    HW219140   4.108   6.468   1.707  1.9022  1.5607 -0.6972
 6249SOL     OW19141   1.337   6.643   5.976  0.3340 -0.1144  0.0149
 6249SOL    HW119142   1.342   6.708   5.906  0.2732  0.4186  0.4967
 6249SOL    HW219143   1.346   6.559   5.932  0.2821  0.2169 -0.6316
 6250SOL     OW19144   6.023   4.052   4.077 -0.8484 -0.3851 -0.5914
 6250SOL    HW119145   6.010   4.123   4.014 -1.4185 -0.2438 -0.3203
 6250SOL    HW219146   6.038   4.096   4.161  0.5309 -0.5569 -0.7136
 6251SOL     OW19147   3.425   2.776   2.833 -0.1624  0.6606  0.0833
 6251SOL    HW119148   3.405   2.753   2.742  1.5338 -0.9523  0.0579
 6251SOL    HW219149   3.507   2.730   2.851 -1.4004 -0.6170  3.0327
 6252SOL     OW19150   1.213   3.218   4.064 -0.1806 -0.7112  0.0781
 6252SOL    HW119151   1.232   3.297   4.014  1.2336 -1.0605  0.0344
 6252SOL    HW219152   1.140   3.243   4.121 -2.4340 -0.5328 -2.6688
 6253SOL     OW19153   2.225   5.115   0.792 -0.4616  0.1340 -0.1617
 6253SOL    HW119154   2.234   5.188   0.853 -0.1816 -1.2515  1.5379
 6253SOL    HW219155   2.309   5.112   0.745 -0.5256  0.9684 -0.3331
 6254SOL     OW19156   1.588   5.949   6.832  0.2969 -0.4355  0.5092
 6254SOL    HW119157   1.674   5.967   6.869  0.1489  0.9207  0.2479
 6254SOL    HW219158   1.575   5.855   6.846  0.9745 -0.3018  2.3075
 6255SOL     OW19159   6.054   5.636   0.663 -0.2693 -0.3582  0.2627
 6255SOL    HW119160   6.066   5.583   0.584  2.0833  0.0127  0.2778
 6255SOL    HW219161   6.140   5.633   0.707 -0.0389  3.2197  0.3710
 6256SOL     OW19162   5.919   4.056   0.099  0.5966 -0.3225  0.0290
 6256SOL    HW119163   5.965   4.137   0.123 -0.0445 -0.1661  0.7573
 6256SOL    HW219164   5.826   4.079   0.103  0.4222 -0.9917 -0.1307
 6257SOL     OW19165   4.325   2.239   2.099  0.0910 -0.0670 -0.3731
 6257SOL    HW119166   4.345   2.240   2.193  0.9604 -1.5719 -0.5123
 6257SOL    HW219167   4.363   2.320   2.066  0.1082  0.2977  0.5147
 6258SOL     OW19168   1.768   2.944   4.391 -0.0586 -0.1920  0.6656
 6258SOL    HW119169   1.823   2.960   4.315 -1.0117 -0.3285 -0.0707
 6258SOL    HW219170   1.825   2.961   4.466  0.9169 -0.1329 -0.0699
 6259SOL     OW19171   0.591   2.573   4.028 -0.8057  0.0038 -0.2128
 6259SOL    HW119172   0.629   2.545   4.112 -0.1063 -1.5432 -1.0007
 6259SOL    HW219173   0.555   2.660   4.046 -0.0957 -0.0119  1.5194
 6260SOL     OW19174   5.599   0.350   0.622  0.0182 -0.3207 -0.2696
 6260SOL    HW119175   5.592   0.266   0.666 -0.1823 -0.5242 -0.6864
 6260SOL    HW219176   5.510   0.385   0.620  0.1785  0.1271  0.3407
 6261SOL     OW19177   5.391   5.876   6.137  0.0118 -0.4831  0.2131
 6261SOL    HW119178   5.375   5.945   6.073  0.9679 -2.0489 -1.8427
 6261SOL    HW219179   5.328   5.807   6.114  0.6521 -1.2352  0.6780
 6262SOL     OW19180   6.892   0.904   3.776 -0.1273 -0.9773  0.1376
 6262SOL    HW119181   6.895   0.965   3.850 -3.2443  0.3215 -0.6203
 6262SOL    HW219182   6.975   0.857   3.780  1.6996  2.0309  1.8840
 6263SOL     OW19183   2.520   2.581   6.071  0.0886 -0.5355 -0.1678
 6263SOL    HW119184   2.564   2.526   6.136  0.2812 -0.6399 -0.3834
 6263SOL    HW219185   2.585   2.648   6.049  0.2045 -0.7824 -0.6028
 6264SOL     OW19186   2.975   3.439   6.017  0.6667  0.0335 -0.1522
 6264SOL    HW119187   2.929   3.472   6.094  1.5403 -1.9219  1.2910
 6264SOL    HW219188   2.948   3.348   6.009  1.3077 -0.0617 -1.6224
 6265SOL     OW19189   3.989   5.969   5.163  0.3695 -0.3826 -0.3370
 6265SOL    HW119190   3.972   5.945   5.072  1.0083  0.5954 -0.7255
 6265SOL    HW219191   3.954   5.895   5.214 -1.0182 -0.4348 -1.2974
 6266SOL     OW19192   0.018   4.959   5.286 -0.3719 -0.4763 -0.2424
 6266SOL    HW119193   0.066   4.887   5.326 -0.1116  0.1650  0.6158
 6266SOL    HW219194  -0.064   4.963   5.335 -0.3653 -0.1558 -0.2554
 6267SOL     OW19195   2.113   4.564   6.598  0.3491  0.7295  0.1697
 6267SOL    HW119196   2.109   4.479   6.555 -2.1043  0.3573  0.9706
 6267SOL    HW219197   2.197   4.564   6.644  0.4600 -1.1956  0.0370
 6268SOL     OW19198   1.815   1.662   4.630 -0.5635 -0.4550 -0.2323
 6268SOL    HW119199   1.740   1.629   4.580 -0.8328 -0.6403  0.2830
 6268SOL    HW219200   1.878   1.589   4.630  0.4610  0.3465 -2.2925
 6269SOL     OW19201   2.489   4.851   1.125 -0.3370  0.7187  0.3181
 6269SOL    HW119202   2.577   4.866   1.160  0.3075  1.0704 -1.3739
 6269SOL    HW219203   2.430   4.876   1.197  0.9262  0.6871  1.3994
 6270SOL     OW19204   1.670   4.020   3.781 -0.0908  0.0479  0.8828
 6270SOL    HW119205   1.743   4.063   3.825 -0.2181  1.5606 -0.2660
 6270SOL    HW219206   1.643   4.084   3.714 -1.6518 -1.0019  0.4739
 6271SOL     OW19207   2.030   3.567   5.238 -0.5236  0.3443 -0.3505
 6271SOL    HW119208   2.041   3.658   5.268 -0.7246  1.4086 -3.1706
 6271SOL    HW219209   2.116   3.543   5.204 -0.4646 -0.5601  0.4149
 6272SOL     OW19210   0.531   1.802   4.074  0.2217 -0.2359  0.6480
 6272SOL    HW119211   0.618   1.771   4.100  1.1672  2.2624  0.8484
 6272SOL    HW219212   0.498   1.846   4.153 -0.2910  0.6596 -0.0538
 6273SOL     OW19213   5.664   3.975   4.842  0.3992  0.2897 -0.2666
 6273SOL    HW119214   5.675   3.882   4.820 -0.1664 -0.2708  1.6157
 6273SOL    HW219215   5.736   3.994   4.902 -0.2830  0.6818  0.4420
 6274SOL     OW19216   0.291   0.624   4.317  0.3792  0.3765  0.5912
 6274SOL    HW119217   0.314   0.618   4.224  1.6075  1.3496  0.8058
 6274SOL    HW219218   0.341   0.554   4.358  0.4323  0.4312  0.6198
 6275SOL     OW19219   6.362   4.592   1.834  0.2454 -0.2041  0.2597
 6275SOL    HW119220   6.267   4.601   1.844 -0.1507 -2.4632 -0.8797
 6275SOL    HW219221   6.376   4.578   1.740  1.8451  1.1559  0.2485
 6276SOL     OW19222   4.835   5.396   3.322  0.1101 -0.0506  0.7746
 6276SOL    HW119223   4.902   5.460   3.347 -1.9231  2.7656 -0.4491
 6276SOL    HW219224   4.793   5.371   3.404  1.0738 -0.0164  1.2957
 6277SOL     OW19225   0.557   6.405   0.214 -0.6185  0.4673  0.1999
 6277SOL    HW119226   0.579   6.477   0.154  2.5328  0.3435  1.0177
 6277SOL    HW219227   0.464   6.389   0.199 -0.8988  3.1298 -1.7021
 6278SOL     OW19228   4.872   2.549   0.935 -0.0111  0.3414  0.1322
 6278SOL    HW119229   4.822   2.468   0.925 -0.5239  0.4408  1.6722
 6278SOL    HW219230   4.823   2.614   0.884 -1.1694  0.3072  1.1614
 6279SOL     OW19231   6.816   3.290   4.747  0.4734  0.2023 -0.4863
 6279SOL    HW119232   6.807   3.272   4.653  2.6169  0.9101 -0.8954
 6279SOL    HW219233   6.897   3.341   4.754  0.0098  0.7588  1.6950
 6280SOL     OW19234   5.574   2.300   5.862 -0.5993 -0.7333  0.0536
 6280SOL    HW119235   5.526   2.259   5.789  1.5256  0.8366 -2.4139
 6280SOL    HW219236   5.640   2.235   5.886  1.1583  0.0920 -2.1570
 6281SOL     OW19237   4.641   3.910   2.518  0.1772  0.6007  0.1521
 6281SOL    HW119238   4.594   3.946   2.594  0.7389  1.0371  0.3072
 6281SOL    HW219239   4.690   3.985   2.484  1.3073  0.0067  0.4240
 6282SOL     OW19240   6.042   6.269   3.126 -0.6094  0.3272  0.2140
 6282SOL    HW119241   5.955   6.255   3.087  0.3555  0.4812 -2.1722
 6282SOL    HW219242   6.049   6.364   3.136 -0.2362  0.4202 -0.8455
 6283SOL     OW19243   2.818   3.549   1.792 -0.0675  0.0582 -0.6947
 6283SOL    HW119244   2.860   3.464   1.774  1.2258  0.2848  1.0092
 6283SOL    HW219245   2.868   3.612   1.739  0.1758 -0.0003 -0.5367
 6284SOL     OW19246   4.190   5.677   3.394 -0.4339 -0.1427  0.1636
 6284SOL    HW119247   4.110   5.717   3.360 -0.5820  0.1391  0.8109
 6284SOL    HW219248   4.226   5.627   3.321 -0.5565  0.7131 -0.4876
 6285SOL     OW19249   6.914   2.147   6.617 -0.0024 -0.4108 -0.3817
 6285SOL    HW119250   6.839   2.109   6.572 -1.6887  0.3983  1.5496
 6285SOL    HW219251   6.943   2.078   6.677 -0.7732  0.0696  0.5713
 6286SOL     OW19252   0.781   0.513   4.754  0.3696  0.3949 -0.1257
 6286SOL    HW119253   0.708   0.533   4.811  0.0882  0.3578 -0.4727
 6286SOL    HW219254   0.772   0.419   4.736  1.0682  0.1705  0.6296
 6287SOL     OW19255   2.093   0.944   0.814  0.4754 -0.1181 -0.6689
 6287SOL    HW119256   2.107   0.853   0.788  0.8288  0.0192 -0.9725
 6287SOL    HW219257   2.087   0.992   0.732 -0.7108  0.0003 -0.5251
 6288SOL     OW19258   4.156   2.537   0.303  0.3221 -0.4294 -0.2431
 6288SOL    HW119259   4.077   2.485   0.319  1.0760 -1.0256  1.7494
 6288SOL    HW219260   4.217   2.476   0.261  0.5958 -0.6971  0.5259
 6289SOL     OW19261   6.239   5.767   0.331  0.2090 -0.2660  0.1343
 6289SOL    HW119262   6.182   5.704   0.288 -0.1461 -0.3436  0.7090
 6289SOL    HW219263   6.207   5.772   0.421  0.9746 -0.1485  0.4124
 6290SOL     OW19264   6.847   0.519   3.704  0.0760  0.0731 -0.0405
 6290SOL    HW119265   6.850   0.441   3.760 -0.6164  0.4448  0.5265
 6290SOL    HW219266   6.787   0.495   3.633  0.7891 -0.3218 -0.5255
 6291SOL     OW19267   0.215   2.103   6.479  0.8391 -0.0636  0.1571
 6291SOL    HW119268   0.201   2.015   6.513 -0.9676  0.2926  0.4396
 6291SOL    HW219269   0.149   2.157   6.523  2.2326  1.5501  0.3869
 6292SOL     OW19270   3.355   5.373   4.749 -0.4788 -0.5269 -0.1078
 6292SOL    HW119271   3.277   5.419   4.717 -0.9234 -0.7743  0.6155
 6292SOL    HW219272   3.365   5.298   4.690 -1.0899 -0.7814  0.1075
 6293SOL     OW19273   6.054   3.006   1.522  0.3433 -0.7517 -0.0510
 6293SOL    HW119274   6.053   2.917   1.486  0.0554 -1.0113  0.5753
 6293SOL    HW219275   5.962   3.031   1.526  0.2773 -1.1176  1.3998
 6294SOL     OW19276   4.800   6.063   1.781 -0.9148 -0.1861 -0.3500
 6294SOL    HW119277   4.741   6.122   1.733  0.1558  0.7757 -0.5232
 6294SOL    HW219278   4.874   6.118   1.806  0.8837 -1.7963 -1.8567
 6295SOL     OW19279   6.713   6.830   1.220 -0.4921 -0.0337 -0.0456
 6295SOL    HW119280   6.696   6.905   1.163 -0.9496 -0.2888 -0.2541
 6295SOL    HW219281   6.755   6.868   1.297 -0.8763  0.4610 -0.0718
 6296SOL     OW19282   6.849   2.470   0.136  0.0019  0.6192 -0.3450
 6296SOL    HW119283   6.943   2.476   0.118 -0.0517  0.6174 -0.6327
 6296SOL    HW219284   6.844   2.445   0.228  0.2652  2.0722  0.0785
 6297SOL     OW19285   6.925   5.253   3.242  0.1214  0.4915  0.1062
 6297SOL    HW119286   6.868   5.209   3.306  0.5977  1.7736  1.4778
 6297SOL    HW219287   7.010   5.212   3.253 -0.2467 -0.7077 -1.2130
 6298SOL     OW19288   0.556   4.477   0.311 -0.2858 -0.0998 -0.0138
 6298SOL    HW119289   0.583   4.452   0.223  0.2263  0.1697  0.0678
 6298SOL    HW219290   0.582   4.568   0.320  0.2401 -0.3059  0.6489
 6299SOL     OW19291   0.544   0.624   2.823 -0.1172 -0.2170 -0.0289
 6299SOL    HW119292   0.492   0.546   2.805 -1.2152  0.6220 -0.6704
 6299SOL    HW219293   0.576   0.652   2.737 -0.0081  0.2191  0.1488
 6300SOL     OW19294   6.272   4.803   3.476 -0.4432  0.0326  0.0590
 6300SOL    HW119295   6.242   4.868   3.412  1.1166  0.7474 -0.0072
 6300SOL    HW219296   6.250   4.841   3.561  0.4665  0.7000  0.0206
 6301SOL     OW19297   6.576   1.299   2.338  0.4130 -0.4386  0.0713
 6301SOL    HW119298   6.506   1.331   2.282  0.2428  1.1064  1.1206
 6301SOL    HW219299   6.602   1.215   2.298 -1.9869 -1.0528 -0.3302
 6302SOL     OW19300   6.414   0.027   2.534  0.1096  0.6251  0.1042
 6302SOL    HW119301   6.437  -0.036   2.602  1.7255 -1.8521 -2.5266
 6302SOL    HW219302   6.324   0.005   2.510 -0.5044  1.5751  1.3963
 6303SOL     OW19303   6.846   4.929   4.755  0.5750  0.5940 -0.6865
 6303SOL    HW119304   6.897   4.894   4.828  0.1575  1.5354  0.0747
 6303SOL    HW219305   6.756   4.900   4.773  0.1893  2.1199  0.0487
 6304SOL     OW19306   6.596   3.093   0.837  0.4984 -0.0435 -0.0122
 6304SOL    HW119307   6.559   3.158   0.897 -1.2788  0.1069 -1.1984
 6304SOL    HW219308   6.531   3.022   0.835  1.9398 -1.4419  0.4941
 6305SOL     OW19309   6.320   1.109   3.995  0.4670 -0.2078  0.2581
 6305SOL    HW119310   6.295   1.131   4.084  0.3681  1.6914 -0.1820
 6305SOL    HW219311   6.236   1.098   3.949  0.5177 -1.2154  0.3831
 6306SOL     OW19312   4.526   6.846   2.040 -0.3450 -0.3069  0.4684
 6306SOL    HW119313   4.491   6.882   2.121  0.5348  1.9447 -0.0579
 6306SOL    HW219314   4.516   6.751   2.049  0.9433 -0.2777  3.8017
 6307SOL     OW19315   4.681   6.300   4.020  0.6357 -0.2410  0.4643
 6307SOL    HW119316   4.703   6.295   3.927  1.1934 -0.4556  0.6030
 6307SOL    HW219317   4.705   6.214   4.055 -2.2676 -1.2469  0.2589
 6308SOL     OW19318   4.207   0.262   6.540 -0.2899  0.3142 -0.2820
 6308SOL    HW119319   4.140   0.245   6.474  0.8103 -1.7205 -0.9554
 6308SOL    HW219320   4.185   0.205   6.613  0.8991 -0.7294 -0.6947
 6309SOL     OW19321   5.615   2.914   1.920  0.2708  0.8331 -0.0846
 6309SOL    HW119322   5.555   2.841   1.936  1.1035 -0.0023 -0.6183
 6309SOL    HW219323   5.570   2.969   1.856  0.2600 -0.0391 -0.8498
 6310SOL     OW19324   1.770   0.977   5.540  0.4478  0.1139 -0.3180
 6310SOL    HW119325   1.786   0.894   5.495  1.9869  0.0461  0.3088
 6310SOL    HW219326   1.817   1.043   5.489  2.6888 -0.0407  1.3847
 6311SOL     OW19327   4.449   6.289   2.009 -0.5626 -0.4996  0.0616
 6311SOL    HW119328   4.446   6.194   1.996  0.8835 -0.6494  0.5770
 6311SOL    HW219329   4.442   6.301   2.103 -0.0092 -0.1657  0.0688
 6312SOL     OW19330   4.106   2.889   5.923  0.4229 -0.1750  0.3280
 6312SOL    HW119331   4.197   2.887   5.891  0.1671  0.8740 -0.5472
 6312SOL    HW219332   4.088   2.982   5.936 -0.6170 -0.3560  0.2275
 6313SOL     OW19333   0.209   4.775   0.600  0.1010 -0.9395  0.0773
 6313SOL    HW119334   0.229   4.816   0.684  0.2570  0.7237 -0.7303
 6313SOL    HW219335   0.114   4.771   0.597 -0.0503  1.6274 -0.8003
 6314SOL     OW19336   3.841   1.692   0.708  0.3816 -0.5285  0.6832
 6314SOL    HW119337   3.771   1.750   0.737 -0.8954 -1.7038  0.0445
 6314SOL    HW219338   3.915   1.714   0.764 -0.8574 -0.0948  2.2090
 6315SOL     OW19339   1.130   6.400   1.842 -0.0075 -0.2618  0.6374
 6315SOL    HW119340   1.216   6.375   1.810 -0.0326 -0.2855  0.5880
 6315SOL    HW219341   1.069   6.371   1.774 -0.1970 -1.5922  1.3456
 6316SOL     OW19342   3.048   5.930   0.813 -0.5349  0.0414  0.1475
 6316SOL    HW119343   2.978   5.948   0.876 -0.0940  1.5512  0.2378
 6316SOL    HW219344   3.082   6.016   0.790  0.7635 -0.6263 -0.5092
 6317SOL     OW19345   2.110   0.634   0.513 -0.0722 -0.3872 -0.6827
 6317SOL    HW119346   2.152   0.681   0.441 -0.1747 -0.8584 -1.0575
 6317SOL    HW219347   2.168   0.649   0.588  0.0028  0.1562 -0.8437
 6318SOL     OW19348   0.414   3.036   3.164  0.1938 -0.1876 -0.2509
 6318SOL    HW119349   0.374   3.103   3.108 -0.7501  0.8839  1.6037
 6318SOL    HW219350   0.507   3.038   3.141 -0.1971  0.0335 -1.9219
 6319SOL     OW19351   1.426   3.482   5.335 -0.0363 -0.2981 -0.2152
 6319SOL    HW119352   1.462   3.396   5.359  0.6282  0.2106  0.6773
 6319SOL    HW219353   1.450   3.493   5.243  2.6346  0.2547  0.4704
 6320SOL     OW19354   1.233   5.759   4.192 -0.3515  0.4516 -0.2002
 6320SOL    HW119355   1.190   5.690   4.244 -0.6891  0.4942 -0.4236
 6320SOL    HW219356   1.275   5.815   4.258 -0.5137  0.3271  0.0114
 6321SOL     OW19357   2.764   6.840   1.166  0.0908  0.0423  0.1917
 6321SOL    HW119358   2.699   6.908   1.152 -0.3806 -0.1232  1.4614
 6321SOL    HW219359   2.734   6.767   1.112  1.1449  1.1204 -1.9827
 6322SOL     OW19360   3.491   4.917   6.308  0.4944  0.2127  0.0702
 6322SOL    HW119361   3.556   4.851   6.285 -0.8036 -0.1907 -2.8724
 6322SOL    HW219362   3.417   4.867   6.341  0.3371  0.3703 -0.0444
 6323SOL     OW19363   0.076   5.162   3.706  0.0706 -0.6951  0.0245
 6323SOL    HW119364   0.082   5.066   3.710  0.1126 -0.7087 -0.2810
 6323SOL    HW219365   0.161   5.193   3.739 -0.4963 -0.7154  1.5691
 6324SOL     OW19366   4.069   5.077   0.318 -0.0136 -0.4564 -0.5667
 6324SOL    HW119367   4.086   5.166   0.286  0.3235  0.3611  1.7131
 6324SOL    HW219368   3.979   5.059   0.292 -0.6350  1.2039  0.2768
 6325SOL     OW19369   5.300   5.613   2.967 -0.4058  0.3560  0.2067
 6325SOL    HW119370   5.323   5.524   2.992 -1.4524 -0.0754 -0.2901
 6325SOL    HW219371   5.295   5.610   2.871 -0.7764  0.8514  0.2040
 6326SOL     OW19372   4.178   0.814   6.566  0.2452 -0.2189  0.1813
 6326SOL    HW119373   4.101   0.797   6.620 -0.9475 -1.6230 -1.8437
 6326SOL    HW219374   4.230   0.734   6.572  0.8137  0.1524  0.3372
 6327SOL     OW19375   2.261   5.805   3.964 -0.1599 -0.4164 -0.3518
 6327SOL    HW119376   2.280   5.858   4.042 -0.7663 -1.5882  0.6177
 6327SOL    HW219377   2.193   5.854   3.919  1.0239  0.8783 -0.8044
 6328SOL     OW19378   2.808   4.188   0.230 -0.4139  0.0383 -0.0348
 6328SOL    HW119379   2.874   4.164   0.296 -0.6105  0.3004  0.2605
 6328SOL    HW219380   2.794   4.108   0.180  0.0890 -0.0352 -0.0664
 6329SOL     OW19381   6.486   3.917   2.383 -0.3501 -0.3938  0.2366
 6329SOL    HW119382   6.448   3.906   2.296 -0.6858  2.2290 -0.0367
 6329SOL    HW219383   6.443   3.851   2.436  0.2466 -2.4216 -1.6555
 6330SOL     OW19384   0.078   4.197   1.010  0.3205 -0.5136  0.3637
 6330SOL    HW119385  -0.002   4.146   1.022 -0.6649  1.0190  0.6139
 6330SOL    HW219386   0.068   4.271   1.070  0.9236  0.8662 -1.1882
 6331SOL     OW19387   5.511   6.269   5.349  0.3196  0.1491 -0.1633
 6331SOL    HW119388   5.466   6.351   5.371 -1.0289 -0.7214  0.4469
 6331SOL    HW219389   5.590   6.270   5.403 -0.4044  0.4127  0.9330
 6332SOL     OW19390   4.347   0.357   3.702 -0.6914 -0.1577  0.6405
 6332SOL    HW119391   4.319   0.356   3.611 -0.3398 -0.4981  0.5309
 6332SOL    HW219392   4.405   0.281   3.710  1.3068  1.2784  0.4955
 6333SOL     OW19393   0.832   6.530   4.393 -0.2521  0.0640  0.2694
 6333SOL    HW119394   0.869   6.460   4.447 -1.0982 -0.1881  0.5412
 6333SOL    HW219395   0.829   6.606   4.451 -1.3935 -0.2727  0.6730
 6334SOL     OW19396   1.597   4.254   5.288 -0.0476  0.7160 -0.6010
 6334SOL    HW119397   1.516   4.218   5.250  0.2990 -0.0983 -0.5891
 6334SOL    HW219398   1.630   4.185   5.345  0.7784  0.9506 -0.7783
 6335SOL     OW19399   3.540   6.842   4.320  0.1504 -0.0198 -0.1118
 6335SOL    HW119400   3.601   6.916   4.313  0.1940 -0.0971 -0.5678
 6335SOL    HW219401   3.520   6.837   4.414 -2.0160  2.3396 -0.3181
 6336SOL     OW19402   4.313   3.043   1.577 -0.3409 -0.4227  0.1117
 6336SOL    HW119403   4.315   2.954   1.611 -1.2076  0.2195  1.9903
 6336SOL    HW219404   4.232   3.048   1.526  0.4628 -1.1070 -1.2791
 6337SOL     OW19405   1.645   3.628   0.808 -0.0520  0.1828  0.0058
 6337SOL    HW119406   1.701   3.591   0.876 -1.3446 -1.7780  0.0694
 6337SOL    HW219407   1.688   3.711   0.785  1.3360  0.0894  1.9769
 6338SOL     OW19408   4.937   0.320   4.466 -0.4364  0.2665 -0.0580
 6338SOL    HW119409   4.931   0.416   4.462 -1.0554  0.3429  1.8825
 6338SOL    HW219410   4.872   0.294   4.531 -1.0844 -1.5955 -1.3597
 6339SOL     OW19411   0.171   3.494   0.116  0.2014  0.2652 -0.4264
 6339SOL    HW119412   0.120   3.431   0.167  0.4888 -0.9576 -1.5851
 6339SOL    HW219413   0.107   3.537   0.060  0.2226 -0.1309 -0.7551
 6340SOL     OW19414   1.890   4.096   5.845 -0.2042 -0.0517  0.4251
 6340SOL    HW119415   1.970   4.065   5.803 -0.4147 -1.3012  0.8916
 6340SOL    HW219416   1.819   4.067   5.787 -0.3266  1.1256 -0.0340
 6341SOL     OW19417   5.536   6.340   3.818  0.2608 -0.1656 -0.1303
 6341SOL    HW119418   5.537   6.360   3.912 -0.9987 -0.4310 -0.0442
 6341SOL    HW219419   5.443   6.335   3.795  0.5112  1.3659 -1.7090
 6342SOL     OW19420   0.197   0.732   6.852  0.5788 -0.1601  0.0197
 6342SOL    HW119421   0.270   0.670   6.843  1.0153  0.1553  1.1829
 6342SOL    HW219422   0.181   0.736   6.947 -1.7743 -1.1682 -0.2532
 6343SOL     OW19423   0.736   3.634   5.102  0.5709 -0.1957  0.1477
 6343SOL    HW119424   0.792   3.693   5.153 -1.6911  1.1030  1.3049
 6343SOL    HW219425   0.746   3.549   5.144  1.0498  0.1950  0.8461
 6344SOL     OW19426   0.906   5.844   2.322 -0.3805 -0.1022 -0.6385
 6344SOL    HW119427   0.958   5.906   2.270  1.3423 -3.0942 -2.8003
 6344SOL    HW219428   0.879   5.777   2.259  0.4827 -3.1457  1.9850
 6345SOL     OW19429   6.812   0.293   0.746  0.7512  0.1465 -0.2417
 6345SOL    HW119430   6.836   0.320   0.657  1.6617  0.0343 -0.0452
 6345SOL    HW219431   6.803   0.197   0.740 -0.5305  0.2699 -0.5033
 6346SOL     OW19432   0.225   6.566   1.846  0.3263  0.1082 -0.3983
 6346SOL    HW119433   0.246   6.473   1.851  1.0891  0.2826 -0.1686
 6346SOL    HW219434   0.182   6.585   1.929  0.2313 -0.0242 -0.4172
 6347SOL     OW19435   3.347   4.939   2.341 -0.2638  0.4894  0.7438
 6347SOL    HW119436   3.264   4.916   2.383 -0.6991  0.5959 -0.0522
 6347SOL    HW219437   3.358   4.875   2.272  1.4606 -0.9479  2.2499
 6348SOL     OW19438   5.420   6.036   3.048 -0.7695  0.2312 -0.1346
 6348SOL    HW119439   5.326   6.039   3.062 -1.1662  3.4467 -2.3582
 6348SOL    HW219440   5.458   6.046   3.135 -2.3173 -2.7777  1.0201
 6349SOL     OW19441   3.282   6.675   3.514 -0.8379  0.4233  0.0634
 6349SOL    HW119442   3.271   6.603   3.577 -0.2455  1.2057  1.0899
 6349SOL    HW219443   3.329   6.635   3.441 -0.8851 -0.3415  0.4339
 6350SOL     OW19444   2.188   2.674   1.206  0.7843 -0.9597 -0.1683
 6350SOL    HW119445   2.194   2.675   1.301 -0.5820  0.5791 -0.0414
 6350SOL    HW219446   2.121   2.608   1.186 -0.8961  0.5673  0.1645
 6351SOL     OW19447   5.188   6.250   6.712  0.1162  0.3098 -0.5023
 6351SOL    HW119448   5.215   6.190   6.643  1.8858 -1.0008  1.2347
 6351SOL    HW219449   5.259   6.315   6.718 -0.2094  0.6457 -0.1736
 6352SOL     OW19450   4.137   2.758   5.457  0.5932  0.0736  0.1392
 6352SOL    HW119451   4.197   2.831   5.474  0.3377  0.4944 -0.7013
 6352SOL    HW219452   4.195   2.684   5.437  0.8448  0.2668  0.1415
 6353SOL     OW19453   2.432   5.516   4.544  0.2481 -0.4770  0.1601
 6353SOL    HW119454   2.369   5.537   4.614 -1.0062 -2.1780 -0.4041
 6353SOL    HW219455   2.459   5.602   4.511 -1.1875  0.3267  0.9421
 6354SOL     OW19456   0.716   1.854   5.766 -0.8538  0.0851  0.1510
 6354SOL    HW119457   0.794   1.816   5.726 -0.8331  1.4188 -1.1496
 6354SOL    HW219458   0.720   1.946   5.743 -2.0829  0.4519  1.2928
 6355SOL     OW19459   1.449   6.278   0.496  0.0404 -0.0326  0.1317
 6355SOL    HW119460   1.438   6.340   0.568  0.1330 -0.5611  0.6141
 6355SOL    HW219461   1.385   6.209   0.515 -1.0293  0.5858 -1.1412
 6356SOL     OW19462   2.618   0.957   4.226  0.1525  0.5411  0.4926
 6356SOL    HW119463   2.704   0.998   4.213  0.2628  0.4472  0.9000
 6356SOL    HW219464   2.620   0.880   4.169  0.1442  0.8149  0.1192
 6357SOL     OW19465   1.433   0.854   2.948 -0.6911  0.5424  0.2382
 6357SOL    HW119466   1.426   0.774   3.001  2.0699  0.5645  0.8003
 6357SOL    HW219467   1.343   0.873   2.921 -1.5753 -2.1343  0.9819
 6358SOL     OW19468   1.071   4.790   0.842  0.5552  0.9326 -0.2616
 6358SOL    HW119469   1.148   4.785   0.898  0.1276  0.2075  0.2731
 6358SOL    HW219470   1.070   4.707   0.794  0.6680  1.3609 -1.0138
 6359SOL     OW19471   3.659   5.612   4.185 -0.5045  0.1186 -0.3478
 6359SOL    HW119472   3.681   5.522   4.159  0.6404  0.7880 -1.8003
 6359SOL    HW219473   3.566   5.620   4.166 -0.6265 -0.7493 -0.1873
 6360SOL     OW19474   1.638   4.740   1.897 -0.6594  0.4900 -0.2443
 6360SOL    HW119475   1.628   4.749   1.991  0.1911  1.8374 -0.2567
 6360SOL    HW219476   1.568   4.795   1.860 -0.8178  0.1877 -0.3945
 6361SOL     OW19477   5.969   6.659   4.598  0.1973  0.1186 -0.1258
 6361SOL    HW119478   5.976   6.711   4.518  2.8992  0.0285 -0.0393
 6361SOL    HW219479   5.986   6.721   4.669 -1.3470  0.0312  0.3442
 6362SOL     OW19480   6.729   2.692   4.257 -0.5180  0.1333 -0.2118
 6362SOL    HW119481   6.782   2.756   4.304  1.3849 -1.3476 -0.2068
 6362SOL    HW219482   6.656   2.673   4.316  1.7119 -1.5706  2.2324
 6363SOL     OW19483   0.678   2.979   3.579  0.3090 -0.4095 -0.1664
 6363SOL    HW119484   0.620   2.978   3.655  1.5934  1.1519  0.9325
 6363SOL    HW219485   0.692   2.887   3.557 -0.0889 -0.8984  1.5170
 6364SOL     OW19486   1.809   6.660   1.763  0.3657 -0.3625 -0.2871
 6364SOL    HW119487   1.891   6.673   1.812 -0.6959  2.3397  0.9689
 6364SOL    HW219488   1.825   6.704   1.679  0.3080 -0.0480 -0.1368
 6365SOL     OW19489   5.987   2.184   2.932  0.1919  0.4412  0.6007
 6365SOL    HW119490   5.993   2.258   2.993 -1.6102  0.9590  0.2146
 6365SOL    HW219491   5.977   2.107   2.989  0.4894  0.6828  0.9861
 6366SOL     OW19492   2.125   3.800   0.893  0.2107  0.0515 -0.1557
 6366SOL    HW119493   2.089   3.747   0.964  0.3674 -0.3255 -0.3561
 6366SOL    HW219494   2.220   3.785   0.898  0.6321  2.5929  1.6569
 6367SOL     OW19495   0.647   1.425   4.514 -0.4687 -0.1382 -0.0144
 6367SOL    HW119496   0.688   1.511   4.519 -1.3316  0.2404  1.3665
 6367SOL    HW219497   0.610   1.412   4.602 -0.3075 -1.9425 -0.1820
 6368SOL     OW19498   0.197   1.453   3.820 -0.5511  0.6980 -0.2182
 6368SOL    HW119499   0.119   1.418   3.861 -0.6159  1.2915  0.1659
 6368SOL    HW219500   0.261   1.460   3.891 -1.2569  3.5413  0.2516
 6369SOL     OW19501   0.751   0.248   3.710 -0.0359 -0.0853 -0.0071
 6369SOL    HW119502   0.690   0.175   3.716 -0.9151  0.6566  0.4459
 6369SOL    HW219503   0.710   0.307   3.646  1.0019 -0.2903 -0.8911
 6370SOL     OW19504   4.344   4.459   4.381 -0.1377  0.5840 -0.4860
 6370SOL    HW119505   4.337   4.373   4.341 -0.4956  1.0671 -1.4916
 6370SOL    HW219506   4.438   4.471   4.397 -0.1995 -0.6069  1.1123
 6371SOL     OW19507   0.966   6.148   0.177  0.3694 -0.0306  0.4607
 6371SOL    HW119508   0.876   6.136   0.145  1.1073 -1.9598 -1.0279
 6371SOL    HW219509   1.017   6.165   0.098  1.5112 -0.1321  1.1658
 6372SOL     OW19510   6.783   5.555   6.249  0.0303  0.0305  0.0054
 6372SOL    HW119511   6.837   5.629   6.223  0.6716 -0.5168 -0.2382
 6372SOL    HW219512   6.695   5.579   6.220  0.0136  1.1941  0.9458
 6373SOL     OW19513   5.976   4.832   5.687  0.1897  0.1090 -0.5204
 6373SOL    HW119514   5.974   4.924   5.712  0.8730 -0.3091  1.2285
 6373SOL    HW219515   5.888   4.813   5.656 -0.4174  0.9723  0.6214
 6374SOL     OW19516   3.151   2.341   4.449 -0.3303  0.1157 -0.4769
 6374SOL    HW119517   3.076   2.318   4.504 -0.3343  1.3054  0.0478
 6374SOL    HW219518   3.126   2.424   4.409  0.6221  0.4293 -0.4476
 6375SOL     OW19519   5.117   6.063   3.352 -0.3273 -0.0622  0.0372
 6375SOL    HW119520   5.118   5.988   3.293  2.3815 -1.7535  2.0065
 6375SOL    HW219521   5.066   6.034   3.428  0.4912  0.1464  0.6899
 6376SOL     OW19522   6.690   0.567   2.361 -0.6996 -0.0292  0.3852
 6376SOL    HW119523   6.613   0.551   2.414 -1.1624  1.3823  0.1710
 6376SOL    HW219524   6.764   0.551   2.420 -1.1804  0.0285  1.0050
 6377SOL     OW19525   6.223   4.328   0.537 -0.4785  0.5998  0.9205
 6377SOL    HW119526   6.290   4.262   0.556 -1.5187 -0.3465  1.4145
 6377SOL    HW219527   6.273   4.408   0.520  0.9077 -0.6018 -1.1038
 6378SOL     OW19528   3.695   1.637   2.103 -0.0182 -0.5315  0.2286
 6378SOL    HW119529   3.635   1.578   2.059 -2.0793  1.2697  0.4773
 6378SOL    HW219530   3.700   1.604   2.193 -1.6228 -0.0773  0.5218
 6379SOL     OW19531   6.617   0.345   3.679 -0.4257 -0.0813 -0.1140
 6379SOL    HW119532   6.678   0.323   3.749  2.2838  1.5341 -1.8169
 6379SOL    HW219533   6.555   0.271   3.678  0.5082 -1.0397  2.7089
 6380SOL     OW19534   5.656   6.511   5.450  0.7016 -0.3504  0.2095
 6380SOL    HW119535   5.719   6.463   5.396  0.3854 -0.7688  0.2143
 6380SOL    HW219536   5.705   6.532   5.530  1.7175  1.7076 -0.8543
 6381SOL     OW19537   1.645   5.181   5.754 -0.1326 -0.3561  0.6251
 6381SOL    HW119538   1.581   5.125   5.798  0.2502 -1.3681 -0.0798
 6381SOL    HW219539   1.611   5.270   5.766 -0.6238 -0.7074  1.9663
 6382SOL     OW19540   0.278   4.377   3.952 -0.0316 -0.1687 -0.3527
 6382SOL    HW119541   0.275   4.290   3.911 -1.9882 -0.2775 -0.0461
 6382SOL    HW219542   0.189   4.411   3.944  0.3705  1.2399  0.7709
 6383SOL     OW19543   4.191   1.792   5.947 -0.9742 -0.1645  0.0667
 6383SOL    HW119544   4.162   1.829   6.030 -2.7355 -0.1095 -0.5277
 6383SOL    HW219545   4.263   1.848   5.919 -2.2349  1.5886  0.1895
 6384SOL     OW19546   4.048   4.969   2.660 -0.2010  0.2218 -0.3969
 6384SOL    HW119547   4.103   5.023   2.716 -0.7614  1.1452 -0.7118
 6384SOL    HW219548   4.011   4.904   2.719 -0.9735  1.3231  0.3862
 6385SOL     OW19549   0.764   3.088   1.810 -0.2781 -0.0818  0.2609
 6385SOL    HW119550   0.853   3.057   1.826 -0.0950  0.6944  0.7639
 6385SOL    HW219551   0.713   3.050   1.881 -0.6567 -1.7313 -0.8224
 6386SOL     OW19552   5.452   3.864   0.394  0.1599  0.1924  0.5610
 6386SOL    HW119553   5.490   3.811   0.325 -1.4462 -0.2905  0.0282
 6386SOL    HW219554   5.507   3.846   0.471  0.5218 -1.0942  0.0199
 6387SOL     OW19555   0.233   4.428   6.871 -0.1740  0.4733 -0.0488
 6387SOL    HW119556   0.250   4.518   6.900 -2.1555  0.6819  0.6975
 6387SOL    HW219557   0.164   4.437   6.805 -0.5639 -0.4961  0.2082
 6388SOL     OW19558   6.589   6.463   6.319 -0.0901  0.1379  0.5105
 6388SOL    HW119559   6.520   6.489   6.380 -0.0062 -0.6688  0.9586
 6388SOL    HW219560   6.654   6.533   6.325 -0.0190 -0.0037  1.4382
 6389SOL     OW19561   3.329   2.535   6.143 -0.2044 -0.4126 -0.4021
 6389SOL    HW119562   3.277   2.483   6.082 -2.7606  0.4496  0.8685
 6389SOL    HW219563   3.267   2.600   6.176  1.4064 -0.0534  2.1252
 6390SOL     OW19564   1.175   0.401   2.110 -0.4126  0.5764 -0.5307
 6390SOL    HW119565   1.158   0.311   2.139  3.1730 -0.4820 -1.1918
 6390SOL    HW219566   1.161   0.398   2.015 -0.5322  0.7854 -0.5193
 6391SOL     OW19567   4.782   1.771   0.495 -0.2700  0.2834 -0.2192
 6391SOL    HW119568   4.695   1.733   0.499 -0.5616  0.9571 -0.0252
 6391SOL    HW219569   4.800   1.780   0.402  0.4276 -1.6927 -0.3272
 6392SOL     OW19570   1.680   0.691   3.416  0.7663  0.1145 -0.2361
 6392SOL    HW119571   1.643   0.614   3.458  1.0619  0.4732  0.6995
 6392SOL    HW219572   1.766   0.663   3.384  0.6606 -0.0782 -0.3533
 6393SOL     OW19573   2.354   2.780   4.868 -0.2326  0.2314  0.0736
 6393SOL    HW119574   2.429   2.807   4.921  0.5067 -2.5125  0.5565
 6393SOL    HW219575   2.380   2.797   4.778  0.4276  0.5379  0.3181
 6394SOL     OW19576   0.023   5.913   4.603  0.3761  0.1796  0.2524
 6394SOL    HW119577   0.015   6.003   4.636  1.3871  0.1907  0.4781
 6394SOL    HW219578   0.116   5.900   4.589  0.1210 -0.4035 -1.0412
 6395SOL     OW19579   2.893   1.027   5.096 -0.1231  0.3211  0.2978
 6395SOL    HW119580   2.939   0.963   5.042 -0.9445 -1.1831  1.3197
 6395SOL    HW219581   2.951   1.041   5.170 -0.1406  0.4155  0.2933
 6396SOL     OW19582   1.059   1.576   4.658 -0.1964  0.3353 -0.2003
 6396SOL    HW119583   1.050   1.524   4.579  1.6168  1.0407 -0.9254
 6396SOL    HW219584   1.077   1.513   4.727  4.8309 -0.0789 -1.5174
 6397SOL     OW19585   5.831   4.502   3.572 -0.4435 -0.0564 -0.9052
 6397SOL    HW119586   5.809   4.511   3.665 -0.5232  0.0821 -0.9371
 6397SOL    HW219587   5.852   4.409   3.561  1.7666  0.3212 -0.2777
 6398SOL     OW19588   4.985   5.689   4.291  0.3656  0.1793 -0.7528
 6398SOL    HW119589   5.039   5.719   4.364  2.0818 -1.1193 -1.4284
 6398SOL    HW219590   4.939   5.767   4.262 -0.4782  0.7160  1.7695
 6399SOL     OW19591   6.055   3.855   6.283  0.4717  0.0935  0.3827
 6399SOL    HW119592   6.115   3.892   6.348  0.6176  0.4728  0.0327
 6399SOL    HW219593   6.113   3.816   6.218  0.3198 -0.8273  0.7842
 6400SOL     OW19594   0.424   5.786   3.338  0.8016  0.5325  0.0884
 6400SOL    HW119595   0.424   5.849   3.266  0.6850  0.2797 -0.1339
 6400SOL    HW219596   0.358   5.722   3.314  1.8795 -0.4382 -0.3468
 6401SOL     OW19597   3.529   6.883   2.858 -0.8405  0.6626  0.2854
 6401SOL    HW119598   3.537   6.813   2.793 -1.3608  0.3243  0.5832
 6401SOL    HW219599   3.604   6.870   2.916 -0.7024  0.6082  0.0945
 6402SOL     OW19600   4.912   1.565   0.655 -0.2329 -0.0191 -0.1523
 6402SOL    HW119601   4.987   1.531   0.606 -1.0753 -2.9517  0.3833
 6402SOL    HW219602   4.858   1.607   0.588  0.8218  0.1887 -0.9099
 6403SOL     OW19603   2.087   0.583   3.733  0.3389 -0.0486  0.1663
 6403SOL    HW119604   2.012   0.583   3.674  1.8933  0.2638 -1.9416
 6403SOL    HW219605   2.097   0.674   3.760  0.3634  0.0352 -0.1206
 6404SOL     OW19606   4.433   2.242   3.748  0.0485  0.1052 -0.8847
 6404SOL    HW119607   4.502   2.292   3.705 -1.4456  1.2330 -2.0924
 6404SOL    HW219608   4.452   2.151   3.723  1.9097  0.1855  0.0603
 6405SOL     OW19609   3.848   1.416   3.895  0.1187 -0.2284 -0.3334
 6405SOL    HW119610   3.903   1.393   3.970 -0.5063  1.4004  0.6899
 6405SOL    HW219611   3.759   1.417   3.930  0.0551  3.6707 -0.1338
 6406SOL     OW19612   2.639   4.996   3.120  0.8690  0.0381  0.3728
 6406SOL    HW119613   2.664   5.075   3.071 -0.5651 -0.3099 -1.0084
 6406SOL    HW219614   2.601   5.029   3.201 -1.0613  0.9200 -0.7978
 6407SOL     OW19615   0.226   2.772   0.174 -0.1305  0.0846 -0.7596
 6407SOL    HW119616   0.276   2.691   0.177 -1.1834 -0.6585 -1.9617
 6407SOL    HW219617   0.182   2.776   0.259 -1.3733 -1.5212 -1.2630
 6408SOL     OW19618   3.075   6.448   6.268  0.0801  0.2450  0.3594
 6408SOL    HW119619   3.170   6.459   6.263  0.2365 -1.3014 -1.8533
 6408SOL    HW219620   3.039   6.526   6.225  0.3865  0.4466  0.4706
 6409SOL     OW19621   3.960   1.343   3.218 -0.1285  0.2463 -0.1661
 6409SOL    HW119622   3.983   1.271   3.278  0.0527  0.7585  0.3958
 6409SOL    HW219623   3.895   1.305   3.159  0.3589 -0.5356 -0.2228
 6410SOL     OW19624   2.615   2.745   1.594 -0.0111  0.1312 -0.1333
 6410SOL    HW119625   2.618   2.663   1.544  0.7665  1.3816 -2.3090
 6410SOL    HW219626   2.707   2.764   1.613 -0.0599  1.1513 -0.8484
 6411SOL     OW19627   4.164   4.570   2.861 -0.1334 -0.3265  0.0214
 6411SOL    HW119628   4.210   4.510   2.803 -1.0908  1.8055 -3.2231
 6411SOL    HW219629   4.233   4.613   2.910  0.7854 -1.7446  0.0288
 6412SOL     OW19630   0.325   4.219   6.207  0.5006  0.1965 -0.1496
 6412SOL    HW119631   0.385   4.148   6.183 -0.6132 -0.7121 -0.3473
 6412SOL    HW219632   0.380   4.283   6.252  1.5004 -0.8898  0.2155
 6413SOL     OW19633   1.042   6.363   1.096 -0.9707  0.4957 -0.1890
 6413SOL    HW119634   0.967   6.414   1.067  0.0494  1.1689 -1.8284
 6413SOL    HW219635   1.118   6.412   1.062  0.1569 -0.6066  0.6636
 6414SOL     OW19636   3.193   5.650   2.543 -0.0313  0.0848 -0.2069
 6414SOL    HW119637   3.262   5.703   2.504 -1.0167  1.5863  0.0198
 6414SOL    HW219638   3.114   5.673   2.493 -0.6704 -0.4434  0.5377
 6415SOL     OW19639   3.890   4.945   1.027  0.8213  0.2803  0.1803
 6415SOL    HW119640   3.973   4.978   0.992  1.2565 -1.3137 -0.3710
 6415SOL    HW219641   3.853   5.019   1.074  1.7050  1.5613 -1.0758
 6416SOL     OW19642   1.655   4.173   5.665  0.5156 -0.7043  0.4072
 6416SOL    HW119643   1.592   4.108   5.695 -0.0740 -0.1648  0.3717
 6416SOL    HW219644   1.602   4.235   5.614  0.7849  0.6060  1.6581
 6417SOL     OW19645   1.939   4.431   2.873 -0.2435 -0.1552 -0.6134
 6417SOL    HW119646   1.902   4.506   2.920 -2.5424 -2.1884  1.0658
 6417SOL    HW219647   1.881   4.418   2.799  0.1490 -0.2676 -0.9023
 6418SOL     OW19648   0.547   0.768   5.848  0.0004 -0.1648 -0.4029
 6418SOL    HW119649   0.613   0.793   5.784  0.0933 -0.6922 -0.5160
 6418SOL    HW219650   0.546   0.673   5.846 -2.2154 -0.1879 -1.8971
 6419SOL     OW19651   5.318   5.118   6.677  0.0519 -0.4150 -0.1879
 6419SOL    HW119652   5.338   5.048   6.739 -1.0205  0.3370  1.0493
 6419SOL    HW219653   5.399   5.169   6.671  0.7833 -1.6130 -0.9594
 6420SOL     OW19654   5.199   2.992   0.119 -0.1242  0.3664  0.0251
 6420SOL    HW119655   5.127   2.993   0.182 -0.4759  1.4163 -0.3801
 6420SOL    HW219656   5.197   2.903   0.083  0.7244 -0.6054  2.1905
 6421SOL     OW19657   5.577   2.412   5.170  0.6092 -0.0149 -0.2051
 6421SOL    HW119658   5.603   2.503   5.183  1.6678 -0.3482  0.2309
 6421SOL    HW219659   5.530   2.411   5.087  0.6116  0.9173 -0.2301
 6422SOL     OW19660   0.357   2.418   4.776  0.0659 -0.6981 -0.3046
 6422SOL    HW119661   0.407   2.338   4.761 -1.2773 -1.4917 -0.6809
 6422SOL    HW219662   0.397   2.458   4.854  1.3473 -1.2221 -0.6648
 6423SOL     OW19663   2.686   4.589   0.903 -0.0033  0.4213  0.3252
 6423SOL    HW119664   2.592   4.599   0.912 -0.1796  0.9135 -1.5251
 6423SOL    HW219665   2.698   4.559   0.812  1.4376 -2.6172  1.3648
 6424SOL     OW19666   2.772   2.262   3.112  0.0911 -0.0805 -0.0658
 6424SOL    HW119667   2.790   2.175   3.148 -0.7376  1.1095  3.6331
 6424SOL    HW219668   2.857   2.304   3.106  0.2425 -0.2828  0.6283
 6425SOL     OW19669   6.195   2.267   6.257 -0.1328 -0.5889 -0.0696
 6425SOL    HW119670   6.185   2.197   6.321 -0.9992 -0.1854  0.2548
 6425SOL    HW219671   6.238   2.338   6.304  0.5645 -0.8235 -0.3434
 6426SOL     OW19672   5.339   5.607   4.159  0.1601  0.0091  0.5417
 6426SOL    HW119673   5.367   5.692   4.192 -0.3943  0.6282 -0.5401
 6426SOL    HW219674   5.341   5.616   4.064  0.3388 -1.2732  0.4032
 6427SOL     OW19675   0.421   1.938   4.285 -0.7795  0.2775 -0.3102
 6427SOL    HW119676   0.492   1.966   4.344 -0.4929 -1.5488  0.2586
 6427SOL    HW219677   0.408   2.013   4.227  1.3751  0.8156 -0.2000
 6428SOL     OW19678   5.051   0.455   5.711 -0.3258  0.0426  0.2059
 6428SOL    HW119679   5.104   0.444   5.631  2.5357 -1.3553  2.1232
 6428SOL    HW219680   4.986   0.521   5.687 -0.2193 -0.9473 -3.5295
 6429SOL     OW19681   3.130   6.251   2.862  0.6717 -0.2679  0.3276
 6429SOL    HW119682   3.156   6.343   2.868  1.2674 -0.2587 -1.6443
 6429SOL    HW219683   3.151   6.214   2.948  0.7777  1.3374  1.0238
 6430SOL     OW19684   5.589   0.377   5.642  0.1346 -0.8691 -0.3340
 6430SOL    HW119685   5.560   0.298   5.598  1.2518 -0.1856 -2.4531
 6430SOL    HW219686   5.579   0.446   5.577  1.1386  0.3636  0.7470
 6431SOL     OW19687   1.199   0.647   2.571 -0.0778 -0.1575  0.3192
 6431SOL    HW119688   1.287   0.624   2.600  0.2474 -0.3901 -0.7858
 6431SOL    HW219689   1.183   0.734   2.607 -0.0208 -0.7411  1.8115
 6432SOL     OW19690   3.346   1.845   0.949 -0.0483  0.3871  0.0973
 6432SOL    HW119691   3.356   1.750   0.952 -0.8798  0.2986  0.1216
 6432SOL    HW219692   3.388   1.871   0.867 -0.4557 -0.0858 -0.2629
 6433SOL     OW19693   5.326   4.743   1.574 -0.3054  0.0553 -0.1042
 6433SOL    HW119694   5.286   4.770   1.656 -0.6700 -0.1801 -0.1990
 6433SOL    HW219695   5.287   4.801   1.508  0.5556  0.7585 -0.0191
 6434SOL     OW19696   4.080   1.070   6.940  0.6153 -0.0925  0.9784
 6434SOL    HW119697   4.145   1.042   7.005 -1.3022 -1.8209  2.2929
 6434SOL    HW219698   4.067   1.163   6.957  0.0108 -0.5308  3.3219
 6435SOL     OW19699   0.677   3.387   3.070 -0.2359  0.2810 -0.3495
 6435SOL    HW119700   0.702   3.444   2.997  0.6019  0.8168  0.3475
 6435SOL    HW219701   0.758   3.343   3.095 -0.1233  1.4629  1.4430
 6436SOL     OW19702   4.987   5.681   5.617 -0.0118 -0.5487  0.4439
 6436SOL    HW119703   5.068   5.686   5.566 -0.7128 -1.6178 -0.8290
 6436SOL    HW219704   4.992   5.597   5.663 -0.8862 -1.1413 -0.5229
 6437SOL     OW19705   4.680   1.105   2.844  0.4605  0.4879 -0.0808
 6437SOL    HW119706   4.622   1.157   2.789 -0.1647  0.1042  0.1913
 6437SOL    HW219707   4.673   1.016   2.809 -1.6789 -0.2415  1.8717
 6438SOL     OW19708   6.185   6.341   6.494 -0.4580  0.4141 -0.4887
 6438SOL    HW119709   6.171   6.391   6.575  0.0139  1.7246 -1.1801
 6438SOL    HW219710   6.239   6.267   6.521  0.3208  1.2332  0.2988
 6439SOL     OW19711   4.058   5.887   4.881  0.8596 -0.3932 -0.1619
 6439SOL    HW119712   4.073   5.841   4.799  1.8188 -0.2680 -0.0689
 6439SOL    HW219713   4.116   5.963   4.877  1.4800 -0.7842  0.9349
 6440SOL     OW19714   6.186   2.113   5.187 -0.1572  0.6004 -0.1896
 6440SOL    HW119715   6.156   2.096   5.276  0.9667  2.8801  0.6971
 6440SOL    HW219716   6.265   2.060   5.177 -0.6745 -0.2104 -0.1397
 6441SOL     OW19717   2.789   6.117   6.578  0.2826 -0.3408  0.3910
 6441SOL    HW119718   2.855   6.166   6.529 -0.4395  1.3356  0.9857
 6441SOL    HW219719   2.715   6.178   6.584 -1.5718 -2.3489 -0.7789
 6442SOL     OW19720   4.350   1.305   6.578 -0.5729  0.0053 -0.0879
 6442SOL    HW119721   4.283   1.245   6.610 -0.6761 -0.1974 -0.6871
 6442SOL    HW219722   4.428   1.282   6.628  0.2598 -2.7528 -2.4214
 6443SOL     OW19723   3.495   0.741   4.359 -0.0066 -0.4979  0.1942
 6443SOL    HW119724   3.523   0.750   4.450 -0.2446  0.5206  0.1707
 6443SOL    HW219725   3.421   0.801   4.350 -0.9729 -1.7144 -0.2712
 6444SOL     OW19726   5.998   2.599   0.174  0.4182  0.4685 -0.1967
 6444SOL    HW119727   5.997   2.513   0.133  2.0376  1.4606 -2.4908
 6444SOL    HW219728   5.913   2.637   0.151  0.1237 -0.1132 -0.0822
 6445SOL     OW19729   5.966   0.639   4.585  0.1554 -0.6568 -0.2886
 6445SOL    HW119730   5.951   0.570   4.650 -1.2119  0.5975  0.8185
 6445SOL    HW219731   5.879   0.679   4.573  1.2068  2.1452  0.6509
 6446SOL     OW19732   5.132   1.715   2.063  0.5618 -0.3925 -0.0963
 6446SOL    HW119733   5.093   1.652   2.003  0.8916  0.1437 -0.8837
 6446SOL    HW219734   5.061   1.736   2.124  0.3050 -1.1446 -0.1162
 6447SOL     OW19735   5.195   1.274   0.791  0.2616 -0.5181  0.2916
 6447SOL    HW119736   5.249   1.330   0.736 -1.0899 -1.4737 -2.1571
 6447SOL    HW219737   5.257   1.209   0.827  1.3124  0.6440  0.6545
 6448SOL     OW19738   1.787   3.437   5.129 -0.2882  0.6606  0.0611
 6448SOL    HW119739   1.846   3.459   5.201 -1.5942  1.0708  1.0233
 6448SOL    HW219740   1.828   3.478   5.052  1.4056 -0.2415  0.4176
 6449SOL     OW19741   2.714   1.579   0.212  0.5807 -0.0809  1.1566
 6449SOL    HW119742   2.680   1.521   0.143  0.5380 -0.2924  1.3547
 6449SOL    HW219743   2.649   1.649   0.219  1.1269  0.5501  0.2076
 6450SOL     OW19744   0.538   5.273   2.240 -0.5163  0.1793 -0.5054
 6450SOL    HW119745   0.560   5.259   2.148 -1.7220  0.7837 -0.9030
 6450SOL    HW219746   0.453   5.317   2.238  1.0373  3.5139  0.7865
 6451SOL     OW19747   1.891   4.980   2.356  0.4756  0.3544 -0.1339
 6451SOL    HW119748   1.821   5.015   2.411 -0.1921 -1.3968  0.1800
 6451SOL    HW219749   1.873   5.017   2.269 -0.7063  0.1154 -0.0068
 6452SOL     OW19750   4.776   2.738   4.498 -0.1529 -0.6856 -0.1940
 6452SOL    HW119751   4.684   2.755   4.473 -0.2414 -0.5693  0.2077
 6452SOL    HW219752   4.822   2.731   4.414 -0.0838  1.7255 -0.4233
 6453SOL     OW19753   4.765   2.577   3.993 -0.3720 -0.4597  0.5437
 6453SOL    HW119754   4.834   2.520   4.029  1.3645 -0.2232 -2.1304
 6453SOL    HW219755   4.683   2.531   4.014  0.6066 -1.2625  2.9605
 6454SOL     OW19756   2.404   1.910   0.888 -0.0068  0.4591 -0.3955
 6454SOL    HW119757   2.358   1.990   0.912 -0.8144  0.3645 -1.5079
 6454SOL    HW219758   2.485   1.912   0.939  0.4463  2.4631 -1.1079
 6455SOL     OW19759   0.373   5.315   0.215  0.4182 -0.0828 -0.0251
 6455SOL    HW119760   0.437   5.275   0.274 -0.8686 -1.9759  0.1857
 6455SOL    HW219761   0.309   5.246   0.199 -1.2014  1.5040 -0.7907
 6456SOL     OW19762   0.288   1.628   0.461  0.2494 -0.1820 -0.2740
 6456SOL    HW119763   0.218   1.691   0.479  1.9175  1.2615  1.5356
 6456SOL    HW219764   0.242   1.545   0.448 -1.8892  0.9917 -0.7379
 6457SOL     OW19765   1.200   0.938   4.997  0.3318 -0.9562 -0.2959
 6457SOL    HW119766   1.248   0.939   5.079 -0.5175  0.3151  0.2145
 6457SOL    HW219767   1.108   0.936   5.023  0.0166  0.7790 -1.1668
 6458SOL     OW19768   2.625   4.590   1.324  0.0495 -0.0451 -0.1468
 6458SOL    HW119769   2.659   4.526   1.261  0.3846  1.5554 -1.6578
 6458SOL    HW219770   2.666   4.673   1.299 -0.0772  0.7228  1.9971
 6459SOL     OW19771   1.055   4.143   0.816  0.0012  0.0500  1.0210
 6459SOL    HW119772   1.093   4.055   0.816  1.0008  0.4460 -0.5413
 6459SOL    HW219773   1.080   4.180   0.731 -1.9105  1.2088  0.9153
 6460SOL     OW19774   1.197   0.896   6.694 -0.0833  0.1058 -0.0992
 6460SOL    HW119775   1.195   0.842   6.772 -0.7667 -1.2779 -1.0289
 6460SOL    HW219776   1.140   0.970   6.714 -1.9812 -1.3181 -0.0158
 6461SOL     OW19777   4.023   6.373   0.660 -0.1272  0.4839 -0.4101
 6461SOL    HW119778   3.960   6.300   0.661 -0.1578  0.5078 -0.6774
 6461SOL    HW219779   3.981   6.441   0.712 -0.0056  0.2327  0.0204
 6462SOL     OW19780   4.459   5.832   4.600 -0.4000 -0.2322 -0.0567
 6462SOL    HW119781   4.465   5.919   4.559  1.5856 -0.3230 -0.0477
 6462SOL    HW219782   4.531   5.783   4.562 -0.9772 -1.6186  0.5917
 6463SOL     OW19783   0.303   4.929   4.050  0.5867  0.3302  0.0133
 6463SOL    HW119784   0.392   4.894   4.053  0.2490 -0.7231 -1.2786
 6463SOL    HW219785   0.290   4.969   4.136  2.2910  0.4888  0.2306
 6464SOL     OW19786   4.498   3.501   1.627 -0.0960 -0.2969  0.1926
 6464SOL    HW119787   4.540   3.419   1.601  0.1705  0.1512 -0.8410
 6464SOL    HW219788   4.491   3.551   1.546 -3.2594 -0.5966  0.1786
 6465SOL     OW19789   5.349   5.979   0.899  0.0862  0.1736  0.0833
 6465SOL    HW119790   5.404   5.901   0.908  0.5666  0.3037 -1.4540
 6465SOL    HW219791   5.261   5.945   0.885  0.4446 -0.1446 -1.5601
 6466SOL     OW19792   0.217   6.198   1.418 -0.4859  0.1075  0.0772
 6466SOL    HW119793   0.218   6.162   1.330 -1.8408  1.6848 -0.6369
 6466SOL    HW219794   0.291   6.258   1.420 -0.2788 -0.1462  0.1276
 6467SOL     OW19795   6.408   6.630   1.938 -0.1765  0.2548  0.1109
 6467SOL    HW119796   6.485   6.628   1.994 -1.3601  0.1025  1.8054
 6467SOL    HW219797   6.441   6.608   1.851  1.2865 -2.6903  1.2791
 6468SOL     OW19798   2.275   1.399   4.670  0.3408 -0.2371 -0.1281
 6468SOL    HW119799   2.204   1.337   4.654  0.5303 -0.8550  1.2785
 6468SOL    HW219800   2.232   1.478   4.701  0.1509  0.0933 -1.1962
 6469SOL     OW19801   4.014   6.015   6.289 -0.4428 -0.1100  0.0647
 6469SOL    HW119802   4.096   6.036   6.244  0.0402 -2.1175 -0.0760
 6469SOL    HW219803   3.961   6.095   6.281  1.6684  1.4136  0.6210
 6470SOL     OW19804   1.489   4.004   1.330 -0.6662  0.1635 -0.1784
 6470SOL    HW119805   1.479   4.061   1.407  2.5207  0.2772  0.3049
 6470SOL    HW219806   1.458   3.918   1.360 -1.5211  0.6804  0.4871
 6471SOL     OW19807   2.308   0.572   2.882  0.5333  1.0484 -0.3601
 6471SOL    HW119808   2.379   0.513   2.909  1.0964  0.8456 -2.1878
 6471SOL    HW219809   2.342   0.660   2.897 -0.5981  1.0610  3.1415
 6472SOL     OW19810   2.524   0.192   3.187  0.4882 -0.7113 -0.8878
 6472SOL    HW119811   2.592   0.125   3.197  0.0481 -1.0847 -0.2957
 6472SOL    HW219812   2.500   0.214   3.277  1.7690  1.4318 -1.0019
 6473SOL     OW19813   0.137   0.920   1.148 -0.0961 -0.2254  0.0436
 6473SOL    HW119814   0.207   0.921   1.213  0.2991  0.7938 -0.3921
 6473SOL    HW219815   0.087   0.840   1.168  0.2793 -0.1576  1.3124
 6474SOL     OW19816   1.123   1.857   4.913 -0.2453  0.6274  0.2921
 6474SOL    HW119817   1.164   1.773   4.893  1.4066  1.1486  1.3057
 6474SOL    HW219818   1.174   1.921   4.864 -1.2688  1.1038 -0.1848
 6475SOL     OW19819   2.563   4.170   0.409 -0.3156 -0.4721  0.2020
 6475SOL    HW119820   2.549   4.198   0.499  1.6736  1.6259 -0.0650
 6475SOL    HW219821   2.658   4.162   0.400 -0.4732 -0.7172 -1.6782
 6476SOL     OW19822   0.210   6.282   1.896 -0.4966  0.4645 -0.3915
 6476SOL    HW119823   0.141   6.249   1.838  0.1812 -2.2873  0.2042
 6476SOL    HW219824   0.260   6.204   1.920  0.9112  1.9095  1.7168
 6477SOL     OW19825   4.340   0.827   5.598 -0.1048  0.0383  0.3990
 6477SOL    HW119826   4.384   0.768   5.537  0.0698  1.9051 -1.3901
 6477SOL    HW219827   4.260   0.781   5.623  0.6474 -1.4823  0.1189
 6478SOL     OW19828   3.745   4.407   3.779  0.4428 -0.5749  0.1153
 6478SOL    HW119829   3.832   4.417   3.741  0.6816  0.0483  0.8033
 6478SOL    HW219830   3.759   4.346   3.852 -0.2575 -2.8726 -1.5665
 6479SOL     OW19831   4.985   1.408   6.204 -0.5022 -0.0992  0.1486
 6479SOL    HW119832   4.894   1.421   6.227 -0.1728 -0.2794  1.6571
 6479SOL    HW219833   5.031   1.406   6.288  1.0108  0.8737 -0.6209
 6480SOL     OW19834   6.126   6.549   1.927  0.3206  0.4280 -0.2684
 6480SOL    HW119835   6.061   6.566   1.995 -0.4899 -0.5801 -0.7391
 6480SOL    HW219836   6.204   6.597   1.954 -0.7291  1.9760  0.1336
 6481SOL     OW19837   3.523   6.503   1.063  0.1620 -0.0986 -0.1725
 6481SOL    HW119838   3.472   6.577   1.096  0.0625  0.3734 -1.3148
 6481SOL    HW219839   3.609   6.540   1.044 -0.2027  0.0345 -1.7813
 6482SOL     OW19840   2.414   4.797   4.035 -0.3404 -0.2409  0.8195
 6482SOL    HW119841   2.452   4.867   3.982 -1.5151  1.9810  2.7120
 6482SOL    HW219842   2.484   4.772   4.096  0.0448 -0.6544  0.2181
 6483SOL     OW19843   3.732   2.795   0.053 -0.3147  0.2425 -0.2695
 6483SOL    HW119844   3.751   2.701   0.056 -0.1140  0.2668 -0.7007
 6483SOL    HW219845   3.792   2.833   0.117 -2.4329 -0.2255  2.1610
 6484SOL     OW19846   5.884   2.237   3.629  0.5610 -0.4509 -0.6564
 6484SOL    HW119847   5.849   2.148   3.635 -3.0534  0.8510  0.0532
 6484SOL    HW219848   5.923   2.252   3.716  0.8910 -1.1871 -0.6633
 6485SOL     OW19849   1.679   1.049   1.033 -0.6254  0.0511 -0.0122
 6485SOL    HW119850   1.603   1.054   1.091 -0.5071 -0.4474  0.1881
 6485SOL    HW219851   1.670   0.964   0.989  1.0426 -1.1164  1.7442
 6486SOL     OW19852   1.030   3.261   1.974  0.1288  0.1683  0.0563
 6486SOL    HW119853   0.946   3.303   1.954 -1.0536 -1.7154  0.8474
 6486SOL    HW219854   1.064   3.235   1.889  0.6089  2.1011 -0.4033
 6487SOL     OW19855   0.813   1.071   5.633  0.1012  0.3744  0.5576
 6487SOL    HW119856   0.767   0.994   5.600 -0.1850  0.3550  1.0047
 6487SOL    HW219857   0.744   1.131   5.661  0.3337  0.5671  0.7268
 6488SOL     OW19858   5.931   3.691   4.600 -0.1439 -0.0295 -0.4652
 6488SOL    HW119859   5.986   3.621   4.635  0.3947  0.4171 -0.4167
 6488SOL    HW219860   5.852   3.688   4.654  0.4344  0.2756  0.4250
 6489SOL     OW19861   5.804   2.108   5.935 -0.3770  0.4196 -0.5302
 6489SOL    HW119862   5.849   2.067   6.009 -0.2519  0.1372 -0.7573
 6489SOL    HW219863   5.804   2.040   5.867 -0.2977  0.7481 -0.8627
 6490SOL     OW19864   4.218   4.569   3.848  0.1942  1.2891  0.6146
 6490SOL    HW119865   4.215   4.482   3.807 -0.3381 -0.0676  3.2890
 6490SOL    HW219866   4.175   4.626   3.784 -0.0150 -0.5121 -0.9737
 6491SOL     OW19867   4.513   2.683   0.075  0.1579  0.6635  0.2616
 6491SOL    HW119868   4.514   2.764   0.024 -0.5175 -0.0910 -1.0114
 6491SOL    HW219869   4.458   2.703   0.151 -1.4824  0.9174 -0.9323
 6492SOL     OW19870   4.667   1.025   2.094  0.6945  0.0692  0.0404
 6492SOL    HW119871   4.760   1.038   2.076  0.8306 -1.9691 -1.1011
 6492SOL    HW219872   4.633   0.983   2.014 -1.5162  1.9193 -0.0812
 6493SOL     OW19873   3.188   5.419   5.055 -0.0831  0.1653  0.2155
 6493SOL    HW119874   3.220   5.417   5.145 -0.2452 -0.2699  0.2660
 6493SOL    HW219875   3.261   5.383   5.003  0.9403  2.5843 -0.1320
 6494SOL     OW19876   2.786   5.837   3.427 -0.3895  0.4133 -0.7324
 6494SOL    HW119877   2.850   5.844   3.356 -1.6282 -0.5848 -2.0063
 6494SOL    HW219878   2.701   5.848   3.384 -1.2787 -1.9564  0.2629
 6495SOL     OW19879   2.609   5.228   1.986 -0.0517  0.2105  0.4370
 6495SOL    HW119880   2.517   5.228   2.010  0.0349  2.2700  0.9792
 6495SOL    HW219881   2.619   5.303   1.927  1.3798  0.4671  0.9521
 6496SOL     OW19882   2.178   4.123   6.763 -0.3456  0.3273  0.3333
 6496SOL    HW119883   2.114   4.095   6.828 -1.4212  0.3083 -0.6972
 6496SOL    HW219884   2.162   4.217   6.753 -0.9936  0.1246 -0.7242
 6497SOL     OW19885   0.167   3.281   3.217  0.5182  1.0579  0.2522
 6497SOL    HW119886   0.224   3.338   3.166 -0.8788  4.0345  1.8099
 6497SOL    HW219887   0.079   3.313   3.201 -0.2584 -0.1115  1.8717
 6498SOL     OW19888   1.015   2.037   5.867  0.2430 -0.1323 -0.0804
 6498SOL    HW119889   0.924   2.043   5.838 -0.8554  1.3845  3.1741
 6498SOL    HW219890   1.051   2.125   5.854  0.3701  0.0024  1.0812
 6499SOL     OW19891   4.251   1.281   1.298 -0.6445 -0.6111 -0.2172
 6499SOL    HW119892   4.245   1.273   1.394 -0.3045 -0.9912 -0.2203
 6499SOL    HW219893   4.208   1.202   1.265 -1.4439 -0.1115 -0.4075
 6500SOL     OW19894   6.540   1.508   3.838  0.1493 -0.4311  0.9418
 6500SOL    HW119895   6.601   1.480   3.769  0.7909  1.0675  0.8519
 6500SOL    HW219896   6.532   1.603   3.825 -0.9910 -0.3760  1.9329
 6501SOL     OW19897   6.498   5.844   2.364 -0.5331  0.2349 -0.6474
 6501SOL    HW119898   6.559   5.868   2.433 -1.0308 -0.8037  0.1986
 6501SOL    HW219899   6.448   5.923   2.347 -0.0293  0.6530 -0.2069
 6502SOL     OW19900   1.356   1.403   3.818 -0.1759 -0.2073 -1.0841
 6502SOL    HW119901   1.320   1.378   3.733 -0.9502 -0.0173 -0.8199
 6502SOL    HW219902   1.307   1.350   3.881 -0.2525  0.3214 -0.6951
 6503SOL     OW19903   6.613   5.592   5.375  0.3937 -0.1739  0.1982
 6503SOL    HW119904   6.561   5.598   5.455  1.8705 -0.9457  1.2606
 6503SOL    HW219905   6.699   5.627   5.398  0.7616 -0.1016 -1.1531
 6504SOL     OW19906   6.342   1.458   2.252 -0.5955 -0.7094 -0.1514
 6504SOL    HW119907   6.275   1.428   2.314 -0.5022 -0.4340  0.0841
 6504SOL    HW219908   6.385   1.531   2.297 -1.3918  0.3437 -1.0560
 6505SOL     OW19909   3.009   5.177   1.211 -0.2121 -0.4327  0.3821
 6505SOL    HW119910   3.012   5.082   1.210 -1.2331 -0.5905  3.2835
 6505SOL    HW219911   3.093   5.203   1.251  0.1758 -0.0674 -0.6362
 6506SOL     OW19912   0.878   0.866   6.936 -0.2685  0.2931  0.2135
 6506SOL    HW119913   0.865   0.950   6.980 -0.3475 -0.4070  1.5864
 6506SOL    HW219914   0.808   0.810   6.969  0.4698 -0.6503  0.2324
 6507SOL     OW19915   1.677   6.936   1.938 -0.2169  0.0524  0.3536
 6507SOL    HW119916   1.599   6.949   1.991 -0.8294  0.1246 -0.5441
 6507SOL    HW219917   1.749   6.930   2.001 -0.9117  0.2436  1.1712
 6508SOL     OW19918   0.559   5.901   5.135 -0.2574 -0.0694 -0.6606
 6508SOL    HW119919   0.645   5.859   5.129 -1.2683 -2.1774 -1.6366
 6508SOL    HW219920   0.566   5.979   5.080  0.6297 -1.0197 -1.9642
 6509SOL     OW19921   2.030   5.510   1.928 -0.0307  0.6699  0.1119
 6509SOL    HW119922   2.047   5.446   1.858  0.9000  1.0678 -0.0418
 6509SOL    HW219923   2.104   5.500   1.988 -1.0678 -0.0028  1.3139
 6510SOL     OW19924   4.231   5.065   6.944  0.5208 -0.2727  0.0554
 6510SOL    HW119925   4.161   5.130   6.951 -0.2927 -0.9019 -1.7095
 6510SOL    HW219926   4.310   5.115   6.926 -0.1330  0.2387 -1.4908
 6511SOL     OW19927   0.521   2.352   3.113 -0.0419 -0.4271 -0.8592
 6511SOL    HW119928   0.511   2.406   3.191 -0.9297 -1.2280 -0.3922
 6511SOL    HW219929   0.445   2.293   3.114  0.5429 -1.2358 -1.6950
 6512SOL     OW19930   4.262   0.844   4.321  0.1593 -0.2392 -0.0874
 6512SOL    HW119931   4.286   0.890   4.402  0.2214  1.1591 -0.8663
 6512SOL    HW219932   4.305   0.759   4.328  1.7018  0.5556  0.5354
 6513SOL     OW19933   5.175   3.268   0.815  0.4580  0.0525 -0.0870
 6513SOL    HW119934   5.109   3.304   0.756 -0.0218 -1.5619 -0.5791
 6513SOL    HW219935   5.258   3.279   0.768  0.0741 -1.2573 -1.1219
 6514SOL     OW19936   4.939   3.326   0.500 -0.5291 -0.2960  0.5451
 6514SOL    HW119937   4.933   3.379   0.420  1.7375  0.1538  0.6158
 6514SOL    HW219938   4.975   3.385   0.566 -2.0429 -0.7615  1.8730
 6515SOL     OW19939   2.589   2.006   1.514  0.1199 -0.0258  0.2373
 6515SOL    HW119940   2.675   2.011   1.556  0.3118 -0.4276 -0.1045
 6515SOL    HW219941   2.533   1.962   1.578 -0.3530  1.9726  1.2883
 6516SOL     OW19942   6.101   3.003   6.168 -0.1470 -0.3071 -0.0664
 6516SOL    HW119943   6.161   3.072   6.139  0.2068 -0.0978  1.0968
 6516SOL    HW219944   6.031   3.050   6.213 -0.3684 -0.6544 -0.0437
 6517SOL     OW19945   0.814   1.841   5.318  0.0749  0.1797  0.3683
 6517SOL    HW119946   0.852   1.848   5.231  1.7533  1.1571  1.1334
 6517SOL    HW219947   0.773   1.754   5.319 -1.0792  0.6439 -1.7784
 6518SOL     OW19948   5.148   4.567   4.050 -0.1449  0.5894  0.4048
 6518SOL    HW119949   5.140   4.618   4.131 -0.8171  2.4433 -0.7483
 6518SOL    HW219950   5.168   4.478   4.079  0.1615  1.3039  2.5722
 6519SOL     OW19951   1.413   1.375   3.292  0.7552  0.3058  0.5916
 6519SOL    HW119952   1.494   1.386   3.242  0.2841 -1.8949 -0.8051
 6519SOL    HW219953   1.363   1.455   3.275  0.5907 -0.3591 -2.6164
 6520SOL     OW19954   4.340   2.198   6.792  0.2847  0.5656  0.7590
 6520SOL    HW119955   4.269   2.199   6.729  2.6757 -1.1900 -2.2510
 6520SOL    HW219956   4.347   2.288   6.823 -2.0533  1.1319 -0.1739
 6521SOL     OW19957   1.303   1.968   0.660  0.4077  0.3537  0.8108
 6521SOL    HW119958   1.376   1.956   0.599 -0.3968  1.6405 -0.4701
 6521SOL    HW219959   1.309   2.060   0.687  0.1773  0.0527  1.9301
 6522SOL     OW19960   2.433   4.940   5.029 -0.0114  0.1922 -0.3600
 6522SOL    HW119961   2.476   5.005   5.083  0.4247 -0.3296 -0.0687
 6522SOL    HW219962   2.439   4.975   4.940  1.0650  0.1112 -0.3352
 6523SOL     OW19963   1.639   0.156   3.636 -0.2268  0.0413  0.0538
 6523SOL    HW119964   1.680   0.158   3.549 -0.7319  1.4051 -0.1774
 6523SOL    HW219965   1.711   0.137   3.696  0.6697  1.8307 -0.4054
 6524SOL     OW19966   6.563   4.413   6.264  0.1523  0.0656  0.7862
 6524SOL    HW119967   6.488   4.353   6.267  1.1325 -1.1902  1.9866
 6524SOL    HW219968   6.537   4.488   6.317 -1.1566  0.8384 -0.8689
 6525SOL     OW19969   4.777   6.869   4.618  0.0409 -0.0135  0.3150
 6525SOL    HW119970   4.787   6.864   4.713 -0.4588 -0.8320  0.3318
 6525SOL    HW219971   4.694   6.826   4.600 -0.8050  1.8054 -0.3365
 6526SOL     OW19972   0.544   0.663   1.817 -0.0691 -0.1073 -0.5004
 6526SOL    HW119973   0.537   0.659   1.721  0.5604  0.2081 -0.5599
 6526SOL    HW219974   0.458   0.694   1.846 -0.7621 -1.5687 -0.8634
 6527SOL     OW19975   0.673   1.599   0.247 -0.3541  0.4552 -0.1746
 6527SOL    HW119976   0.645   1.682   0.212 -1.4907 -0.3710 -1.2876
 6527SOL    HW219977   0.653   1.604   0.341 -0.5318  1.3601 -0.2587
 6528SOL     OW19978   4.907   5.846   0.904 -0.1197 -0.8524  0.4308
 6528SOL    HW119979   4.993   5.807   0.886 -0.3005 -0.9365 -0.3114
 6528SOL    HW219980   4.866   5.852   0.817 -0.1560  0.8727  0.5498
 6529SOL     OW19981   3.402   2.051   0.293 -0.2292  0.5490 -0.3260
 6529SOL    HW119982   3.428   1.962   0.317  1.8751  0.8150 -1.3900
 6529SOL    HW219983   3.316   2.042   0.253 -1.1610 -0.6528  1.7938
 6530SOL     OW19984   5.574   5.241   6.689  0.1011 -0.1002  0.3508
 6530SOL    HW119985   5.646   5.214   6.747  0.0604 -0.5221  0.2080
 6530SOL    HW219986   5.581   5.336   6.686 -0.2316 -0.0313  1.4774
 6531SOL     OW19987   3.809   3.295   1.946  0.3246  0.5518  0.3552
 6531SOL    HW119988   3.872   3.366   1.955 -1.2617  2.1101 -0.3274
 6531SOL    HW219989   3.760   3.295   2.029 -0.1821  0.7745  0.0614
 6532SOL     OW19990   4.645   3.714   0.750 -0.9218  0.0260  0.2465
 6532SOL    HW119991   4.697   3.725   0.831 -2.4150  0.4332  1.1832
 6532SOL    HW219992   4.694   3.764   0.684  0.1937 -0.0915  0.9436
 6533SOL     OW19993   5.667   1.283   1.226  0.1881 -0.2301  0.1717
 6533SOL    HW119994   5.648   1.262   1.135  2.0785 -1.2816 -0.0381
 6533SOL    HW219995   5.668   1.198   1.270 -2.1702  0.3475  1.5556
 6534SOL     OW19996   0.344   2.177   4.125  0.1456  0.1428  0.2078
 6534SOL    HW119997   0.289   2.237   4.176  0.7989 -0.0338  1.1489
 6534SOL    HW219998   0.410   2.234   4.084 -0.1219  0.2327 -0.1049
 6535SOL     OW19999   4.976   5.951   6.151  0.2988  0.0399  0.1544
 6535SOL    HW120000   4.929   5.868   6.153  0.2882  0.0461  0.1659
 6535SOL    HW220001   5.044   5.940   6.085  0.2765  0.0336  0.1330
 6536SOL     OW20002   3.356   1.169   4.508  0.0722 -0.7366 -0.4828
 6536SOL    HW120003   3.346   1.242   4.447  0.9378 -0.5849 -0.4591
 6536SOL    HW220004   3.316   1.200   4.589  0.1315 -0.4164 -0.5750
 6537SOL     OW20005   2.788   0.815   5.382 -0.1220  0.5994  0.8466
 6537SOL    HW120006   2.817   0.904   5.360  3.6421 -0.9441 -1.2002
 6537SOL    HW220007   2.848   0.786   5.450  0.4532 -1.2090 -0.3589
 6538SOL     OW20008   5.655   1.821   4.666  0.4704  0.1163 -0.1932
 6538SOL    HW120009   5.617   1.906   4.688 -0.3693 -0.0167 -1.0305
 6538SOL    HW220010   5.749   1.838   4.660  0.5173  0.5756  1.4112
 6539SOL     OW20011   2.668   5.355   5.485 -0.5647  0.2819  0.3223
 6539SOL    HW120012   2.660   5.396   5.400 -1.3627  0.1075  0.3037
 6539SOL    HW220013   2.726   5.280   5.470 -0.9049  0.1049 -0.1195
 6540SOL     OW20014   1.067   0.659   0.317 -0.1598 -0.5752  0.2015
 6540SOL    HW120015   1.136   0.723   0.296 -0.7528  0.6933  1.8348
 6540SOL    HW220016   1.001   0.711   0.364 -2.0116 -1.8526 -0.8799
 6541SOL     OW20017   1.248   4.532   2.953 -0.4517  0.2664 -0.0746
 6541SOL    HW120018   1.236   4.437   2.945 -1.3038  0.4243 -0.7259
 6541SOL    HW220019   1.222   4.551   3.043  2.2702 -0.4682  0.9722
 6542SOL     OW20020   0.493   0.246   0.213  0.1717  0.3207 -0.3442
 6542SOL    HW120021   0.532   0.293   0.287 -0.8021 -0.0749  0.4557
 6542SOL    HW220022   0.417   0.201   0.251 -0.6267  0.4753 -1.6864
 6543SOL     OW20023   3.539   4.938   2.944 -0.1125 -0.2777  0.3835
 6543SOL    HW120024   3.535   4.985   2.860  0.5155 -0.6680  0.1333
 6543SOL    HW220025   3.460   4.884   2.944  0.9551 -1.9118 -0.9441
 6544SOL     OW20026   5.039   3.536   0.334 -0.4163 -0.0438 -0.0407
 6544SOL    HW120027   5.096   3.528   0.258  1.8586  1.2486  1.3936
 6544SOL    HW220028   5.066   3.619   0.375 -0.6065 -1.2974  2.8584
 6545SOL     OW20029   5.732   1.581   2.484  0.1046 -0.2303 -0.4137
 6545SOL    HW120030   5.721   1.676   2.482 -2.3397 -0.3975  1.0083
 6545SOL    HW220031   5.643   1.547   2.498  0.9791 -2.7056 -0.4349
 6546SOL     OW20032   6.107   1.368   4.387 -0.0928 -0.5402 -0.0737
 6546SOL    HW120033   6.093   1.335   4.476 -0.0252 -0.3404  0.0103
 6546SOL    HW220034   6.160   1.446   4.399  1.6163 -1.6047 -0.4266
 6547SOL     OW20035   5.344   3.615   1.241 -0.1274  0.2527  0.7848
 6547SOL    HW120036   5.329   3.707   1.262 -2.6615  0.2119 -0.5002
 6547SOL    HW220037   5.267   3.588   1.192  2.2085 -1.5186 -2.3024
 6548SOL     OW20038   2.987   2.344   4.871  0.0198  0.1127  0.0137
 6548SOL    HW120039   2.939   2.264   4.893  0.0339 -0.1729 -0.9204
 6548SOL    HW220040   2.924   2.415   4.884 -0.2629 -0.1384  0.0105
 6549SOL     OW20041   4.390   4.188   6.776 -0.4317  0.1368 -0.4438
 6549SOL    HW120042   4.366   4.095   6.775  1.6626 -0.4737  0.1583
 6549SOL    HW220043   4.438   4.201   6.694 -1.8576  1.0739 -1.1748
 6550SOL     OW20044   2.104   4.976   4.960 -0.5280 -0.0082  0.2279
 6550SOL    HW120045   2.125   5.042   4.893 -0.2963  1.2708  1.5149
 6550SOL    HW220046   2.173   4.911   4.951  0.8143  1.2904  0.6493
 6551SOL     OW20047   3.374   3.705   6.254  0.2571  0.2014  0.3237
 6551SOL    HW120048   3.344   3.754   6.331 -1.7863 -0.1257 -0.1883
 6551SOL    HW220049   3.349   3.614   6.273 -0.5836  0.1686 -0.8360
 6552SOL     OW20050   1.720   2.190   6.367 -0.1670  0.1353  0.2482
 6552SOL    HW120051   1.652   2.167   6.431  1.2895 -4.0034  0.6663
 6552SOL    HW220052   1.687   2.156   6.284  0.4211  0.1385  0.0078
 6553SOL     OW20053   2.268   0.232   0.753  0.2450  0.7595 -0.2427
 6553SOL    HW120054   2.210   0.287   0.700 -0.0674 -0.6706 -1.4292
 6553SOL    HW220055   2.299   0.291   0.822  1.5749  3.0368 -2.6200
 6554SOL     OW20056   3.402   1.726   1.914 -0.5563 -0.0170  0.0599
 6554SOL    HW120057   3.399   1.633   1.934 -0.2919 -0.0835 -0.1984
 6554SOL    HW220058   3.345   1.767   1.979 -0.4655 -0.3307  0.3372
 6555SOL     OW20059   3.087   6.238   0.443 -0.1616 -0.2392  0.1336
 6555SOL    HW120060   3.052   6.244   0.532 -2.8999 -0.7848 -0.8035
 6555SOL    HW220061   3.110   6.329   0.421 -0.2527  0.0292  1.0817
 6556SOL     OW20062   0.205   4.488   2.927  0.0311 -0.7967 -0.0727
 6556SOL    HW120063   0.123   4.526   2.956  0.3452  0.2153 -0.4518
 6556SOL    HW220064   0.271   4.525   2.986  0.1020 -2.5316  1.0070
 6557SOL     OW20065   3.613   0.539   0.259  0.3300 -0.0655  0.0705
 6557SOL    HW120066   3.552   0.613   0.263  1.5818  1.2154 -2.2258
 6557SOL    HW220067   3.678   0.558   0.326 -0.5420 -0.2780  1.0029
 6558SOL     OW20068   4.533   1.230   2.686  0.0923 -0.0288 -0.0145
 6558SOL    HW120069   4.530   1.236   2.591 -0.2877  0.0759 -0.0003
 6558SOL    HW220070   4.476   1.300   2.716  1.2191  0.7560  0.3299
 6559SOL     OW20071   6.916   0.220   5.815 -0.1350 -0.1398 -0.1325
 6559SOL    HW120072   6.893   0.274   5.739  0.4284  1.5331  0.8373
 6559SOL    HW220073   6.987   0.268   5.858  0.8756 -2.0174  0.4080
 6560SOL     OW20074   3.034   4.626   1.299 -0.0475  0.2228 -0.2165
 6560SOL    HW120075   2.981   4.594   1.371  0.2390  1.2803  0.4795
 6560SOL    HW220076   3.101   4.559   1.286 -0.1445 -0.0021  0.4516
 6561SOL     OW20077   1.474   3.839   3.839 -0.5209  0.0323  0.1774
 6561SOL    HW120078   1.417   3.861   3.913 -1.0526 -0.8759  0.0571
 6561SOL    HW220079   1.542   3.906   3.840 -0.8137  0.3313  1.1780
 6562SOL     OW20080   1.738   6.579   2.591  0.5882 -0.2628  0.2124
 6562SOL    HW120081   1.777   6.492   2.585  2.2898  0.5511 -1.7361
 6562SOL    HW220082   1.658   6.573   2.540 -0.0601 -1.0258  1.2757
 6563SOL     OW20083   0.668   2.688   1.563 -0.0166 -0.1429 -0.1200
 6563SOL    HW120084   0.589   2.732   1.595  1.0727  0.8904  1.2998
 6563SOL    HW220085   0.661   2.692   1.467 -1.2094  0.7840 -0.0146
 6564SOL     OW20086   6.675   2.721   6.568  0.5514 -0.1482 -0.4562
 6564SOL    HW120087   6.694   2.762   6.652 -0.9755  0.5887 -0.4282
 6564SOL    HW220088   6.602   2.773   6.533 -1.3547 -2.6948 -0.5204
 6565SOL     OW20089   6.541   1.733   5.499 -0.3083 -0.0033  0.5243
 6565SOL    HW120090   6.567   1.655   5.450 -0.8234 -0.6743  1.2851
 6565SOL    HW220091   6.454   1.711   5.534 -0.4836  0.9378  0.7028
 6566SOL     OW20092   0.337   5.457   6.176 -0.2692 -0.5186 -0.1402
 6566SOL    HW120093   0.343   5.379   6.121 -1.6386 -0.4302 -0.4325
 6566SOL    HW220094   0.245   5.465   6.197 -0.5909  2.3016 -2.0340
 6567SOL     OW20095   3.002   1.039   6.780  0.3484 -0.0874  0.3099
 6567SOL    HW120096   2.947   1.069   6.708 -1.0903 -1.0699  0.9496
 6567SOL    HW220097   3.071   0.988   6.737  0.3154  0.4938 -0.4578
 6568SOL     OW20098   0.856   5.810   5.654  0.6870  0.6121  0.5082
 6568SOL    HW120099   0.778   5.792   5.705 -0.1466 -0.2072 -0.9715
 6568SOL    HW220100   0.868   5.905   5.660 -0.7253  0.8217  0.3493
 6569SOL     OW20101   3.646   5.646   0.607  0.0022  0.2468  0.1210
 6569SOL    HW120102   3.637   5.732   0.567  1.8208  1.0900  1.3611
 6569SOL    HW220103   3.593   5.651   0.687  0.0156  0.1907  0.1332
 6570SOL     OW20104   4.314   3.881   6.261  0.4201 -0.5677 -0.0274
 6570SOL    HW120105   4.371   3.952   6.289 -1.5490  1.7616 -1.4636
 6570SOL    HW220106   4.229   3.900   6.302  0.0757 -2.7463  0.4146
 6571SOL     OW20107   1.595   3.180   6.135 -0.0577 -0.2601  0.5838
 6571SOL    HW120108   1.562   3.096   6.103 -0.0909 -0.0733  0.1174
 6571SOL    HW220109   1.544   3.197   6.214 -0.0158 -0.7014  0.7083
 6572SOL     OW20110   3.266   4.517   2.886 -0.7206  0.7587  0.5132
 6572SOL    HW120111   3.231   4.507   2.974  0.6137 -0.7249  0.9066
 6572SOL    HW220112   3.340   4.576   2.896 -0.0378 -0.0865  0.5527
 6573SOL     OW20113   1.737   3.526   6.721 -0.1299  0.6491  0.0904
 6573SOL    HW120114   1.747   3.431   6.722  1.2780  0.7658  0.7907
 6573SOL    HW220115   1.643   3.541   6.725 -0.3311 -0.7238  1.0952
 6574SOL     OW20116   4.640   6.766   6.508  0.3513 -0.4519 -0.1104
 6574SOL    HW120117   4.627   6.695   6.570 -1.2988 -0.0345  0.0856
 6574SOL    HW220118   4.636   6.723   6.422  4.1553 -1.2672 -0.0460
 6575SOL     OW20119   4.333   4.860   5.955  0.2799 -0.7237 -0.1306
 6575SOL    HW120120   4.261   4.819   6.003 -0.3092 -0.7049 -0.9651
 6575SOL    HW220121   4.412   4.822   5.993 -0.1282 -0.1425  1.3534
 6576SOL     OW20122   5.031   5.209   5.063 -0.5552  0.4865  0.4274
 6576SOL    HW120123   4.999   5.126   5.098 -1.7273  0.4979 -0.5346
 6576SOL    HW220124   4.999   5.275   5.124  0.4735  0.2493  1.2563
 6577SOL     OW20125   0.344   3.191   0.206  0.3270  0.4307 -0.2468
 6577SOL    HW120126   0.262   3.235   0.228  0.2901  0.2538 -0.0349
 6577SOL    HW220127   0.326   3.148   0.122 -0.3716 -1.0997  0.6354
 6578SOL     OW20128   5.988   0.508   5.719 -0.4070 -0.3392 -0.0066
 6578SOL    HW120129   6.006   0.439   5.655  0.7450 -0.2731  0.2360
 6578SOL    HW220130   5.982   0.588   5.668  1.9850 -0.0519  0.0873
 6579SOL     OW20131   1.302   3.656   4.380 -0.0690  0.5041 -0.4586
 6579SOL    HW120132   1.391   3.620   4.371  0.0064  0.5444  0.1040
 6579SOL    HW220133   1.258   3.632   4.298  0.7074  1.1729 -1.0948
 6580SOL     OW20134   0.621   2.399   1.091  0.2281  0.0158 -0.1412
 6580SOL    HW120135   0.621   2.467   1.024 -0.4316 -0.3631 -0.5397
 6580SOL    HW220136   0.566   2.434   1.161  0.7600  0.3321  0.1188
 6581SOL     OW20137   6.506   2.640   2.829 -0.0454 -0.0027  0.0837
 6581SOL    HW120138   6.430   2.671   2.878  0.9788  1.0504  1.0441
 6581SOL    HW220139   6.501   2.685   2.745 -1.0541 -0.7624 -0.2791
 6582SOL     OW20140   4.852   1.593   4.817 -0.0491  0.2588 -0.1125
 6582SOL    HW120141   4.911   1.517   4.825  0.3947  0.6666  0.6528
 6582SOL    HW220142   4.765   1.555   4.825  0.2003 -0.0682  1.3869
 6583SOL     OW20143   5.180   2.628   1.402  0.1096 -0.6009 -0.0996
 6583SOL    HW120144   5.225   2.658   1.324  2.7170  0.0670  1.5273
 6583SOL    HW220145   5.239   2.564   1.441  0.5446  1.4326  2.9487
 6584SOL     OW20146   5.717   1.643   3.518 -0.4905  0.0389  0.2041
 6584SOL    HW120147   5.752   1.576   3.459 -3.0836 -0.6531 -0.6583
 6584SOL    HW220148   5.656   1.597   3.575 -0.8348  1.3482  0.9527
 6585SOL     OW20149   3.311   6.884   5.287  0.1104 -0.3533  0.3222
 6585SOL    HW120150   3.277   6.841   5.208  0.8598  1.0123 -0.7998
 6585SOL    HW220151   3.393   6.837   5.306 -0.0832 -0.7011  0.3047
 6586SOL     OW20152   0.007   2.626   3.542  0.3107  0.1235  0.3440
 6586SOL    HW120153   0.072   2.634   3.473 -0.2989  2.2373 -0.0448
 6586SOL    HW220154  -0.077   2.631   3.497 -0.1049  0.4384  1.1240
 6587SOL     OW20155   0.179   5.759   5.230 -0.0090  0.4776 -0.3122
 6587SOL    HW120156   0.208   5.820   5.298  3.7512  0.4036 -1.5920
 6587SOL    HW220157   0.248   5.693   5.227 -0.8325 -0.3663 -3.1131
 6588SOL     OW20158   5.641   5.500   6.668 -0.1061  0.2089 -0.2936
 6588SOL    HW120159   5.700   5.574   6.683 -0.3391  0.4838 -0.7169
 6588SOL    HW220160   5.609   5.512   6.579 -0.7593  0.0342 -0.0915
 6589SOL     OW20161   5.051   1.663   6.068  0.4849 -0.1471  0.0263
 6589SOL    HW120162   5.077   1.598   6.002 -0.2919  0.7083 -1.1532
 6589SOL    HW220163   4.994   1.614   6.127 -2.2188 -0.0690 -2.2842
 6590SOL     OW20164   4.993   0.632   0.674 -0.4862  0.3920 -0.0680
 6590SOL    HW120165   4.898   0.634   0.662 -0.5881  0.1314  0.5864
 6590SOL    HW220166   5.030   0.656   0.590 -1.1415  0.7221 -0.2593
 6591SOL     OW20167   3.157   1.015   5.706  0.7712  0.6480  0.0885
 6591SOL    HW120168   3.130   1.061   5.786  0.3773  1.3769 -0.4491
 6591SOL    HW220169   3.143   0.922   5.725  0.5375  0.8307  0.8120
 6592SOL     OW20170   4.748   4.542   3.927  0.6388 -0.0216  0.2525
 6592SOL    HW120171   4.696   4.523   4.005 -0.3033  0.5981 -0.2154
 6592SOL    HW220172   4.782   4.630   3.941  0.3247  0.1594 -0.1113
 6593SOL     OW20173   1.352   0.272   3.171  0.4294 -0.1178 -0.0933
 6593SOL    HW120174   1.327   0.194   3.221  3.1639 -1.5509 -0.7444
 6593SOL    HW220175   1.339   0.248   3.080  1.9078 -0.1192 -0.3357
 6594SOL     OW20176   1.009   4.707   6.605  0.5416  0.0337 -0.1340
 6594SOL    HW120177   1.006   4.687   6.511  1.7632  0.1105 -0.1956
 6594SOL    HW220178   0.997   4.802   6.610 -0.2175 -0.0483 -0.1489
 6595SOL     OW20179   4.560   5.995   0.201 -0.1394  0.9078 -0.6274
 6595SOL    HW120180   4.560   6.077   0.249 -0.6151 -0.2322  1.4650
 6595SOL    HW220181   4.648   5.987   0.165  1.2373  0.5812  2.4712
 6596SOL     OW20182   2.066   6.154   2.293 -0.1934 -0.8227  0.1758
 6596SOL    HW120183   2.055   6.209   2.216 -0.2496 -0.1297  0.6709
 6596SOL    HW220184   2.125   6.203   2.350  1.1923 -2.0645 -0.1140
 6597SOL     OW20185   3.794   5.579   2.254 -0.7452  0.3818  0.3454
 6597SOL    HW120186   3.870   5.551   2.306 -0.5500  0.1335 -0.0718
 6597SOL    HW220187   3.745   5.498   2.238 -0.0705  0.2253 -1.0464
 6598SOL     OW20188   6.649   5.302   4.576  0.2378  0.0352  0.0311
 6598SOL    HW120189   6.666   5.386   4.618  0.2221 -0.4470  1.0219
 6598SOL    HW220190   6.724   5.288   4.519  0.9022  0.1059  0.8644
 6599SOL     OW20191   6.555   1.986   1.258 -0.5294 -0.3912 -0.1112
 6599SOL    HW120192   6.602   2.039   1.194  0.1270  1.5794  1.8875
 6599SOL    HW220193   6.465   2.019   1.255 -0.0122  1.3205  1.4943
 6600SOL     OW20194   2.685   3.843   1.859  0.2924  0.1587 -0.2307
 6600SOL    HW120195   2.746   3.832   1.932 -1.5255  2.7114  1.8659
 6600SOL    HW220196   2.632   3.763   1.860  1.1251 -0.4022  0.3945
 6601SOL     OW20197   2.339   0.948   0.175  0.2448 -0.1914  0.1122
 6601SOL    HW120198   2.305   0.947   0.086 -0.7914  0.7482  0.4682
 6601SOL    HW220199   2.414   1.008   0.172  0.4662 -0.4838 -0.2099
 6602SOL     OW20200   4.550   0.885   4.711 -0.4196 -0.6042 -0.3691
 6602SOL    HW120201   4.592   0.947   4.771 -0.1484 -0.3811 -0.7856
 6602SOL    HW220202   4.573   0.799   4.746 -0.1422 -0.4781 -0.2352
 6603SOL     OW20203   0.779   6.556   1.648  0.5478 -0.7899 -0.1991
 6603SOL    HW120204   0.737   6.550   1.734 -0.0405  1.1980 -0.2991
 6603SOL    HW220205   0.708   6.580   1.589  1.4557  0.7388 -0.7086
 6604SOL     OW20206   2.254   4.343   0.640  0.4193 -0.2022  0.4110
 6604SOL    HW120207   2.269   4.359   0.547 -0.3932  0.5239  0.3945
 6604SOL    HW220208   2.159   4.328   0.647  0.3453  0.5645  1.2271
 6605SOL     OW20209   0.659   5.946   2.451  0.1700  0.4945  0.7715
 6605SOL    HW120210   0.745   5.908   2.431 -0.9169 -1.7767  0.1533
 6605SOL    HW220211   0.602   5.915   2.382 -1.4347  0.9647  1.8259
 6606SOL     OW20212   3.919   0.713   4.073  0.0503  0.2290 -0.5475
 6606SOL    HW120213   3.940   0.747   4.159 -1.4317 -0.7566  0.2506
 6606SOL    HW220214   3.993   0.739   4.018  0.5065  1.8236  0.7438
 6607SOL     OW20215   1.408   2.308   1.021  0.4347  0.4322 -0.0861
 6607SOL    HW120216   1.337   2.289   0.961  0.2253  1.3256 -0.1448
 6607SOL    HW220217   1.456   2.380   0.980  1.2510 -0.0161  0.0530
 6608SOL     OW20218   3.438   4.800   5.906  0.6418  0.8964 -0.1651
 6608SOL    HW120219   3.363   4.788   5.848 -0.0636  0.9623  0.7139
 6608SOL    HW220220   3.509   4.827   5.848 -0.1749  1.4435 -0.9291
 6609SOL     OW20221   2.998   3.670   0.457  0.3312 -0.1064  0.5180
 6609SOL    HW120222   3.068   3.608   0.477  1.8781  0.3978 -2.6405
 6609SOL    HW220223   2.932   3.618   0.412 -0.7842 -0.3217  2.3141
 6610SOL     OW20224   1.762   3.781   3.295  0.1479 -0.0154  0.4884
 6610SOL    HW120225   1.796   3.845   3.358 -1.6211  1.1263  0.3509
 6610SOL    HW220226   1.698   3.829   3.244 -2.9351 -2.3481  1.8182
 6611SOL     OW20227   3.861   6.594   0.763 -0.6688  0.2639  0.3326
 6611SOL    HW120228   3.779   6.597   0.713 -0.3593 -0.9918 -0.2868
 6611SOL    HW220229   3.927   6.627   0.703 -0.4271 -0.4969  0.1637
 6612SOL     OW20230   2.454   2.101   6.264  0.9984  0.8812  0.8830
 6612SOL    HW120231   2.545   2.077   6.245  0.5035 -0.1406 -0.3177
 6612SOL    HW220232   2.429   2.161   6.194  0.5139  0.5594  0.7732
 6613SOL     OW20233   6.698   5.905   0.825  1.0668  0.6304 -0.1390
 6613SOL    HW120234   6.747   5.975   0.781  1.0295  1.1604  0.6345
 6613SOL    HW220235   6.765   5.850   0.866  1.1599 -0.4930 -1.7361
 6614SOL     OW20236   4.330   5.642   1.502 -0.6174  0.2960  0.2674
 6614SOL    HW120237   4.322   5.608   1.413  1.0375 -0.3496  0.3314
 6614SOL    HW220238   4.261   5.598   1.551 -0.3006 -0.8574 -0.2855
 6615SOL     OW20239   2.212   4.644   2.417 -0.5190  0.3206 -0.4873
 6615SOL    HW120240   2.269   4.582   2.463  0.9961  1.5591 -0.5997
 6615SOL    HW220241   2.164   4.689   2.486 -0.2967  0.2525 -0.2849
 6616SOL     OW20242   6.167   5.482   0.429  0.3152 -0.2843 -0.0234
 6616SOL    HW120243   6.169   5.388   0.449  0.8717 -0.4738 -0.9261
 6616SOL    HW220244   6.139   5.487   0.338 -1.8985  0.5589  0.6322
 6617SOL     OW20245   5.342   3.705   1.927  0.2742  0.1779  0.2499
 6617SOL    HW120246   5.331   3.738   1.838  1.3671 -1.7141 -0.6643
 6617SOL    HW220247   5.426   3.741   1.956  1.3831 -1.4921 -0.6826
 6618SOL     OW20248   1.542   6.561   6.874  0.1251  0.2735  0.4318
 6618SOL    HW120249   1.572   6.620   6.944  1.9177  1.8768 -1.5538
 6618SOL    HW220250   1.597   6.484   6.883  1.3216  1.0455  0.0062
 6619SOL     OW20251   5.347   3.548   5.695  0.5174 -0.5203 -0.2068
 6619SOL    HW120252   5.384   3.635   5.677 -0.4415  0.1073  0.7371
 6619SOL    HW220253   5.333   3.510   5.608  0.9490  0.2670 -0.6367
 6620SOL     OW20254   6.006   0.976   1.477 -0.6824  0.6462 -0.3696
 6620SOL    HW120255   6.065   0.963   1.551  0.0416 -0.5326 -1.1125
 6620SOL    HW220256   6.030   1.062   1.443 -0.8486  1.0836  0.6046
 6621SOL     OW20257   0.186   6.553   4.889  0.0167  0.1381 -0.1323
 6621SOL    HW120258   0.149   6.561   4.977  0.2892 -0.5246  0.0430
 6621SOL    HW220259   0.237   6.472   4.891  0.1804  0.2165 -0.8444
 6622SOL     OW20260   5.917   5.609   6.798  0.4646 -0.0182  0.7540
 6622SOL    HW120261   5.975   5.662   6.853  1.5729  0.5232 -0.8569
 6622SOL    HW220262   5.940   5.634   6.708 -0.9698 -1.1859  0.0212
 6623SOL     OW20263   5.446   1.300   6.787 -0.4841  0.1125  0.3452
 6623SOL    HW120264   5.394   1.368   6.744 -0.0503 -1.6690 -3.3796
 6623SOL    HW220265   5.390   1.222   6.785  0.9136 -0.9093 -0.3316
 6624SOL     OW20266   0.245   4.600   0.989  0.4069 -1.1181 -0.2501
 6624SOL    HW120267   0.196   4.651   0.923  2.6920  0.0912 -1.1270
 6624SOL    HW220268   0.234   4.650   1.070 -0.2744 -1.1878 -0.2893
 6625SOL     OW20269   0.380   5.452   4.979  0.1310 -0.3319  0.1773
 6625SOL    HW120270   0.327   5.372   4.979  0.0958 -0.3375 -1.3046
 6625SOL    HW220271   0.360   5.494   5.063  1.1478 -2.4962  1.5865
 6626SOL     OW20272   6.442   1.385   4.837 -0.6361 -0.1226 -0.2150
 6626SOL    HW120273   6.398   1.363   4.919  1.7384 -1.4864  0.7950
 6626SOL    HW220274   6.461   1.301   4.796  2.8107  0.1825  0.4645
 6627SOL     OW20275   2.473   0.059   4.408 -0.2419  0.1069  0.3603
 6627SOL    HW120276   2.562   0.024   4.408 -0.1289  0.3532  1.2811
 6627SOL    HW220277   2.447   0.056   4.500 -0.3067  2.1947  0.4662
 6628SOL     OW20278   4.000   5.547   1.253 -0.1785 -0.3898  0.3513
 6628SOL    HW120279   4.068   5.494   1.212  0.0563  0.5667 -0.5096
 6628SOL    HW220280   4.027   5.637   1.239 -0.6357 -0.0201  1.7050
 6629SOL     OW20281   2.436   3.256   5.423 -0.0452 -0.1430 -0.1882
 6629SOL    HW120282   2.498   3.303   5.367  0.5168  1.1031  1.3832
 6629SOL    HW220283   2.368   3.321   5.443 -0.1889 -0.5316  0.6305
 6630SOL     OW20284   0.597   1.067   6.019 -0.7278  0.2624  0.0873
 6630SOL    HW120285   0.675   1.022   6.051 -0.0065  1.2306 -0.2700
 6630SOL    HW220286   0.531   0.997   6.010  0.0429 -0.5413  0.5204
 6631SOL     OW20287   0.675   6.178   0.150 -0.2784  0.3948 -0.0315
 6631SOL    HW120288   0.628   6.258   0.173 -0.0991  1.1027 -1.9827
 6631SOL    HW220289   0.685   6.181   0.055  0.4040 -1.5874 -0.0862
 6632SOL     OW20290   2.968   1.032   0.688  0.0829  0.1723  0.0556
 6632SOL    HW120291   2.948   1.100   0.624 -0.3281 -0.3882 -0.4286
 6632SOL    HW220292   3.063   1.025   0.686  0.0172 -0.8103 -1.5642
 6633SOL     OW20293   4.117   6.104   2.357  0.2174 -0.3403  0.4600
 6633SOL    HW120294   4.181   6.149   2.301 -1.3581  2.3938  0.6521
 6633SOL    HW220295   4.095   6.170   2.423 -2.1123 -1.5184  0.9269
 6634SOL     OW20296   3.914   5.213   3.481 -0.5165  0.1463 -0.2013
 6634SOL    HW120297   3.979   5.277   3.508 -0.5667  1.0096 -1.9504
 6634SOL    HW220298   3.850   5.263   3.431 -0.5563 -1.2110 -1.6277
 6635SOL     OW20299   0.293   6.314   0.220  0.4248 -0.0817  0.6511
 6635SOL    HW120300   0.280   6.275   0.307 -1.6651 -0.8710  0.0543
 6635SOL    HW220301   0.216   6.370   0.208  0.9754  0.4557 -0.4740
 6636SOL     OW20302   6.553   0.878   2.475  0.5771 -0.1541  0.4958
 6636SOL    HW120303   6.608   0.806   2.505 -0.5163 -1.7830 -1.1513
 6636SOL    HW220304   6.554   0.871   2.380 -0.0843  1.6418  0.3148
 6637SOL     OW20305   0.867   2.906   6.224 -0.1735  0.8097 -0.4399
 6637SOL    HW120306   0.903   2.939   6.307 -1.2831 -0.9133  0.7962
 6637SOL    HW220307   0.942   2.899   6.166  0.8563  0.8021  0.8461
 6638SOL     OW20308   2.073   4.758   3.898  0.1363 -0.0231  0.0830
 6638SOL    HW120309   2.084   4.848   3.868 -0.9066  0.6523  1.6087
 6638SOL    HW220310   1.980   4.739   3.884 -0.1125 -0.1119  1.6381
 6639SOL     OW20311   4.986   0.451   5.124  0.4143 -0.3977 -0.0423
 6639SOL    HW120312   4.913   0.479   5.069  0.1234 -1.2523 -0.0985
 6639SOL    HW220313   4.965   0.485   5.211  0.1568 -0.2820 -0.1493
 6640SOL     OW20314   1.144   6.933   3.803 -0.7851 -0.1451 -0.2651
 6640SOL    HW120315   1.161   6.963   3.892 -0.4903  0.2603 -0.4600
 6640SOL    HW220316   1.226   6.948   3.756 -0.8712 -0.5544 -0.5550
 6641SOL     OW20317   0.617   5.898   0.673 -0.0875  0.3674  0.4272
 6641SOL    HW120318   0.610   5.876   0.580  0.7838 -1.3803  0.7276
 6641SOL    HW220319   0.581   5.822   0.719 -0.7104  1.2889  1.5377
 6642SOL     OW20320   2.357   5.385   2.636 -0.1661 -0.1431  0.3288
 6642SOL    HW120321   2.290   5.434   2.586  1.3016  1.0819 -0.5318
 6642SOL    HW220322   2.384   5.316   2.576 -2.9873 -2.8581  1.9278
 6643SOL     OW20323   6.810   3.644   2.076  0.2646  0.3548  0.1522
 6643SOL    HW120324   6.743   3.622   2.141  0.2328 -0.1188 -0.0332
 6643SOL    HW220325   6.893   3.627   2.120  0.2358 -1.0186 -0.2636
 6644SOL     OW20326   4.027   5.334   6.418 -0.0819  0.2178 -1.1550
 6644SOL    HW120327   4.037   5.396   6.345 -0.4690  0.3806 -1.0755
 6644SOL    HW220328   4.104   5.348   6.473 -0.2329  0.7323 -1.0648
 6645SOL     OW20329   1.965   3.970   5.094  0.4348 -0.8692 -0.2302
 6645SOL    HW120330   1.982   3.981   5.188 -0.2495 -0.1693 -0.1752
 6645SOL    HW220331   1.997   4.051   5.055  1.3037 -1.4270 -0.6915
 6646SOL     OW20332   1.102   4.146   3.896  0.0197 -0.1948 -0.6030
 6646SOL    HW120333   1.106   4.075   3.960  1.6402 -1.1917 -1.7328
 6646SOL    HW220334   1.139   4.221   3.941  0.3693 -0.6665 -0.0899
 6647SOL     OW20335   6.241   2.817   0.520  0.5331 -0.0240  0.0628
 6647SOL    HW120336   6.276   2.830   0.431 -0.9419 -0.3048 -0.5821
 6647SOL    HW220337   6.175   2.749   0.510 -0.7099  0.9906  1.1023
 6648SOL     OW20338   1.188   5.899   2.135  0.0438 -0.6072 -0.6104
 6648SOL    HW120339   1.258   5.912   2.071 -0.7426  0.5805 -1.2717
 6648SOL    HW220340   1.108   5.901   2.084 -0.6398  0.8026  0.4368
 6649SOL     OW20341   2.119   3.877   2.761 -0.1358  0.3715 -0.2241
 6649SOL    HW120342   2.212   3.901   2.755 -0.8045  3.1627 -0.9365
 6649SOL    HW220343   2.096   3.894   2.852 -0.3304  1.3603 -0.4509
 6650SOL     OW20344   6.751   6.350   4.785 -0.0709  0.1181  0.8058
 6650SOL    HW120345   6.842   6.325   4.767 -0.8661 -1.8969 -0.8229
 6650SOL    HW220346   6.709   6.269   4.815 -1.8431  0.4399 -0.6501
 6651SOL     OW20347   2.418   2.907   0.337  0.1583 -0.7244  0.3525
 6651SOL    HW120348   2.378   2.922   0.422 -1.6246  0.8982 -0.6864
 6651SOL    HW220349   2.417   2.811   0.326  1.8023 -1.0799  2.6950
 6652SOL     OW20350   3.605   4.328   2.352 -0.1273  0.0634 -0.1830
 6652SOL    HW120351   3.563   4.244   2.331 -1.4560  0.7448 -0.3970
 6652SOL    HW220352   3.589   4.383   2.275  3.2916 -0.3284 -1.3337
 6653SOL     OW20353   1.232   6.089   1.543 -0.0804 -0.1487  0.5132
 6653SOL    HW120354   1.154   6.035   1.550  0.3381 -0.7501  0.6965
 6653SOL    HW220355   1.285   6.046   1.475 -0.6826  1.2575 -0.8939
 6654SOL     OW20356   3.609   2.345   6.735 -0.0577  0.3272 -0.3876
 6654SOL    HW120357   3.655   2.429   6.726 -0.6390  0.7531  0.4955
 6654SOL    HW220358   3.566   2.350   6.820  0.4035 -1.1371 -0.0493
 6655SOL     OW20359   0.022   1.923   5.299 -0.0418  0.2571 -0.0471
 6655SOL    HW120360   0.028   1.855   5.366 -2.1714 -0.4645 -0.5068
 6655SOL    HW220361  -0.002   1.876   5.219 -0.2071  1.4052 -0.6954
 6656SOL     OW20362   4.932   6.848   0.653 -0.5988 -0.5803  0.5790
 6656SOL    HW120363   4.878   6.914   0.609  1.0596  0.4450  0.0173
 6656SOL    HW220364   4.956   6.787   0.584  0.5435  0.0514  0.3949
 6657SOL     OW20365   4.681   2.990   5.255 -0.3838 -0.2285 -0.1847
 6657SOL    HW120366   4.675   2.912   5.311  0.0524  0.0100  0.2076
 6657SOL    HW220367   4.634   3.058   5.303  0.2399  0.0547  0.0500
 6658SOL     OW20368   3.706   3.014   4.268 -0.0451 -0.5634  0.3651
 6658SOL    HW120369   3.786   3.063   4.250 -1.0154  1.2292  0.6516
 6658SOL    HW220370   3.725   2.964   4.348  1.3730 -1.6656 -0.6170
 6659SOL     OW20371   1.377   3.212   3.048  0.5727  0.0322 -0.7080
 6659SOL    HW120372   1.351   3.293   3.093 -1.3506 -0.8731 -0.1052
 6659SOL    HW220373   1.374   3.235   2.955 -0.9075  0.4455 -0.5955
 6660SOL     OW20374   4.457   6.121   1.222  0.0841 -0.0402 -0.0419
 6660SOL    HW120375   4.479   6.074   1.142 -0.3341 -0.8328  0.3025
 6660SOL    HW220376   4.362   6.127   1.221  0.0892  0.1324  0.3028
 6661SOL     OW20377   4.543   1.804   3.151 -0.0980 -0.2599  0.2883
 6661SOL    HW120378   4.473   1.848   3.201  0.2092 -1.3085  1.7145
 6661SOL    HW220379   4.605   1.775   3.218  1.1761 -0.2864 -0.8743
 6662SOL     OW20380   3.974   6.616   3.928  0.0280 -0.1747  0.5620
 6662SOL    HW120381   3.983   6.678   4.000 -0.2073  0.6537 -0.1052
 6662SOL    HW220382   3.884   6.583   3.935 -0.2030  0.3804  0.2847
 6663SOL     OW20383   0.880   0.815   1.518  0.1075 -0.4262 -0.0673
 6663SOL    HW120384   0.947   0.844   1.456 -0.4225 -0.7358 -0.8067
 6663SOL    HW220385   0.917   0.738   1.561  0.9716  0.5001  0.9086
 6664SOL     OW20386   4.964   4.503   0.798  0.5218 -0.5408  0.1885
 6664SOL    HW120387   4.987   4.411   0.785 -0.9154 -0.7906 -0.8205
 6664SOL    HW220388   5.021   4.551   0.738  1.2730 -0.7510  0.7164
 6665SOL     OW20389   0.791   3.653   1.211  0.7150  0.2347 -0.5328
 6665SOL    HW120390   0.856   3.596   1.170  1.1031 -0.6105  1.1734
 6665SOL    HW220391   0.838   3.696   1.282 -0.4055  0.0774  0.3476
 6666SOL     OW20392   5.995   5.254   3.317  0.0425 -0.0095  0.3152
 6666SOL    HW120393   5.946   5.336   3.315  0.5904  0.3092 -0.6354
 6666SOL    HW220394   5.928   5.187   3.332 -0.7126  0.4108 -0.9667
 6667SOL     OW20395   5.784   2.803   2.598 -0.2788  0.1302 -0.1658
 6667SOL    HW120396   5.869   2.789   2.639 -0.1209 -0.9134 -0.7931
 6667SOL    HW220397   5.731   2.847   2.664  0.5305  0.1273  0.4860
 6668SOL     OW20398   1.318   4.376   4.957 -0.2723  0.1945 -1.0365
 6668SOL    HW120399   1.352   4.420   5.035  1.7645  0.3340 -1.9403
 6668SOL    HW220400   1.263   4.442   4.915 -0.3827  0.5388 -0.3679
 6669SOL     OW20401   6.593   3.296   3.466  0.0193 -0.8098  0.3266
 6669SOL    HW120402   6.506   3.298   3.426 -1.3392 -1.8157  2.9889
 6669SOL    HW220403   6.592   3.369   3.527  0.5139 -1.6348  1.3465
 6670SOL     OW20404   3.158   3.426   5.030  0.5099  0.4685  0.5023
 6670SOL    HW120405   3.200   3.510   5.045 -0.0032  0.7443  0.4186
 6670SOL    HW220406   3.206   3.364   5.086  2.6606  0.2596 -1.4730
 6671SOL     OW20407   0.281   5.980   5.393  0.0014  0.3790  0.1469
 6671SOL    HW120408   0.264   6.028   5.474  1.1583  0.6020  0.2771
 6671SOL    HW220409   0.367   5.941   5.406 -0.9193 -1.8383  0.0853
 6672SOL     OW20410   1.722   1.819   2.873  0.0170 -0.5833 -0.5838
 6672SOL    HW120411   1.658   1.748   2.864 -0.7822  0.1390 -0.7012
 6672SOL    HW220412   1.747   1.817   2.966 -0.3215 -0.7395 -0.4939
 6673SOL     OW20413   5.589   3.051   4.296  0.2839  0.6081 -0.1634
 6673SOL    HW120414   5.518   3.115   4.287 -0.2882  0.1921  1.1609
 6673SOL    HW220415   5.550   2.969   4.265  0.5740  0.6214 -0.5637
 6674SOL     OW20416   3.494   3.404   3.642 -0.0321 -0.3231  0.6407
 6674SOL    HW120417   3.455   3.398   3.729  1.3539 -0.9782  1.2575
 6674SOL    HW220418   3.515   3.313   3.619  0.1179 -0.0978 -0.1213
 6675SOL     OW20419   4.917   3.562   3.459  0.6519 -0.5272  0.6089
 6675SOL    HW120420   4.962   3.641   3.431  0.3452 -0.1979  1.0256
 6675SOL    HW220421   4.825   3.576   3.434  0.0442  0.4638  3.0822
 6676SOL     OW20422   6.249   0.385   1.773 -0.4609 -0.0505 -0.2479
 6676SOL    HW120423   6.181   0.420   1.716 -1.1426 -0.4714  0.2959
 6676SOL    HW220424   6.229   0.418   1.860 -0.9203 -1.4634  0.2143
 6677SOL     OW20425   6.238   6.929   2.121  0.1258  0.6501 -0.0178
 6677SOL    HW120426   6.248   6.895   2.032  0.0710  0.7063 -0.0459
 6677SOL    HW220427   6.174   7.000   2.112 -0.3615  0.2399  0.1720
 6678SOL     OW20428   0.203   0.320   5.932  0.7162 -0.0682  0.0487
 6678SOL    HW120429   0.279   0.359   5.888 -0.5357 -0.5691 -2.7582
 6678SOL    HW220430   0.228   0.318   6.024  2.9862  2.3012 -0.3900
 6679SOL     OW20431   6.718   5.258   0.508 -1.1368  0.1306  0.7942
 6679SOL    HW120432   6.800   5.233   0.464 -2.9651 -0.0586 -2.8734
 6679SOL    HW220433   6.718   5.354   0.505 -2.4703  0.1646 -2.5351
 6680SOL     OW20434   3.670   5.553   0.131  0.0265 -0.1750 -0.3693
 6680SOL    HW120435   3.745   5.496   0.114 -0.4611 -0.7957 -0.4844
 6680SOL    HW220436   3.654   5.597   0.048 -2.0785 -2.8732 -1.5356
 6681SOL     OW20437   3.238   0.204   0.144 -0.3490 -0.0989 -0.4655
 6681SOL    HW120438   3.331   0.192   0.164  0.1326  1.8499 -1.3235
 6681SOL    HW220439   3.221   0.144   0.071  0.3236 -0.2116 -0.5355
 6682SOL     OW20440   4.535   3.317   1.884 -0.3012  0.0946  0.4919
 6682SOL    HW120441   4.626   3.345   1.890 -0.0619 -0.2864 -0.9009
 6682SOL    HW220442   4.485   3.398   1.881  0.0953  0.3271  0.0856
 6683SOL     OW20443   6.289   5.369   1.095  0.3644  0.5581 -0.2498
 6683SOL    HW120444   6.357   5.427   1.129  0.7045 -0.0923  0.1953
 6683SOL    HW220445   6.231   5.353   1.169  0.7947 -0.4110 -0.1020
 6684SOL     OW20446   1.762   1.618   1.584 -0.0763 -0.2293  0.3714
 6684SOL    HW120447   1.791   1.529   1.565  0.6415  0.2297 -0.8738
 6684SOL    HW220448   1.829   1.654   1.641  0.5418  0.0247 -0.4844
 6685SOL     OW20449   3.960   1.547   2.030  0.7025  0.1761 -0.2967
 6685SOL    HW120450   4.040   1.598   2.042  0.4781  0.7194 -1.0133
 6685SOL    HW220451   3.890   1.612   2.027  0.1232 -0.3445  1.1309
 6686SOL     OW20452   4.665   4.441   0.956  0.2726  0.3397 -0.2712
 6686SOL    HW120453   4.671   4.482   1.043 -0.9407 -0.6183  0.3124
 6686SOL    HW220454   4.752   4.406   0.939  0.1480 -0.9135  1.3551
 6687SOL     OW20455   1.921   2.006   5.857 -0.1295  0.0034  0.4684
 6687SOL    HW120456   1.956   1.946   5.791  0.4590  0.2367  0.5607
 6687SOL    HW220457   1.962   2.091   5.837  0.6260 -0.0785  1.5556
 6688SOL     OW20458   2.935   0.325   1.865 -0.4885  0.3292 -0.1907
 6688SOL    HW120459   2.949   0.413   1.898  0.2745  0.4331 -0.7726
 6688SOL    HW220460   2.845   0.325   1.832 -1.1957  0.2989  1.5895
 6689SOL     OW20461   2.298   0.413   2.101 -0.1395  0.0755 -0.5874
 6689SOL    HW120462   2.337   0.439   2.184  0.7004  1.9001 -1.4842
 6689SOL    HW220463   2.293   0.318   2.105  0.3055  0.0963  1.3434
 6690SOL     OW20464   6.123   2.317   6.702  0.6958 -0.0223 -0.2152
 6690SOL    HW120465   6.179   2.367   6.760 -0.5748 -1.2515  2.2269
 6690SOL    HW220466   6.094   2.243   6.754 -0.5408 -1.2370 -2.4522
 6691SOL     OW20467   5.354   5.319   3.849  0.0257  0.2948 -0.3039
 6691SOL    HW120468   5.399   5.254   3.904  0.2737  1.2494  0.6649
 6691SOL    HW220469   5.333   5.272   3.768 -1.2565 -1.4956  0.9613
 6692SOL     OW20470   0.469   6.839   2.490  0.1397 -0.4286  0.6186
 6692SOL    HW120471   0.448   6.794   2.571 -0.1833 -2.0686 -0.3237
 6692SOL    HW220472   0.510   6.772   2.435  2.6122  1.2321  0.2665
 6693SOL     OW20473   0.411   1.734   3.401  0.3543  0.4425  0.5442
 6693SOL    HW120474   0.417   1.689   3.317 -0.8070  1.0710  0.1122
 6693SOL    HW220475   0.479   1.801   3.397  0.2244  0.5436  0.0687
 6694SOL     OW20476   2.723   5.129   5.937 -0.2626  0.2440  0.0326
 6694SOL    HW120477   2.750   5.049   5.981  2.3505  1.4352  0.8062
 6694SOL    HW220478   2.640   5.153   5.980  0.0994 -0.8397  1.4110
 6695SOL     OW20479   5.620   6.878   3.632  0.0771  0.7597 -0.5899
 6695SOL    HW120480   5.542   6.930   3.653  0.6628  0.6605  2.1977
 6695SOL    HW220481   5.606   6.794   3.675  1.2962  0.3764 -0.8885
 6696SOL     OW20482   4.706   0.750   3.453 -0.3933  0.4674  0.0601
 6696SOL    HW120483   4.666   0.825   3.410 -1.4221 -0.7754 -1.2315
 6696SOL    HW220484   4.642   0.722   3.518  1.2370  2.4708  2.7812
 6697SOL     OW20485   0.488   3.321   5.787  0.1888  0.1388 -0.0320
 6697SOL    HW120486   0.453   3.296   5.701 -0.1309  0.6213 -0.0472
 6697SOL    HW220487   0.413   3.314   5.846 -0.5903  3.3453 -0.4611
 6698SOL     OW20488   3.711   0.911   0.882 -0.8331  0.2050  0.2315
 6698SOL    HW120489   3.712   0.840   0.947 -0.4787 -0.3139 -0.3262
 6698SOL    HW220490   3.620   0.913   0.851 -0.7149 -0.4139 -0.1761
 6699SOL     OW20491   0.622   0.955   1.290  0.5999 -0.1431  0.4139
 6699SOL    HW120492   0.664   0.919   1.369 -1.1903 -2.0648  0.5691
 6699SOL    HW220493   0.579   1.035   1.321  0.9500 -0.2147  1.1165
 6700SOL     OW20494   5.722   6.587   6.062  0.1407 -0.3019  0.4557
 6700SOL    HW120495   5.659   6.549   6.000  0.5500  0.5689 -0.5251
 6700SOL    HW220496   5.805   6.586   6.014  0.5861 -0.1652  1.2264
 6701SOL     OW20497   2.079   4.387   6.392  0.1708  0.0458 -0.2243
 6701SOL    HW120498   2.111   4.429   6.313 -1.0316  0.4459 -0.5207
 6701SOL    HW220499   2.059   4.297   6.365  0.6888 -0.1043 -0.1225
 6702SOL     OW20500   1.860   6.755   6.646 -0.1760 -0.0852  0.6172
 6702SOL    HW120501   1.948   6.784   6.669 -0.4429 -0.2432  1.8985
 6702SOL    HW220502   1.802   6.804   6.704 -0.8039 -1.2898  1.0371
 6703SOL     OW20503   6.454   5.363   4.378  1.1413 -0.5027 -0.0931
 6703SOL    HW120504   6.490   5.372   4.466  1.0791  0.3705 -0.1512
 6703SOL    HW220505   6.524   5.321   4.327  1.1281 -1.1277  0.3937
 6704SOL     OW20506   2.388   5.817   2.908 -0.2644 -0.3969 -0.2050
 6704SOL    HW120507   2.388   5.722   2.922 -1.6333 -0.5777 -1.2849
 6704SOL    HW220508   2.313   5.849   2.958 -0.5595 -0.0584 -0.8564
 6705SOL     OW20509   1.021   1.885   3.662 -0.0095 -0.2634 -0.3061
 6705SOL    HW120510   1.101   1.936   3.671 -0.3833  0.4645 -0.9493
 6705SOL    HW220511   1.050   1.794   3.664  0.6832 -0.0333  0.6935
 6706SOL     OW20512   3.986   5.036   6.319  0.2147 -0.2642 -0.3808
 6706SOL    HW120513   4.007   4.996   6.235  0.4519 -0.4774 -0.2215
 6706SOL    HW220514   4.034   5.119   6.319 -0.8788  0.3959 -1.0310
 6707SOL     OW20515   4.067   3.956   1.051 -0.6967  0.2667  0.3479
 6707SOL    HW120516   4.066   3.947   0.955 -0.8381  0.6779  0.3054
 6707SOL    HW220517   4.119   4.035   1.066 -1.0220  0.4354  0.5885
 6708SOL     OW20518   0.278   2.055   6.935  0.2389  0.1754 -0.2665
 6708SOL    HW120519   0.294   1.989   6.868  0.8702 -0.1608  0.2011
 6708SOL    HW220520   0.198   2.027   6.979  0.8711 -0.6775  0.3845
 6709SOL     OW20521   6.484   1.598   0.562 -0.5905  0.1213  0.0767
 6709SOL    HW120522   6.558   1.655   0.581 -0.9014  1.0270 -1.2694
 6709SOL    HW220523   6.474   1.544   0.640  1.9288 -0.5212  0.0255
 6710SOL     OW20524   2.296   4.765   0.286 -0.2300 -0.4318 -1.2653
 6710SOL    HW120525   2.284   4.749   0.380  2.0493 -0.2059 -0.8812
 6710SOL    HW220526   2.249   4.847   0.269  1.5005  0.9420  0.2852
 6711SOL     OW20527   4.230   3.125   6.896 -0.4721 -0.0981  0.3255
 6711SOL    HW120528   4.295   3.173   6.843 -1.7810  1.2429 -0.1494
 6711SOL    HW220529   4.146   3.149   6.857 -1.2861 -1.5477  1.1247
 6712SOL     OW20530   1.461   5.588   0.775 -0.6984 -0.3840 -0.2824
 6712SOL    HW120531   1.527   5.545   0.830 -0.4497  0.9147  0.4511
 6712SOL    HW220532   1.387   5.603   0.833 -0.7583  0.2412 -0.5161
 6713SOL     OW20533   4.833   6.335   0.241 -0.3129 -1.1392 -0.3169
 6713SOL    HW120534   4.745   6.313   0.271  0.2629 -1.1922  1.4412
 6713SOL    HW220535   4.835   6.308   0.149 -1.5929 -2.6675  0.0733
 6714SOL     OW20536   2.748   1.601   3.682 -0.1850  0.1335 -0.4700
 6714SOL    HW120537   2.806   1.560   3.617  1.3639  1.3196  0.0947
 6714SOL    HW220538   2.666   1.552   3.675 -0.1590  0.3077 -3.4264
 6715SOL     OW20539   6.652   3.284   0.363  0.0957 -0.0589  0.0316
 6715SOL    HW120540   6.671   3.272   0.456 -2.5363  0.2805  0.6795
 6715SOL    HW220541   6.594   3.211   0.341 -0.1019  0.4152 -1.0962
 6716SOL     OW20542   3.802   5.990   6.047  0.5898 -0.0223 -0.0031
 6716SOL    HW120543   3.828   6.082   6.055  1.6679 -0.2108 -1.0228
 6716SOL    HW220544   3.865   5.943   6.101  1.1745 -0.3176 -0.9341
 6717SOL     OW20545   5.782   4.336   6.866  0.6653 -0.0955 -0.0205
 6717SOL    HW120546   5.874   4.335   6.893  1.1184  0.0865 -1.4656
 6717SOL    HW220547   5.748   4.251   6.892  0.0741  1.1692  4.1240
 6718SOL     OW20548   2.935   2.660   4.876 -0.0694 -0.1395  0.0948
 6718SOL    HW120549   2.971   2.729   4.930 -0.9726  0.2942  0.1620
 6718SOL    HW220550   2.886   2.706   4.808  0.6820 -0.6842 -0.8413
 6719SOL     OW20551   2.735   3.178   4.857 -0.2311 -0.4070 -0.1289
 6719SOL    HW120552   2.730   3.137   4.943 -3.9873 -0.3523 -0.1903
 6719SOL    HW220553   2.711   3.269   4.872  1.6182  0.2804 -0.9510
 6720SOL     OW20554   3.719   1.096   3.027 -0.4018  0.0873  0.3461
 6720SOL    HW120555   3.697   1.090   3.120  1.9046 -1.7857  0.9021
 6720SOL    HW220556   3.667   1.027   2.986  0.2014 -0.5712  0.6643
 6721SOL     OW20557   6.894   2.640   4.045  0.6446 -0.9711 -0.5219
 6721SOL    HW120558   6.832   2.586   3.995 -2.3136  3.0340 -1.6622
 6721SOL    HW220559   6.845   2.670   4.121  2.1667  0.0952  0.0924
 6722SOL     OW20560   3.740   5.630   5.724 -0.2902 -0.6133  0.2925
 6722SOL    HW120561   3.735   5.536   5.744 -0.3448 -1.1141 -1.8142
 6722SOL    HW220562   3.718   5.635   5.631  0.9656  1.3651  0.0547
 6723SOL     OW20563   5.853   0.915   3.952  0.0567 -0.1658  0.0247
 6723SOL    HW120564   5.764   0.899   3.982  0.8600 -0.7806  2.3489
 6723SOL    HW220565   5.880   0.994   3.998  0.4249  0.5511 -1.3802
 6724SOL     OW20566   2.822   3.737   1.250 -0.8533  0.4720 -0.4179
 6724SOL    HW120567   2.916   3.719   1.246 -0.8169  0.8369 -1.4852
 6724SOL    HW220568   2.783   3.654   1.276 -0.3414 -0.0416 -1.2397
 6725SOL     OW20569   1.434   1.718   2.627 -0.4110 -0.0436  0.0094
 6725SOL    HW120570   1.517   1.744   2.588  0.1082 -0.5333  0.7520
 6725SOL    HW220571   1.425   1.626   2.604 -0.9340  0.1041 -0.3830
 6726SOL     OW20572   1.201   2.077   5.508 -0.4212 -0.0811  0.8801
 6726SOL    HW120573   1.248   2.026   5.442  3.2205  1.1522  2.2747
 6726SOL    HW220574   1.213   2.027   5.590  0.7324  1.5026  1.7225
 6727SOL     OW20575   3.549   2.304   6.204  0.8338 -0.2320 -0.1294
 6727SOL    HW120576   3.550   2.210   6.223 -2.0873 -0.4719 -0.6951
 6727SOL    HW220577   3.575   2.310   6.112 -2.2801 -0.9407 -1.1630
 6728SOL     OW20578   0.625   0.032   1.981  0.3077  0.4915  0.4906
 6728SOL    HW120579   0.587   0.092   1.916  0.6648  0.8066  0.5658
 6728SOL    HW220580   0.549  -0.006   2.025  0.0027 -0.9779 -1.2007
 6729SOL     OW20581   1.650   0.551   0.702  0.2403  0.1235 -0.0369
 6729SOL    HW120582   1.654   0.593   0.616  0.3533 -0.4356 -0.3075
 6729SOL    HW220583   1.616   0.619   0.760 -2.4928 -0.2758 -1.0177
 6730SOL     OW20584   2.226   2.648   5.840  0.0113 -0.2378 -0.0553
 6730SOL    HW120585   2.244   2.681   5.752 -0.8194  2.0631  0.5581
 6730SOL    HW220586   2.265   2.561   5.842  1.9052  0.4890 -2.0048
 6731SOL     OW20587   6.372   4.676   5.445  0.1701  0.0038 -0.3557
 6731SOL    HW120588   6.343   4.689   5.354  2.1988  0.9902 -0.9304
 6731SOL    HW220589   6.304   4.717   5.498 -0.4786  0.4709 -1.5094
 6732SOL     OW20590   1.153   3.534   4.103  1.0798 -1.0720  0.0369
 6732SOL    HW120591   1.085   3.477   4.138 -0.7673  1.6436  1.2129
 6732SOL    HW220592   1.122   3.557   4.015  1.6700 -1.5980 -0.3189
 6733SOL     OW20593   1.240   3.838   2.440  0.0319 -0.4140 -0.5176
 6733SOL    HW120594   1.170   3.875   2.494  0.3636 -2.0084  1.1093
 6733SOL    HW220595   1.202   3.757   2.405  0.1455  0.1292 -1.9353
 6734SOL     OW20596   0.034   4.908   1.331  0.0026  0.0330  0.4777
 6734SOL    HW120597   0.034   4.815   1.307  2.4300  0.0918 -0.0576
 6734SOL    HW220598   0.089   4.949   1.264 -0.8110  1.8416  0.8573
 6735SOL     OW20599   5.526   4.869   2.957 -0.1982  0.0128  0.2002
 6735SOL    HW120600   5.490   4.788   2.994  2.8823 -2.3057 -1.3610
 6735SOL    HW220601   5.468   4.891   2.885 -0.2479 -1.8409 -0.3797
 6736SOL     OW20602   0.647   4.389   5.985  0.0884 -0.0432 -0.0915
 6736SOL    HW120603   0.730   4.342   5.990 -1.1835 -2.4810 -0.6179
 6736SOL    HW220604   0.613   4.388   6.074 -0.0441 -0.3086 -0.1458
 6737SOL     OW20605   1.740   5.681   5.871 -0.0445  0.9621  0.3653
 6737SOL    HW120606   1.719   5.657   5.781  2.3999  1.3274 -0.3771
 6737SOL    HW220607   1.698   5.613   5.925 -0.0448 -0.2997 -1.1683
 6738SOL     OW20608   5.758   6.333   2.416  0.3452  0.2693  0.1622
 6738SOL    HW120609   5.850   6.312   2.431 -0.0363 -0.5434  1.4687
 6738SOL    HW220610   5.753   6.428   2.430  1.3670  0.7250 -2.0991
 6739SOL     OW20611   0.094   3.293   0.281  0.7997 -0.0691  0.2657
 6739SOL    HW120612   0.017   3.243   0.254  0.8944 -0.7107  1.1468
 6739SOL    HW220613   0.082   3.306   0.375  0.7823  1.5804  0.0510
 6740SOL     OW20614   4.180   6.033   5.348 -0.1365 -0.2922 -0.1352
 6740SOL    HW120615   4.123   6.023   5.424 -0.5064  1.7423 -0.0974
 6740SOL    HW220616   4.130   5.996   5.275  0.2314 -2.2858  0.5475
 6741SOL     OW20617   2.465   3.048   0.117  0.7805 -0.3457 -0.5605
 6741SOL    HW120618   2.453   3.001   0.200 -0.2086  0.9598  0.0677
 6741SOL    HW220619   2.382   3.038   0.071  0.1408  1.7060  0.0856
 6742SOL     OW20620   2.522   0.171   6.591  0.2157  0.1591  0.1196
 6742SOL    HW120621   2.501   0.260   6.618  0.4229 -0.4130  2.3954
 6742SOL    HW220622   2.446   0.142   6.541 -0.1628  1.3498 -0.0252
 6743SOL     OW20623   2.687   4.671   6.350 -0.2473  0.0668 -0.2707
 6743SOL    HW120624   2.711   4.611   6.421 -1.2432  0.4596  0.4269
 6743SOL    HW220625   2.769   4.687   6.303  0.0448 -1.8287 -0.4844
 6744SOL     OW20626   4.974   6.783   6.366  0.0747  0.2847  0.0800
 6744SOL    HW120627   4.980   6.691   6.390 -1.6551  0.0993 -0.1158
 6744SOL    HW220628   5.055   6.822   6.399  0.7956 -1.2832  0.2142
 6745SOL     OW20629   3.140   6.384   0.007  0.9021 -0.3521  0.3631
 6745SOL    HW120630   3.235   6.382  -0.006  1.4207  0.1428  3.3381
 6745SOL    HW220631   3.117   6.297   0.040  0.6636  0.0761  1.3737
 6746SOL     OW20632   1.677   1.926   4.684  0.0776 -0.1391  0.3606
 6746SOL    HW120633   1.759   1.964   4.714 -0.3399 -1.1158  3.0109
 6746SOL    HW220634   1.701   1.839   4.651  0.2140 -0.1010  0.3613
 6747SOL     OW20635   3.167   0.769   3.840 -0.0506 -0.3609  0.1697
 6747SOL    HW120636   3.183   0.793   3.931  1.2075 -0.1765 -0.0869
 6747SOL    HW220637   3.254   0.768   3.799 -0.2086 -3.4027 -0.3136
 6748SOL     OW20638   3.495   2.179   6.540 -0.0776 -0.1046 -0.0852
 6748SOL    HW120639   3.408   2.208   6.513  0.7721  0.6516 -2.1962
 6748SOL    HW220640   3.533   2.256   6.583  0.7258  0.7508 -2.1808
 6749SOL     OW20641   3.515   5.919   6.178  0.0183  0.3737  0.0694
 6749SOL    HW120642   3.514   5.963   6.263  0.6298  0.3491  0.0920
 6749SOL    HW220643   3.597   5.948   6.137  0.5185 -0.8521  0.1496
 6750SOL     OW20644   1.959   5.029   6.625 -0.1609  0.3000  0.6263
 6750SOL    HW120645   2.008   4.970   6.568 -0.4940 -0.5307  1.1886
 6750SOL    HW220646   2.023   5.096   6.650  0.3421 -0.0623  0.3279
 6751SOL     OW20647   2.816   4.964   0.646  0.1682  0.1109 -0.4516
 6751SOL    HW120648   2.892   5.015   0.673 -0.5299  0.5943  0.6814
 6751SOL    HW220649   2.766   4.951   0.726 -1.2942  0.3772 -1.2878
 6752SOL     OW20650   0.490   5.027   1.602 -0.1588 -0.2842 -0.3052
 6752SOL    HW120651   0.517   4.937   1.620  0.4026  0.0039  0.3234
 6752SOL    HW220652   0.403   5.018   1.562 -0.7277 -1.0289  1.0319
 6753SOL     OW20653   0.387   1.614   2.243  0.1165 -0.3311 -0.8344
 6753SOL    HW120654   0.316   1.585   2.186 -0.3428  1.1708 -1.0768
 6753SOL    HW220655   0.462   1.626   2.184  0.2822 -0.8821 -0.7470
 6754SOL     OW20656   2.248   3.196   2.195 -0.5193 -0.0514 -0.5936
 6754SOL    HW120657   2.277   3.233   2.111  1.7104  1.3229  0.6845
 6754SOL    HW220658   2.284   3.107   2.195  2.9782  1.1930  0.4005
 6755SOL     OW20659   1.026   6.916   5.330 -0.1757 -0.0682 -0.4521
 6755SOL    HW120660   1.098   6.857   5.355 -0.6924 -0.1864  0.8447
 6755SOL    HW220661   0.980   6.933   5.412 -0.8639  1.0487 -1.0479
 6756SOL     OW20662   5.794   0.670   0.680 -0.4943 -0.4970 -0.4624
 6756SOL    HW120663   5.788   0.697   0.588 -0.0667 -0.0369 -0.3591
 6756SOL    HW220664   5.828   0.747   0.725  0.9151 -1.2535 -0.1756
 6757SOL     OW20665   4.375   2.436   5.807 -0.5280 -0.4054 -0.3033
 6757SOL    HW120666   4.451   2.409   5.756  0.4553  0.4066  0.6933
 6757SOL    HW220667   4.375   2.531   5.803 -1.9117 -0.4024 -0.8542
 6758SOL     OW20668   4.345   2.960   4.648  0.7136 -0.1438 -0.4208
 6758SOL    HW120669   4.325   2.876   4.690  0.6356 -0.2874 -0.7468
 6758SOL    HW220670   4.316   2.949   4.558 -1.8915  1.1864  0.1806
 6759SOL     OW20671   3.839   4.013   1.500  0.4022  0.1517 -0.3260
 6759SOL    HW120672   3.762   4.050   1.543  0.3198  0.2039 -0.5163
 6759SOL    HW220673   3.857   4.073   1.427  0.4157 -0.0452 -0.4876
 6760SOL     OW20674   4.960   1.660   3.946 -0.5637  0.1780 -0.2469
 6760SOL    HW120675   5.039   1.711   3.961  0.1096 -0.0819 -2.4244
 6760SOL    HW220676   4.888   1.721   3.959  0.1123  1.0042 -0.3359
 6761SOL     OW20677   1.961   0.279   5.504  0.4789  0.2518  0.3191
 6761SOL    HW120678   2.000   0.365   5.484  0.3033  0.3112  0.2276
 6761SOL    HW220679   1.964   0.273   5.600 -1.1578  1.1466  0.4516
 6762SOL     OW20680   5.763   2.669   3.637  0.1410 -0.0145 -0.1644
 6762SOL    HW120681   5.756   2.689   3.730 -0.7236 -2.2005  0.2896
 6762SOL    HW220682   5.857   2.671   3.619  0.5259 -1.9191  1.3539
 6763SOL     OW20683   5.247   2.044   5.198  0.1412 -0.6113 -0.6212
 6763SOL    HW120684   5.331   1.999   5.190  1.1210  0.9757  0.1004
 6763SOL    HW220685   5.249   2.111   5.129 -1.5623 -1.9757 -2.1112
 6764SOL     OW20686   0.992   5.150   4.272  0.3795  0.1266 -0.1065
 6764SOL    HW120687   0.992   5.231   4.221  2.0293  0.7528  0.7992
 6764SOL    HW220688   1.069   5.103   4.242  0.1137 -0.5439  0.2367
 6765SOL     OW20689   5.861   1.620   5.381  0.4247  0.1846  0.4398
 6765SOL    HW120690   5.789   1.678   5.405 -1.7941 -1.4772 -1.7583
 6765SOL    HW220691   5.857   1.550   5.446  1.3990  1.0342  1.4779
 6766SOL     OW20692   2.029   4.770   1.528  0.6489 -0.1194 -0.3998
 6766SOL    HW120693   2.121   4.791   1.542  0.1911  1.0620  1.1000
 6766SOL    HW220694   1.987   4.790   1.612 -1.3669  1.6909 -1.7417
 6767SOL     OW20695   2.094   4.615   0.439  0.0753  0.5885 -0.3872
 6767SOL    HW120696   2.173   4.562   0.427 -1.0899 -1.2543 -0.2883
 6767SOL    HW220697   2.037   4.590   0.366 -1.8363 -0.8607  1.4868
 6768SOL     OW20698   1.773   0.903   6.031 -0.1385  0.7081  0.6385
 6768SOL    HW120699   1.841   0.860   6.082  0.8220  0.9647 -0.3702
 6768SOL    HW220700   1.800   0.890   5.940 -0.5296  2.2806  0.2691
 6769SOL     OW20701   6.692   1.548   4.259 -1.0111  0.3536 -0.2539
 6769SOL    HW120702   6.748   1.500   4.198  0.3629 -0.8737  1.8198
 6769SOL    HW220703   6.606   1.507   4.251 -0.4603 -0.8352 -0.2731
 6770SOL     OW20704   6.605   1.858   1.807 -0.3525  0.1772 -0.2442
 6770SOL    HW120705   6.657   1.919   1.860 -0.4153  0.4428 -0.4793
 6770SOL    HW220706   6.541   1.821   1.868 -0.0244  0.0072 -0.0001
 6771SOL     OW20707   3.870   2.195   3.275 -0.2892 -0.2499 -0.3732
 6771SOL    HW120708   3.896   2.190   3.183  1.0307  2.3265 -0.2318
 6771SOL    HW220709   3.776   2.175   3.274 -0.4233  0.2087 -2.3811
 6772SOL     OW20710   3.399   0.560   3.291  0.3443 -0.0619  0.0635
 6772SOL    HW120711   3.432   0.645   3.262 -1.2270  0.8826  0.8567
 6772SOL    HW220712   3.356   0.523   3.214 -0.6957  0.8089  0.1923
 6773SOL     OW20713   0.941   2.257   4.645  0.3900 -0.4050 -0.0107
 6773SOL    HW120714   0.887   2.277   4.722  0.6809  1.7113 -0.2868
 6773SOL    HW220715   1.029   2.246   4.680  0.4444  0.1129  0.0312
 6774SOL     OW20716   3.200   0.749   5.748 -0.3502 -0.0727  0.2831
 6774SOL    HW120717   3.214   0.715   5.837  1.2328 -2.2610 -0.7050
 6774SOL    HW220718   3.264   0.702   5.695 -1.6071  0.8080 -2.1290
 6775SOL     OW20719   1.794   0.131   0.547 -0.5173 -0.0447  0.6672
 6775SOL    HW120720   1.782   0.072   0.621 -0.1085  0.0356  0.8013
 6775SOL    HW220721   1.706   0.162   0.526 -0.5499  0.5186  1.6063
 6776SOL     OW20722   3.202   1.347   2.768 -0.3871 -0.5669  0.6223
 6776SOL    HW120723   3.112   1.360   2.736 -0.3121 -0.1213  0.5746
 6776SOL    HW220724   3.240   1.284   2.707  0.8577  2.7579 -2.4683
 6777SOL     OW20725   6.211   6.170   6.124  0.3239  0.3407 -0.1112
 6777SOL    HW120726   6.150   6.219   6.180 -0.4759 -0.2649 -0.4211
 6777SOL    HW220727   6.199   6.208   6.037 -2.5118 -2.2153 -1.0152
 6778SOL     OW20728   5.352   2.440   1.996 -0.1543 -0.1540 -0.0605
 6778SOL    HW120729   5.266   2.405   1.972  0.4995 -0.7967 -1.5514
 6778SOL    HW220730   5.366   2.409   2.085 -1.7439  0.5339  0.4755
 6779SOL     OW20731   5.666   6.807   5.874  0.2542 -0.5709 -0.2531
 6779SOL    HW120732   5.572   6.793   5.882  0.1353  0.5034  0.5908
 6779SOL    HW220733   5.676   6.903   5.873  1.3764 -0.6509  0.5318
 6780SOL     OW20734   1.202   6.589   0.676  0.0848 -0.3345  0.1969
 6780SOL    HW120735   1.187   6.648   0.602 -2.2302  0.4666  1.1711
 6780SOL    HW220736   1.167   6.505   0.648  0.8101 -0.4931 -0.2263
 6781SOL     OW20737   3.940   2.468   2.139  0.2441 -0.7629 -0.2748
 6781SOL    HW120738   4.015   2.486   2.083 -0.0015  0.7883 -0.1513
 6781SOL    HW220739   3.957   2.381   2.176  0.1708 -2.0883 -3.1202
 6782SOL     OW20740   0.835   0.522   6.373 -0.2296  0.2423 -1.0948
 6782SOL    HW120741   0.895   0.449   6.354 -0.9099 -0.5172 -0.3677
 6782SOL    HW220742   0.891   0.589   6.412  0.5997  0.5458 -2.7094
 6783SOL     OW20743   5.626   5.465   2.711  0.0071  0.4440 -0.3525
 6783SOL    HW120744   5.602   5.390   2.765  1.1563 -0.2147 -0.7500
 6783SOL    HW220745   5.563   5.533   2.737 -0.3197 -0.2774  0.8374
 6784SOL     OW20746   4.956   3.713   6.525  0.2168  0.0195 -0.2329
 6784SOL    HW120747   4.973   3.619   6.530  1.2183  0.1471 -0.9018
 6784SOL    HW220748   4.928   3.728   6.434  2.0080  0.6289 -0.7333
 6785SOL     OW20749   6.707   4.197   1.679  0.2579 -0.2512  0.3614
 6785SOL    HW120750   6.691   4.265   1.745  2.2204  2.4497 -1.7207
 6785SOL    HW220751   6.773   4.140   1.718  1.8108  1.6288  0.6212
 6786SOL     OW20752   6.176   1.751   1.268  0.0003  0.9156  0.3052
 6786SOL    HW120753   6.254   1.741   1.213 -0.3325  1.5340 -0.2834
 6786SOL    HW220754   6.104   1.763   1.207 -1.2081 -3.0441  0.6275
 6787SOL     OW20755   0.980   0.008   6.745 -0.1498  0.4068  0.0124
 6787SOL    HW120756   0.991  -0.060   6.811 -1.0297 -1.3639 -1.5868
 6787SOL    HW220757   1.055  -0.003   6.686 -0.5464  0.5040 -0.5188
 6788SOL     OW20758   2.130   1.712   0.341  0.4505  0.0954  0.1844
 6788SOL    HW120759   2.206   1.682   0.291 -1.0820 -0.9546 -1.6639
 6788SOL    HW220760   2.094   1.631   0.379  0.3591  0.6075  1.2115
 6789SOL     OW20761   6.609   2.670   6.946 -0.1400  0.4395 -0.6107
 6789SOL    HW120762   6.546   2.741   6.931  0.4086  0.7916 -1.3361
 6789SOL    HW220763   6.688   2.715   6.977 -0.6368 -0.1071  1.6296
 6790SOL     OW20764   4.414   5.261   0.331  0.2643  0.0513  0.1148
 6790SOL    HW120765   4.451   5.183   0.289 -1.2413 -0.5945 -0.0670
 6790SOL    HW220766   4.373   5.229   0.411 -0.2822  0.6608  0.0886
 6791SOL     OW20767   1.184   4.368   0.909  0.2126 -0.6696 -0.2235
 6791SOL    HW120768   1.134   4.289   0.888 -1.2570  0.2751 -0.4960
 6791SOL    HW220769   1.208   4.358   1.001 -0.9682 -0.9456  0.0713
 6792SOL     OW20770   1.142   3.594   2.312 -0.4596  0.1431  0.4880
 6792SOL    HW120771   1.079   3.526   2.287  0.6636 -0.6333 -0.3164
 6792SOL    HW220772   1.161   3.640   2.230 -0.4724  0.8139  0.8551
 6793SOL     OW20773   5.408   3.771   2.887  0.6086 -0.0308 -0.1132
 6793SOL    HW120774   5.352   3.822   2.828  0.0451 -0.2994  0.1883
 6793SOL    HW220775   5.413   3.685   2.846 -0.7647 -0.5859  0.8270
 6794SOL     OW20776   2.217   6.619   6.072  0.7487  0.3490 -0.1533
 6794SOL    HW120777   2.221   6.667   5.990  0.7474  0.2863 -0.1898
 6794SOL    HW220778   2.124   6.603   6.086  0.8224 -0.6308 -0.7145
 6795SOL     OW20779   6.620   1.619   6.890  0.0033 -0.2630 -0.2596
 6795SOL    HW120780   6.588   1.709   6.900 -0.4757 -0.5110  0.4685
 6795SOL    HW220781   6.677   1.623   6.813  0.7702  0.8768  0.3328
 6796SOL     OW20782   1.184   4.458   3.410  0.0900  0.1751  0.1778
 6796SOL    HW120783   1.117   4.520   3.440 -0.3741  0.3876 -1.1972
 6796SOL    HW220784   1.226   4.426   3.490 -2.2219 -0.6117  1.1707
 6797SOL     OW20785   1.084   2.831   6.023 -0.3377  0.5704  0.1781
 6797SOL    HW120786   1.180   2.832   6.025 -0.3398  2.1446  2.3762
 6797SOL    HW220787   1.061   2.743   6.053  0.3249 -0.8959 -3.1463
 6798SOL     OW20788   4.398   6.777   2.315  0.1210 -0.4296  0.0441
 6798SOL    HW120789   4.421   6.716   2.245  0.6605  1.0673 -1.1399
 6798SOL    HW220790   4.322   6.737   2.357  0.6380 -2.0559 -0.4748
 6799SOL     OW20791   3.766   2.954   2.849 -0.0148  0.6085  0.0795
 6799SOL    HW120792   3.767   2.982   2.758 -0.0282  0.0832 -0.0850
 6799SOL    HW220793   3.767   2.859   2.845  0.7131  0.5847  0.6388
 6800SOL     OW20794   1.481   5.081   4.617 -0.4013  0.0942  0.2935
 6800SOL    HW120795   1.500   5.116   4.703 -0.3259 -0.3435  0.4565
 6800SOL    HW220796   1.388   5.101   4.603  0.1695  2.3728 -0.5724
 6801SOL     OW20797   3.196   2.573   6.864 -0.2943 -0.4735 -0.0205
 6801SOL    HW120798   3.126   2.571   6.799  0.5013  0.4143 -0.9340
 6801SOL    HW220799   3.226   2.664   6.864  1.7276 -1.1019 -0.6116
 6802SOL     OW20800   3.477   4.622   2.982 -0.4504 -0.2312  0.1769
 6802SOL    HW120801   3.556   4.588   2.940 -0.6508  0.2410 -0.5847
 6802SOL    HW220802   3.508   4.660   3.064  0.0811 -0.2374 -0.0204
 6803SOL     OW20803   6.808   5.496   3.091 -1.0206  0.1092 -0.1424
 6803SOL    HW120804   6.790   5.420   3.146 -0.8423 -0.8033 -1.3269
 6803SOL    HW220805   6.834   5.564   3.153 -0.8611 -0.8808  0.9071
 6804SOL     OW20806   1.925   2.308   6.652 -0.3209  0.3389 -0.1181
 6804SOL    HW120807   1.896   2.274   6.568  0.7457  1.3828 -0.9438
 6804SOL    HW220808   1.845   2.340   6.694 -0.8330  0.0228 -0.8365
 6805SOL     OW20809   4.827   6.638   5.019  0.1032 -0.2428  0.3423
 6805SOL    HW120810   4.861   6.564   5.070 -0.8259 -1.3997 -0.6571
 6805SOL    HW220811   4.898   6.659   4.958  1.3692  1.3842  2.2466
 6806SOL     OW20812   4.676   5.416   5.638  0.1734 -0.4196  0.3619
 6806SOL    HW120813   4.588   5.391   5.608 -0.2575  1.7465 -0.4232
 6806SOL    HW220814   4.692   5.360   5.714 -0.6048 -2.9648 -1.2186
 6807SOL     OW20815   5.791   4.877   6.091  0.0813 -0.0519 -0.5616
 6807SOL    HW120816   5.792   4.782   6.099  1.9610  0.0713  1.9494
 6807SOL    HW220817   5.723   4.906   6.152 -0.4107  0.2327 -1.2369
 6808SOL     OW20818   3.605   1.544   1.388  0.7840 -0.5260  0.6372
 6808SOL    HW120819   3.595   1.594   1.307 -1.0244 -1.3294  0.3159
 6808SOL    HW220820   3.641   1.607   1.451  0.9391  0.4768 -0.4241
 6809SOL     OW20821   0.666   1.527   0.524 -0.4699 -0.9451 -0.1166
 6809SOL    HW120822   0.587   1.480   0.551 -1.9099  2.1730  1.6718
 6809SOL    HW220823   0.732   1.499   0.587 -0.8776 -1.5955  0.0405
 6810SOL     OW20824   5.612   2.688   6.683 -0.8127  0.4095 -0.4523
 6810SOL    HW120825   5.555   2.763   6.702 -2.1157 -0.8041  0.7224
 6810SOL    HW220826   5.676   2.688   6.755 -0.4963  0.6807 -0.7316
 6811SOL     OW20827   5.125   3.872   2.187  0.2355  0.4698  0.0126
 6811SOL    HW120828   5.153   3.941   2.128  1.1081 -0.2288 -0.4148
 6811SOL    HW220829   5.149   3.791   2.142  1.8937 -0.0870  1.7664
 6812SOL     OW20830   3.852   1.464   6.291  0.0712 -0.1525 -1.4682
 6812SOL    HW120831   3.892   1.383   6.257  0.3254 -0.3453 -0.7303
 6812SOL    HW220832   3.922   1.529   6.288  0.8316 -0.7564  0.8232
 6813SOL     OW20833   0.838   0.864   2.751  0.5927 -0.5947  0.2750
 6813SOL    HW120834   0.761   0.834   2.704 -0.0205 -0.2162  1.0159
 6813SOL    HW220835   0.804   0.902   2.832  1.4797  0.4436  0.1851
 6814SOL     OW20836   4.023   4.535   4.060  0.0385  0.2142  0.0799
 6814SOL    HW120837   4.091   4.532   3.993  0.3895 -1.3850  0.4795
 6814SOL    HW220838   4.002   4.444   4.077 -0.5464  0.6159  1.6417
 6815SOL     OW20839   4.684   0.367   2.746 -0.3909  0.4679  0.0402
 6815SOL    HW120840   4.713   0.277   2.760 -1.7199  0.2229  1.4712
 6815SOL    HW220841   4.658   0.369   2.654 -0.8864 -0.8044  0.1224
 6816SOL     OW20842   0.681   0.618   4.521 -0.2053  0.1846  0.3039
 6816SOL    HW120843   0.706   0.621   4.613 -0.1195  0.1539  0.2820
 6816SOL    HW220844   0.605   0.676   4.514 -0.1359  0.2828  0.3700
 6817SOL     OW20845   3.996   0.394   0.105  0.7151  0.4632  0.2564
 6817SOL    HW120846   4.053   0.318   0.091  1.4167  1.0396 -0.0521
 6817SOL    HW220847   3.909   0.362   0.080  0.6150 -0.8522  2.0760
 6818SOL     OW20848   6.084   6.134   0.393  0.1122  0.0125  0.2857
 6818SOL    HW120849   6.002   6.086   0.402 -0.5416  0.8974 -0.8290
 6818SOL    HW220850   6.086   6.163   0.302  1.6070  0.1141  0.3269
 6819SOL     OW20851   4.114   6.558   5.482  0.0286 -0.1907  0.0374
 6819SOL    HW120852   4.095   6.643   5.522 -0.6680 -0.4073  0.1796
 6819SOL    HW220853   4.113   6.575   5.388 -0.2890 -0.0723  0.0607
 6820SOL     OW20854   2.133   3.369   4.195 -0.4223  0.1741 -0.1032
 6820SOL    HW120855   2.109   3.282   4.163 -1.0408 -0.3659  1.7145
 6820SOL    HW220856   2.228   3.367   4.203 -0.6033 -1.7178  3.3920
 6821SOL     OW20857   4.756   3.040   1.421 -0.2293 -0.1177  0.1596
 6821SOL    HW120858   4.830   3.100   1.427  1.1497 -1.7749  0.5226
 6821SOL    HW220859   4.784   2.974   1.357  0.2118 -2.8390  2.9590
 6822SOL     OW20860   6.552   0.925   2.984 -0.1181 -0.2644  0.1739
 6822SOL    HW120861   6.566   0.897   2.894  1.0636 -0.7344  0.4914
 6822SOL    HW220862   6.585   1.014   2.988 -0.3105 -0.1895  0.1108
 6823SOL     OW20863   1.467   5.630   5.328 -0.0823  0.0163 -0.2078
 6823SOL    HW120864   1.542   5.589   5.284  0.5366  0.6344  0.2526
 6823SOL    HW220865   1.412   5.556   5.354  0.7473 -0.4967  0.1288
 6824SOL     OW20866   1.068   4.960   5.680  0.1898  0.1906  0.6724
 6824SOL    HW120867   1.024   4.961   5.765 -0.9883 -0.1881  0.0861
 6824SOL    HW220868   1.039   4.878   5.639  1.1255  0.1386  0.0988
 6825SOL     OW20869   6.247   1.216   1.959  0.0653 -0.2583  0.4585
 6825SOL    HW120870   6.243   1.179   2.047 -0.7208 -0.9097  0.1562
 6825SOL    HW220871   6.162   1.195   1.920  0.5055 -0.2205 -0.5540
 6826SOL     OW20872   1.029   1.167   6.028 -0.5830  0.3766 -0.1971
 6826SOL    HW120873   1.078   1.148   6.108 -1.8487 -0.3690  0.4203
 6826SOL    HW220874   1.087   1.225   5.978  2.0187 -2.4145 -0.6591
 6827SOL     OW20875   0.906   6.487   0.068  0.1656 -0.3259  0.1157
 6827SOL    HW120876   0.966   6.562   0.075 -0.8134  0.7514 -1.9389
 6827SOL    HW220877   0.953   6.425   0.012  0.1788 -0.3729  0.1793
 6828SOL     OW20878   4.925   5.389   4.470 -0.2973 -0.1506 -0.1532
 6828SOL    HW120879   4.949   5.365   4.559  0.6054 -0.3701 -0.4464
 6828SOL    HW220880   4.844   5.342   4.453 -1.4013  1.1799  1.1236
 6829SOL     OW20881   5.727   6.527   0.352 -0.5861  0.1778  0.3847
 6829SOL    HW120882   5.667   6.560   0.419  0.4374  0.7165  1.0685
 6829SOL    HW220883   5.795   6.595   0.345 -0.8525  0.3009 -1.4627
 6830SOL     OW20884   5.792   2.625   5.982 -0.1539 -0.4042 -0.4848
 6830SOL    HW120885   5.789   2.533   5.956  0.7764 -1.1378  1.7157
 6830SOL    HW220886   5.884   2.649   5.971 -0.2776  0.0686 -0.4792
 6831SOL     OW20887   3.958   3.485   3.736 -0.2716 -0.2569  0.3468
 6831SOL    HW120888   3.903   3.552   3.694  0.8473  0.1480 -0.5276
 6831SOL    HW220889   3.896   3.421   3.770 -1.2848 -0.6021 -1.9308
 6832SOL     OW20890   5.916   0.718   5.198 -0.2048  0.0825  0.2034
 6832SOL    HW120891   5.947   0.809   5.200  1.7275 -0.5047 -0.2073
 6832SOL    HW220892   5.884   0.706   5.109 -0.1351  0.2718  0.1515
 6833SOL     OW20893   1.996   6.784   4.562  0.1525  0.4349  0.7533
 6833SOL    HW120894   2.067   6.722   4.541 -0.9490 -0.5628 -0.1556
 6833SOL    HW220895   2.022   6.866   4.520 -0.1556 -0.4741 -1.3346
 6834SOL     OW20896   6.825   1.211   5.626  0.7426  0.0806  0.4498
 6834SOL    HW120897   6.832   1.183   5.535  3.2043 -2.5301  1.2757
 6834SOL    HW220898   6.741   1.177   5.655  1.3416 -2.0441 -0.0692
 6835SOL     OW20899   6.026   3.890   2.529 -0.2362  0.4785 -0.6693
 6835SOL    HW120900   6.053   3.810   2.484  1.7182  0.5473  0.2705
 6835SOL    HW220901   6.053   3.877   2.620  0.0320  2.1548 -0.4782
 6836SOL     OW20902   2.739   1.262   6.673  0.0586 -0.2063 -0.2162
 6836SOL    HW120903   2.767   1.320   6.603 -0.3446  0.3750  0.0883
 6836SOL    HW220904   2.707   1.321   6.742  0.2094 -0.7673  0.3505
 6837SOL     OW20905   0.702   1.079   6.517  0.5708  0.3919  0.0469
 6837SOL    HW120906   0.785   1.125   6.531  0.5653  0.1655  0.8691
 6837SOL    HW220907   0.716   0.992   6.556 -0.0895  0.3931  0.2991
 6838SOL     OW20908   6.292   1.249   0.738  0.3478  0.1190 -0.5289
 6838SOL    HW120909   6.282   1.342   0.756  3.0937  0.4548 -0.2965
 6838SOL    HW220910   6.377   1.242   0.695  0.5554 -2.3623  0.1129
 6839SOL     OW20911   6.517   1.299   6.644 -0.0985 -0.1820 -0.0862
 6839SOL    HW120912   6.606   1.268   6.663  0.0905  0.9318  0.9683
 6839SOL    HW220913   6.463   1.260   6.712  0.3786  2.8279  2.2157
 6840SOL     OW20914   5.666   4.472   5.323 -0.1964 -0.0651  0.1809
 6840SOL    HW120915   5.725   4.458   5.249 -0.7858 -1.2753 -0.0915
 6840SOL    HW220916   5.699   4.414   5.392  0.4922  1.2321  0.9702
 6841SOL     OW20917   5.083   4.077   5.974  0.1493  0.4338  0.3011
 6841SOL    HW120918   5.102   4.039   6.060  0.3637 -0.2681 -0.0507
 6841SOL    HW220919   5.020   4.147   5.993 -2.2252 -1.6545  0.7257
 6842SOL     OW20920   1.598   2.039   3.412  0.4077  0.1764 -0.8967
 6842SOL    HW120921   1.574   2.113   3.469  0.9754 -0.2660 -0.0696
 6842SOL    HW220922   1.619   1.968   3.472 -1.5467 -1.1665 -1.6821
 6843SOL     OW20923   0.860   0.728   6.091 -0.4217 -0.5760 -0.3269
 6843SOL    HW120924   0.806   0.806   6.102  0.2228 -0.2774  0.9393
 6843SOL    HW220925   0.885   0.704   6.180 -1.2501 -2.7119 -0.6082
 6844SOL     OW20926   6.050   3.559   0.536 -0.0243 -0.4619  0.2036
 6844SOL    HW120927   5.992   3.492   0.500 -0.0031 -1.3515  1.7487
 6844SOL    HW220928   6.137   3.536   0.505 -0.2378 -0.1883 -0.6139
 6845SOL     OW20929   6.417   6.467   6.529  0.3377 -0.3108  0.2078
 6845SOL    HW120930   6.322   6.466   6.516  0.0811  0.6455  1.7315
 6845SOL    HW220931   6.436   6.380   6.565  0.1352 -0.6914 -0.5735
 6846SOL     OW20932   5.678   4.873   4.885  0.4252 -0.5141  0.0114
 6846SOL    HW120933   5.628   4.878   4.967 -0.7059 -1.2821 -0.6245
 6846SOL    HW220934   5.661   4.956   4.841 -0.4664 -0.8568 -0.2973
 6847SOL     OW20935   6.858   1.099   4.005 -0.5643  0.3065  0.1968
 6847SOL    HW120936   6.886   1.184   4.040  0.7149 -0.0604  0.1075
 6847SOL    HW220937   6.866   1.039   4.078  2.2138 -0.4849 -0.6582
 6848SOL     OW20938   0.765   5.449   1.441 -0.2107  0.2119  0.1529
 6848SOL    HW120939   0.726   5.407   1.517  0.0649 -1.8043 -0.7441
 6848SOL    HW220940   0.711   5.420   1.367  1.6695 -0.9155 -0.8562
 6849SOL     OW20941   0.302   1.290   6.223  0.0689 -0.4380 -0.0522
 6849SOL    HW120942   0.240   1.338   6.279 -1.0839  0.1573 -1.7790
 6849SOL    HW220943   0.364   1.251   6.285 -0.2418  1.4489  1.5624
 6850SOL     OW20944   4.107   0.936   3.803 -0.1380 -0.1699  0.1856
 6850SOL    HW120945   4.104   0.842   3.789 -2.3419  0.0959 -1.6296
 6850SOL    HW220946   4.200   0.958   3.796  0.3313 -2.0770 -0.1883
 6851SOL     OW20947   2.037   2.492   6.871 -0.0920 -0.0247  0.1014
 6851SOL    HW120948   1.945   2.507   6.892  0.1342  0.2627  0.9003
 6851SOL    HW220949   2.044   2.397   6.858 -0.4551 -0.0723  0.2644
 6852SOL     OW20950   5.966   4.136   1.383 -0.3364  0.6311  0.1919
 6852SOL    HW120951   6.015   4.083   1.445 -2.1616  1.8571  2.8618
 6852SOL    HW220952   5.991   4.226   1.404 -0.5272  1.0644 -1.3285
 6853SOL     OW20953   3.200   0.796   3.322 -0.6312  0.1314 -0.1181
 6853SOL    HW120954   3.272   0.737   3.346 -1.1891 -0.3089  0.4961
 6853SOL    HW220955   3.202   0.864   3.389 -0.5983  0.2914 -0.2797
 6854SOL     OW20956   0.759   2.531   5.115  0.0487  0.0856  0.6094
 6854SOL    HW120957   0.819   2.515   5.042 -1.1440 -1.2128 -0.1570
 6854SOL    HW220958   0.762   2.451   5.167 -1.1965 -0.1239  0.3945
 6855SOL     OW20959   5.824   1.367   4.525 -0.1556  0.5123  0.2802
 6855SOL    HW120960   5.838   1.290   4.580  0.6650  0.8635  0.5810
 6855SOL    HW220961   5.822   1.332   4.436  2.5754  0.3282  0.1870
 6856SOL     OW20962   2.393   3.258   1.563 -0.6369 -0.1998  0.4027
 6856SOL    HW120963   2.411   3.164   1.554  1.4720  0.2892 -1.1438
 6856SOL    HW220964   2.381   3.270   1.658 -0.5775 -1.9427  0.6820
 6857SOL     OW20965   4.711   4.421   0.601 -0.2994 -0.1333 -0.4696
 6857SOL    HW120966   4.723   4.390   0.691  1.1227  0.8598 -0.2720
 6857SOL    HW220967   4.740   4.348   0.547  2.3108  0.4605 -0.0227
 6858SOL     OW20968   4.062   0.212   1.785  0.8643 -0.2274 -0.3847
 6858SOL    HW120969   4.109   0.283   1.829  0.3303  0.6013 -1.1315
 6858SOL    HW220970   4.012   0.255   1.716 -0.2949 -1.2001 -0.1819
 6859SOL     OW20971   5.901   0.325   3.351 -0.6127  0.3278  0.0944
 6859SOL    HW120972   5.815   0.284   3.352 -0.5825  0.1449  2.7758
 6859SOL    HW220973   5.896   0.391   3.282 -2.4213 -0.5938 -0.7129
 6860SOL     OW20974   3.720   3.458   0.737 -0.0472 -0.1682  0.1097
 6860SOL    HW120975   3.635   3.501   0.733  0.8166  1.5530 -0.5202
 6860SOL    HW220976   3.711   3.396   0.810 -2.1061 -0.7266 -0.5229
 6861SOL     OW20977   4.201   6.367   4.125 -0.2022  0.4651 -0.2484
 6861SOL    HW120978   4.258   6.444   4.127  0.0618  0.2753 -0.4709
 6861SOL    HW220979   4.260   6.293   4.110 -0.2265 -0.0036  1.6453
 6862SOL     OW20980   5.625   6.632   0.572  0.6196 -0.3509 -0.5967
 6862SOL    HW120981   5.698   6.612   0.631  0.9302  1.8369 -0.1664
 6862SOL    HW220982   5.560   6.565   0.591  1.4379 -0.7628  0.9236
 6863SOL     OW20983   1.342   5.126   2.667 -0.6259 -0.7758 -0.3315
 6863SOL    HW120984   1.331   5.046   2.720  0.1398 -0.8976 -0.3542
 6863SOL    HW220985   1.436   5.133   2.654 -0.7906 -0.6012 -1.4673
 6864SOL     OW20986   1.099   3.221   0.918 -0.2172 -0.0928 -0.1082
 6864SOL    HW120987   1.082   3.164   0.993 -0.5312  1.5693  1.1483
 6864SOL    HW220988   1.032   3.197   0.854 -1.7367  0.3432  1.2643
 6865SOL     OW20989   5.562   1.845   6.347 -0.5713 -0.6262 -0.2247
 6865SOL    HW120990   5.612   1.821   6.268  0.4659  0.2665  0.1341
 6865SOL    HW220991   5.539   1.937   6.333 -0.1256 -0.3788  0.6382
 6866SOL     OW20992   3.455   3.565   4.711 -0.3069  0.4389  0.1671
 6866SOL    HW120993   3.430   3.655   4.689 -1.2101 -0.0072 -0.7339
 6866SOL    HW220994   3.549   3.561   4.692 -0.4554  0.9254 -0.7451
 6867SOL     OW20995   0.637   0.520   6.081 -0.6391 -0.3389  0.2560
 6867SOL    HW120996   0.609   0.513   6.173 -0.7029  0.7898  0.3484
 6867SOL    HW220997   0.695   0.596   6.081 -1.6643  0.4699 -0.8667
 6868SOL     OW20998   0.191   0.401   1.316 -0.0253 -0.2823  0.0807
 6868SOL    HW120999   0.107   0.363   1.290  1.1915 -2.7593 -0.5867
 6868SOL    HW221000   0.215   0.457   1.242 -0.6085 -0.3661 -0.1803
 6869SOL     OW21001   4.269   3.079   5.122 -0.4591  0.1614 -0.2389
 6869SOL    HW121002   4.280   3.082   5.027  0.4894 -0.6198 -0.1643
 6869SOL    HW221003   4.257   2.986   5.142  0.3644  0.1985  0.5014
 6870SOL     OW21004   6.108   1.061   4.948  0.6301  0.1785  0.2596
 6870SOL    HW121005   6.052   1.044   4.873  0.3736  0.4443  0.3887
 6870SOL    HW221006   6.127   0.974   4.985  1.8180 -0.0754 -0.8613
 6871SOL     OW21007   1.194   5.024   4.530  0.5687  0.0624  0.2979
 6871SOL    HW121008   1.119   4.967   4.516  1.1078 -0.5678 -0.1090
 6871SOL    HW221009   1.157   5.112   4.535 -0.3260 -0.3685  1.4716
 6872SOL     OW21010   3.286   5.979   2.960 -0.3378  0.1884  0.6852
 6872SOL    HW121011   3.314   6.032   2.886  0.5644  2.2399  2.3969
 6872SOL    HW221012   3.262   5.894   2.921  2.1108  0.4419 -1.6803
 6873SOL     OW21013   6.688   5.673   4.023  0.1374  0.2873 -0.0112
 6873SOL    HW121014   6.607   5.707   3.984 -0.2369 -0.3923  0.1529
 6873SOL    HW221015   6.742   5.750   4.037 -1.3336  1.0555  1.9133
 6874SOL     OW21016   4.399   1.531   4.258  0.2793  0.7251 -0.1285
 6874SOL    HW121017   4.325   1.569   4.210 -0.3335  0.0400  0.2525
 6874SOL    HW221018   4.405   1.583   4.338 -0.8004 -0.1798  0.5707
 6875SOL     OW21019   4.826   1.856   4.098 -0.6652  0.1461 -0.1887
 6875SOL    HW121020   4.845   1.941   4.059 -0.8972  0.5850  0.6372
 6875SOL    HW221021   4.732   1.858   4.116 -0.6725 -0.2882 -0.1560
 6876SOL     OW21022   4.394   5.825   0.574  0.7833 -0.2658 -0.4107
 6876SOL    HW121023   4.325   5.808   0.510 -0.2224 -2.1873  1.0979
 6876SOL    HW221024   4.439   5.741   0.585  0.2894 -0.2779  2.0708
 6877SOL     OW21025   2.905   3.172   3.888  0.0317 -0.3750 -0.3972
 6877SOL    HW121026   2.858   3.105   3.938  1.6403 -1.5652 -0.4182
 6877SOL    HW221027   2.875   3.255   3.926  0.3551 -1.1986  1.8250
 6878SOL     OW21028   2.236   2.424   5.579 -0.0063  0.3567 -0.2792
 6878SOL    HW121029   2.291   2.466   5.645  0.7462 -1.0553  0.0455
 6878SOL    HW221030   2.258   2.469   5.498  0.0288  1.2442  0.2046
 6879SOL     OW21031   4.225   3.224   1.180  0.4378  0.5111 -0.2084
 6879SOL    HW121032   4.308   3.268   1.193 -0.1495  1.3621  0.8151
 6879SOL    HW221033   4.190   3.260   1.098  0.8089  0.5611 -0.3451
 6880SOL     OW21034   5.775   5.379   0.490  0.0444 -0.0085  0.5395
 6880SOL    HW121035   5.775   5.449   0.425 -2.0960  0.2817  0.7773
 6880SOL    HW221036   5.721   5.413   0.562  0.2309 -1.3205  1.3400
 6881SOL     OW21037   1.044   3.228   1.215  0.4676 -0.1857  1.0617
 6881SOL    HW121038   1.014   3.241   1.305 -0.2984  0.9387  0.6559
 6881SOL    HW221039   0.994   3.290   1.163  1.6186 -0.1102 -0.0139
 6882SOL     OW21040   2.034   3.266   5.926  0.0648 -0.0694  0.1117
 6882SOL    HW121041   1.957   3.210   5.917 -0.2585  0.5935 -1.5012
 6882SOL    HW221042   2.005   3.337   5.984 -0.9583  0.8145 -1.4001
 6883SOL     OW21043   3.918   5.718   6.883  0.4023  0.3368 -0.3419
 6883SOL    HW121044   4.000   5.715   6.933  1.1328  0.5131 -1.4837
 6883SOL    HW221045   3.894   5.626   6.872  0.7272  0.2619 -0.4427
 6884SOL     OW21046   3.934   0.562   2.184  0.0791 -0.1187  0.3372
 6884SOL    HW121047   4.003   0.500   2.206  0.8392  0.7827  0.5788
 6884SOL    HW221048   3.866   0.548   2.251 -0.0544 -1.1069  0.0142
 6885SOL     OW21049   1.469   4.919   4.374  0.7267 -0.2883 -0.4001
 6885SOL    HW121050   1.444   5.009   4.395  1.4165  0.1806 -1.5240
 6885SOL    HW221051   1.456   4.871   4.456  0.7433  0.9136  0.3260
 6886SOL     OW21052   5.363   6.711   3.357  0.0185  0.3493  0.0260
 6886SOL    HW121053   5.286   6.695   3.411 -1.6149 -1.8166 -2.6859
 6886SOL    HW221054   5.347   6.796   3.316  0.3139  1.0520  1.3198
 6887SOL     OW21055   2.245   6.651   1.493  0.2200  0.2741 -0.6173
 6887SOL    HW121056   2.328   6.609   1.469  0.4068  0.0628  0.3799
 6887SOL    HW221057   2.184   6.579   1.507  0.5222  0.3031  1.0264
 6888SOL     OW21058   1.348   0.862   5.730 -0.0858 -0.1908  0.1409
 6888SOL    HW121059   1.387   0.928   5.787 -1.1469  0.0643  0.5921
 6888SOL    HW221060   1.267   0.902   5.698  0.7680 -0.1147 -2.0128
 6889SOL     OW21061   2.041   5.124   4.452  0.6078  0.0006  0.0837
 6889SOL    HW121062   2.121   5.147   4.500  0.7314  0.8677 -0.5163
 6889SOL    HW221063   2.005   5.050   4.500  0.4958  1.0931  1.7928
 6890SOL     OW21064   5.939   1.718   6.652 -0.3631  0.4877  0.2891
 6890SOL    HW121065   5.903   1.631   6.667 -0.2352  0.7251  2.2451
 6890SOL    HW221066   5.882   1.758   6.587 -0.6350 -0.9162 -0.3558
 6891SOL     OW21067   0.479   1.113   4.594 -0.4177 -0.1436  0.0026
 6891SOL    HW121068   0.498   1.202   4.624 -2.0305 -0.0905  0.9444
 6891SOL    HW221069   0.448   1.124   4.504 -0.6305  0.2613  0.1242
 6892SOL     OW21070   4.221   2.340   3.225  0.6096 -0.6838  0.1996
 6892SOL    HW121071   4.226   2.310   3.315 -0.6350 -0.9303  0.1972
 6892SOL    HW221072   4.167   2.419   3.229  0.4833 -0.7397 -0.3454
 6893SOL     OW21073   5.601   3.280   4.960 -0.3727  0.0512  0.5532
 6893SOL    HW121074   5.592   3.227   5.039  0.9322  0.9449  1.3313
 6893SOL    HW221075   5.696   3.290   4.949 -0.5143 -0.1038 -1.1724
 6894SOL     OW21076   2.553   6.934   6.086  0.1876  0.4138  0.0307
 6894SOL    HW121077   2.506   6.872   6.142 -1.1835 -0.0363 -1.5466
 6894SOL    HW221078   2.644   6.903   6.087 -0.1157 -0.5069  0.7569
 6895SOL     OW21079   3.191   1.329   3.764  0.1443  0.5859 -0.2204
 6895SOL    HW121080   3.141   1.263   3.813 -1.5002  1.9534  0.0324
 6895SOL    HW221081   3.282   1.304   3.778 -0.3115 -0.0389  2.2001
 6896SOL     OW21082   6.779   0.890   1.519 -0.6543  0.6068  0.0987
 6896SOL    HW121083   6.727   0.938   1.583 -0.7144  2.1236 -1.0218
 6896SOL    HW221084   6.843   0.953   1.487 -1.5292  0.3810 -2.3493
 6897SOL     OW21085   4.689   5.387   3.737  0.0645 -0.0594  0.0606
 6897SOL    HW121086   4.727   5.475   3.731 -0.1637 -0.0370 -1.3735
 6897SOL    HW221087   4.675   5.374   3.831  0.9082  1.0822  0.3768
 6898SOL     OW21088   3.818   3.735   6.015 -0.4586 -0.3763  0.2291
 6898SOL    HW121089   3.805   3.802   5.947 -0.1122  1.0554  1.5206
 6898SOL    HW221090   3.910   3.743   6.040 -0.7139 -0.4923  1.2540
 6899SOL     OW21091   6.875   2.430   2.635  0.3541 -0.3641 -0.3176
 6899SOL    HW121092   6.780   2.424   2.626  0.2317 -1.2555  1.2560
 6899SOL    HW221093   6.889   2.453   2.726  1.6793 -1.9683 -0.0752
 6900SOL     OW21094   0.915   4.413   5.667  0.3320 -0.6569  0.4623
 6900SOL    HW121095   0.861   4.335   5.651 -0.0297 -0.2474 -0.3801
 6900SOL    HW221096   0.937   4.445   5.580 -2.5414  2.2496  0.5823
 6901SOL     OW21097   5.643   6.270   1.371 -0.2285  0.4652 -0.5677
 6901SOL    HW121098   5.691   6.352   1.364  1.9340 -0.8049 -1.9889
 6901SOL    HW221099   5.680   6.228   1.449  0.0895  0.0434 -0.9343
 6902SOL     OW21100   3.544   6.552   3.328 -0.4344  0.0909  0.2489
 6902SOL    HW121101   3.519   6.603   3.250  0.0994  0.7279  0.4839
 6902SOL    HW221102   3.640   6.552   3.327 -0.4148  0.5298  1.1798
 6903SOL     OW21103   2.157   4.025   4.585 -0.4019  0.3611 -0.0678
 6903SOL    HW121104   2.148   3.943   4.633 -0.3292  0.2273 -0.2822
 6903SOL    HW221105   2.072   4.038   4.543 -1.2308  1.5889  1.8324
 6904SOL     OW21106   5.086   3.115   4.576  0.3708 -0.2280  0.1053
 6904SOL    HW121107   5.147   3.138   4.646 -0.2399 -1.5627  1.1099
 6904SOL    HW221108   5.022   3.057   4.617 -1.2120  0.5893 -1.0639
 6905SOL     OW21109   5.706   4.724   0.773  0.2809  0.1387 -0.6664
 6905SOL    HW121110   5.662   4.645   0.804  0.5731  0.5052  0.7629
 6905SOL    HW221111   5.755   4.755   0.849 -0.4653  2.1361 -0.9349
 6906SOL     OW21112   6.231   2.459   4.409  0.7017 -0.2652  0.0933
 6906SOL    HW121113   6.221   2.393   4.341 -1.7350 -0.7469  0.8331
 6906SOL    HW221114   6.294   2.421   4.470 -0.7727 -2.0312  0.5878
 6907SOL     OW21115   5.890   4.397   0.667  0.1019  0.3941 -0.2590
 6907SOL    HW121116   5.969   4.428   0.711  0.6787 -0.9999 -0.2365
 6907SOL    HW221117   5.899   4.427   0.576 -0.7206  2.6195  0.3482
 6908SOL     OW21118   1.347   0.514   4.407  0.5668  0.4732 -0.0419
 6908SOL    HW121119   1.430   0.545   4.442  0.3787  0.9262  0.0154
 6908SOL    HW221120   1.291   0.592   4.405 -0.1949 -0.0370  0.9130
 6909SOL     OW21121   0.120   1.823   2.047  0.2080 -0.0215  0.2579
 6909SOL    HW121122   0.038   1.776   2.063 -0.1073 -0.0643 -1.3228
 6909SOL    HW221123   0.189   1.758   2.064 -0.1908 -0.7940 -0.9045
 6910SOL     OW21124   4.628   1.053   0.923  0.0677  0.2922 -0.6047
 6910SOL    HW121125   4.555   1.054   0.985  1.0055  0.7546  0.5311
 6910SOL    HW221126   4.646   1.145   0.906 -0.7922  0.1742 -2.3550
 6911SOL     OW21127   6.539   6.237   1.187  0.1504 -0.6751 -0.0726
 6911SOL    HW121128   6.611   6.293   1.156  0.0234 -0.4754 -0.0115
 6911SOL    HW221129   6.460   6.290   1.173  0.3535  1.1091  4.2469
 6912SOL     OW21130   5.013   3.435   6.531 -0.0341  0.4761  0.1975
 6912SOL    HW121131   5.019   3.364   6.595  1.8252  0.3956 -0.0144
 6912SOL    HW221132   5.008   3.391   6.446  0.0559  0.6057  0.1257
 6913SOL     OW21133   5.635   0.814   2.402 -0.8488  0.1753 -0.1505
 6913SOL    HW121134   5.564   0.872   2.428 -0.5567 -0.4327  2.1793
 6913SOL    HW221135   5.713   0.869   2.404 -0.9604  0.3782 -0.8616
 6914SOL     OW21136   5.338   3.799   4.550  0.4012 -0.0644  0.0802
 6914SOL    HW121137   5.404   3.834   4.611  1.2471  0.4438 -1.0915
 6914SOL    HW221138   5.319   3.711   4.584 -0.3695  0.7869  2.0009
 6915SOL     OW21139   5.303   6.414   1.476  0.2520 -0.0180 -0.7988
 6915SOL    HW121140   5.276   6.359   1.402  0.9003 -0.7706 -0.4903
 6915SOL    HW221141   5.348   6.354   1.536 -4.1667 -0.5560  2.5174
 6916SOL     OW21142   3.089   6.450   4.862 -0.0913 -0.2967 -0.3973
 6916SOL    HW121143   3.156   6.491   4.916 -0.2918 -1.0609  0.4553
 6916SOL    HW221144   3.035   6.522   4.831  0.1189  0.1647  0.2968
 6917SOL     OW21145   6.776   0.128   2.259  0.1498 -0.3110 -0.1571
 6917SOL    HW121146   6.744   0.173   2.337  0.0580  0.1112 -0.4374
 6917SOL    HW221147   6.752   0.036   2.273 -0.1477 -0.1868  0.1660
 6918SOL     OW21148   3.908   3.950   1.986  0.2255  0.4660 -0.1187
 6918SOL    HW121149   3.930   3.862   1.955 -0.6162  0.2848 -0.2084
 6918SOL    HW221150   3.957   4.009   1.929  0.7867  0.0592 -0.0643
 6919SOL     OW21151   6.737   6.123   0.226 -0.3108 -0.0017 -0.0684
 6919SOL    HW121152   6.646   6.104   0.249 -0.3046 -0.8720 -0.7440
 6919SOL    HW221153   6.787   6.050   0.262  0.0830  0.2789 -0.0329
 6920SOL     OW21154   1.481   4.179   0.516  0.0497 -0.3929  0.0847
 6920SOL    HW121155   1.410   4.114   0.522  0.4364 -0.7526  0.9007
 6920SOL    HW221156   1.465   4.238   0.590  0.1730 -0.0333 -0.1729
 6921SOL     OW21157   0.880   3.190   0.530  0.1043  0.1813 -0.1051
 6921SOL    HW121158   0.900   3.194   0.436  0.0365  0.7525 -0.1012
 6921SOL    HW221159   0.788   3.163   0.534  0.2546 -0.3632 -0.1824
 6922SOL     OW21160   1.315   3.877   4.061 -0.5251  0.2027  0.2183
 6922SOL    HW121161   1.326   3.956   4.114 -0.3479  0.4837 -0.2383
 6922SOL    HW221162   1.233   3.839   4.093 -1.6076  1.5607 -0.8077
 6923SOL     OW21163   5.216   3.637   4.021  0.5853  0.1655 -0.1923
 6923SOL    HW121164   5.176   3.724   4.021 -0.2115 -0.1935 -0.0957
 6923SOL    HW221165   5.246   3.624   3.931  0.2551  0.3342 -0.3277
 6924SOL     OW21166   4.369   4.433   4.655  0.2465  0.1130  0.3388
 6924SOL    HW121167   4.369   4.358   4.715  1.0927 -0.2118 -0.0596
 6924SOL    HW221168   4.287   4.424   4.606 -0.3832  0.2935  1.3242
 6925SOL     OW21169   4.001   6.291   3.942  0.4123 -0.1560 -0.0834
 6925SOL    HW121170   4.068   6.296   4.010  0.5184 -1.3062 -0.0873
 6925SOL    HW221171   3.979   6.382   3.924 -0.0612  0.1761  1.9127
 6926SOL     OW21172   1.653   6.559   1.175  0.1427 -0.5252 -0.0075
 6926SOL    HW121173   1.708   6.636   1.188 -1.2248  0.6113 -0.7282
 6926SOL    HW221174   1.653   6.514   1.259 -1.2617  1.7687  1.3195
 6927SOL     OW21175   4.099   0.583   6.080  0.3628 -0.6850 -0.0036
 6927SOL    HW121176   4.086   0.653   6.016 -1.3369 -1.1972 -0.2737
 6927SOL    HW221177   4.111   0.629   6.163  0.2057 -0.0569 -0.3210
 6928SOL     OW21178   5.230   0.358   5.056  0.1423  0.1614 -0.1183
 6928SOL    HW121179   5.261   0.294   5.119  1.2555 -0.4006 -1.1928
 6928SOL    HW221180   5.137   0.371   5.078 -0.3971 -2.5357 -0.4301
 6929SOL     OW21181   1.751   2.396   3.046 -0.1009 -0.8058  0.2873
 6929SOL    HW121182   1.736   2.384   3.140 -0.2781 -1.3469  0.1935
 6929SOL    HW221183   1.691   2.335   3.004  0.1028 -0.6935 -0.1781
 6930SOL     OW21184   6.720   1.299   4.927 -0.1593  0.4272 -0.3074
 6930SOL    HW121185   6.694   1.382   4.886 -1.0136  0.3893  0.1338
 6930SOL    HW221186   6.666   1.294   5.006  0.1238 -0.4007 -0.1623
 6931SOL     OW21187   1.720   5.872   4.432  0.4038 -0.1752 -0.1257
 6931SOL    HW121188   1.796   5.826   4.466  0.1795 -1.0976 -0.8317
 6931SOL    HW221189   1.656   5.804   4.416 -0.0986  0.4370 -0.7698
 6932SOL     OW21190   0.284   3.304   2.014  0.2852 -0.1909  0.8608
 6932SOL    HW121191   0.196   3.314   2.051 -0.3363 -0.3078 -0.5375
 6932SOL    HW221192   0.280   3.349   1.930  1.7768  0.3822  1.0728
 6933SOL     OW21193   4.460   6.412   3.147 -0.6397 -0.0878 -0.5346
 6933SOL    HW121194   4.481   6.374   3.232  0.6852  2.4680  0.3844
 6933SOL    HW221195   4.400   6.484   3.166  0.2169  0.9628 -1.6305
 6934SOL     OW21196   2.501   5.530   0.082 -0.0999  0.0138  0.0750
 6934SOL    HW121197   2.538   5.458   0.135 -1.2372 -0.1611  0.6681
 6934SOL    HW221198   2.416   5.497   0.054  0.4979  0.0870 -1.9654
 6935SOL     OW21199   5.080   1.734   0.885 -0.0073  0.0233 -0.2400
 6935SOL    HW121200   5.022   1.744   0.809 -1.2880 -1.3123  0.5028
 6935SOL    HW221201   5.021   1.735   0.960  1.0928 -0.0550  0.6421
 6936SOL     OW21202   0.112   6.189   3.158  0.0695 -0.0458 -0.4341
 6936SOL    HW121203   0.121   6.224   3.069 -1.3468  1.0846 -0.1653
 6936SOL    HW221204   0.135   6.263   3.214  1.3508 -0.8667  0.1780
 6937SOL     OW21205   1.734   2.743   5.198  0.0737  0.2671  0.7709
 6937SOL    HW121206   1.705   2.652   5.199  1.1356 -0.1847 -1.3135
 6937SOL    HW221207   1.659   2.794   5.229 -0.5427 -1.3022  1.9418
 6938SOL     OW21208   6.194   4.636   2.099  0.4400  0.4707  0.3673
 6938SOL    HW121209   6.284   4.658   2.073  1.2060 -1.0988  1.4982
 6938SOL    HW221210   6.139   4.691   2.044  1.9953 -0.8249 -2.7078
 6939SOL     OW21211   6.154   0.087   1.510 -0.3636 -0.3444  0.3996
 6939SOL    HW121212   6.113   0.059   1.592 -0.3806 -1.7507 -0.0598
 6939SOL    HW221213   6.243   0.114   1.536 -0.3763 -0.7580  0.8882
 6940SOL     OW21214   3.875   2.569   3.744  0.0649 -0.0264  0.8005
 6940SOL    HW121215   3.860   2.498   3.681  2.2601 -0.5092  0.7467
 6940SOL    HW221216   3.820   2.545   3.819 -0.3406 -1.0140  0.2199
 6941SOL     OW21217   1.356   0.054   3.640 -0.0916 -0.1855 -0.2375
 6941SOL    HW121218   1.344   0.149   3.633  0.8356  0.1436  1.9817
 6941SOL    HW221219   1.451   0.041   3.640 -0.1973 -1.2853 -1.8666
 6942SOL     OW21220   5.132   6.156   1.008 -0.0533 -0.2739 -0.1709
 6942SOL    HW121221   5.210   6.143   0.954  0.2029 -0.3093  0.2071
 6942SOL    HW221222   5.067   6.189   0.947  0.3477  0.0460 -0.4315
 6943SOL     OW21223   1.841   0.275   5.131  0.3640 -0.2383  0.1167
 6943SOL    HW121224   1.896   0.213   5.083  2.0321  0.4172  1.0987
 6943SOL    HW221225   1.834   0.237   5.219  0.5462  0.4410  0.4288
 6944SOL     OW21226   5.733   0.529   2.698 -0.1274  0.2555  0.0054
 6944SOL    HW121227   5.810   0.579   2.726 -0.3382  0.7974 -0.3690
 6944SOL    HW221228   5.691   0.502   2.779  0.1708  0.4033  0.2120
 6945SOL     OW21229   1.526   6.922   3.287 -0.2934 -0.6673 -0.4731
 6945SOL    HW121230   1.504   6.939   3.195 -0.4079  0.8663 -0.1848
 6945SOL    HW221231   1.605   6.974   3.303 -0.1577 -1.0797  0.2484
 6946SOL     OW21232   0.206   2.482   5.958 -0.4071  0.4170  0.4337
 6946SOL    HW121233   0.225   2.390   5.978  2.5746  1.0846  1.2013
 6946SOL    HW221234   0.246   2.496   5.872 -0.2195  1.1619  0.6375
 6947SOL     OW21235   2.254   0.736   2.505  0.6152 -0.1128  0.1864
 6947SOL    HW121236   2.254   0.640   2.507  0.6663 -0.3095 -3.2190
 6947SOL    HW221237   2.243   0.758   2.412  0.5581  3.2061  0.8575
 6948SOL     OW21238   4.456   6.769   3.804  0.1247  0.2399  0.5315
 6948SOL    HW121239   4.433   6.678   3.787  2.1523 -0.2662  0.2570
 6948SOL    HW221240   4.407   6.791   3.884  1.8533 -2.0818  2.3768
 6949SOL     OW21241   1.533   0.217   0.034 -0.4169 -0.5419  0.3073
 6949SOL    HW121242   1.536   0.148   0.101  2.1018  0.2157  1.1030
 6949SOL    HW221243   1.503   0.295   0.081  1.5137  0.0320  0.6837
 6950SOL     OW21244   4.358   0.987   2.859  0.6294 -0.5114  0.1009
 6950SOL    HW121245   4.357   1.078   2.888 -4.3589  0.4450 -2.0815
 6950SOL    HW221246   4.422   0.984   2.788  0.4340  1.4546 -0.1934
 6951SOL     OW21247   2.144   6.491   5.331 -0.2350  0.0418 -0.8253
 6951SOL    HW121248   2.183   6.408   5.301 -1.8009 -0.9245 -0.3091
 6951SOL    HW221249   2.066   6.501   5.276 -0.6621  0.5911 -0.1192
 6952SOL     OW21250   6.245   5.216   2.546  0.1142  0.9833  0.7005
 6952SOL    HW121251   6.321   5.214   2.604  0.2892 -0.3642  0.4538
 6952SOL    HW221252   6.211   5.126   2.549 -0.1121  0.9973 -0.9586
 6953SOL     OW21253   5.338   5.038   4.781  0.4621  0.0999 -0.1592
 6953SOL    HW121254   5.318   5.069   4.693  0.6665 -0.2803 -0.3434
 6953SOL    HW221255   5.268   5.074   4.836  1.1671  1.6135 -0.2079
 6954SOL     OW21256   0.486   2.772   3.275 -0.2246  0.1488  0.2891
 6954SOL    HW121257   0.473   2.742   3.186 -1.6800  0.8890  0.2105
 6954SOL    HW221258   0.479   2.868   3.269 -2.2289  0.1367  1.4124
 6955SOL     OW21259   1.074   4.496   3.814  0.6323  0.0735 -0.2334
 6955SOL    HW121260   0.993   4.449   3.797  0.1506  0.9930 -0.5770
 6955SOL    HW221261   1.050   4.563   3.878  1.0545  0.4879 -0.4953
 6956SOL     OW21262   3.406   2.253   5.796  0.0395 -0.5694  0.3850
 6956SOL    HW121263   3.486   2.205   5.774  0.2871 -0.3136  0.7112
 6956SOL    HW221264   3.371   2.281   5.711  1.0691  0.5411  0.2992
 6957SOL     OW21265   6.817   3.826   2.390  0.4692  0.6988 -0.0810
 6957SOL    HW121266   6.799   3.918   2.374 -0.7765  0.1178 -2.6817
 6957SOL    HW221267   6.897   3.809   2.339  1.4197  0.5876  1.4094
 6958SOL     OW21268   2.420   0.129   2.120  0.0159 -0.5687  0.2765
 6958SOL    HW121269   2.373   0.048   2.100 -0.0914 -0.6043  0.6708
 6958SOL    HW221270   2.445   0.121   2.212 -0.6673  0.1669  0.5417
 6959SOL     OW21271   4.518   6.205   4.800  0.0116 -0.8577 -0.2466
 6959SOL    HW121272   4.604   6.194   4.842  0.0003 -0.3962 -0.1030
 6959SOL    HW221273   4.530   6.280   4.742 -0.4904 -0.3771  0.2710
 6960SOL     OW21274   0.104   5.438   0.883  0.2238  0.1757  0.5066
 6960SOL    HW121275   0.086   5.490   0.805 -3.8118  0.7587  1.6215
 6960SOL    HW221276   0.018   5.418   0.920  1.8353 -2.2307  3.4629
 6961SOL     OW21277   1.560   4.662   3.661 -0.1979 -0.1684  0.3583
 6961SOL    HW121278   1.491   4.604   3.695  0.5561 -1.4689 -0.2503
 6961SOL    HW221279   1.534   4.749   3.691 -2.2947 -0.5500 -0.1255
 6962SOL     OW21280   2.791   3.360   0.745 -0.0750  0.0220 -0.1444
 6962SOL    HW121281   2.736   3.365   0.824 -0.7938  0.4145 -0.6532
 6962SOL    HW221282   2.733   3.390   0.675  0.5984 -0.2056 -0.8009
 6963SOL     OW21283   2.203   1.530   1.308  0.1627  0.2047 -0.4106
 6963SOL    HW121284   2.271   1.576   1.357  0.1524  0.7262 -0.8800
 6963SOL    HW221285   2.201   1.442   1.347  2.0204 -0.2607 -1.2738
 6964SOL     OW21286   0.174   2.501   6.894 -0.1724  0.2128 -0.6323
 6964SOL    HW121287   0.221   2.511   6.811  1.5638  0.9572  0.4146
 6964SOL    HW221288   0.215   2.426   6.936 -0.9712 -0.0835 -0.3594
 6965SOL     OW21289   0.470   3.822   0.772  0.0194  0.0392 -0.5348
 6965SOL    HW121290   0.499   3.731   0.766 -0.1912 -0.0608 -0.0325
 6965SOL    HW221291   0.455   3.838   0.865  2.1853  1.2720 -0.3455
 6966SOL     OW21292   6.214   6.182   5.433  0.2234  0.1116  0.3215
 6966SOL    HW121293   6.252   6.184   5.520  0.0194  0.0110  0.4136
 6966SOL    HW221294   6.231   6.270   5.398  0.4670  0.0918  0.3899
 6967SOL     OW21295   6.476   5.358   6.483  0.0783  0.5516 -0.5067
 6967SOL    HW121296   6.412   5.323   6.421 -1.8976 -0.4113  1.8586
 6967SOL    HW221297   6.449   5.450   6.495 -0.7503  0.2363  0.2383
 6968SOL     OW21298   3.584   1.292   1.506  0.3242 -0.2690  0.0620
 6968SOL    HW121299   3.565   1.380   1.476 -0.6954 -0.2480  0.7202
 6968SOL    HW221300   3.636   1.253   1.436 -0.9966  0.1597 -1.1834
 6969SOL     OW21301   5.948   1.433   0.165 -0.6201  0.3485  0.8742
 6969SOL    HW121302   5.874   1.482   0.128 -0.1898 -0.7669 -1.7379
 6969SOL    HW221303   5.921   1.341   0.158  1.1728 -0.1242 -0.6907
 6970SOL     OW21304   2.261   6.379   3.766  0.0492  0.9089 -0.0921
 6970SOL    HW121305   2.267   6.284   3.759  0.4006  0.9597 -0.4754
 6970SOL    HW221306   2.192   6.394   3.832  1.2370  0.3788  1.3315
 6971SOL     OW21307   2.797   2.024   4.347 -0.6056  0.5427 -0.2051
 6971SOL    HW121308   2.864   2.028   4.415 -1.6466  0.9264  0.8309
 6971SOL    HW221309   2.796   2.112   4.310 -0.5701  0.5486 -0.1925
 6972SOL     OW21310   3.866   2.411   6.318  0.2188  0.0569 -0.5060
 6972SOL    HW121311   3.801   2.461   6.270  0.0989 -0.5486 -0.9848
 6972SOL    HW221312   3.816   2.358   6.380  0.3849  0.9915  0.4573
 6973SOL     OW21313   1.446   6.096   6.522 -0.5529  0.0594 -0.3393
 6973SOL    HW121314   1.444   6.189   6.498 -0.7799 -0.1777 -1.3004
 6973SOL    HW221315   1.465   6.095   6.616  0.0389  1.0608 -0.4382
 6974SOL     OW21316   1.857   1.662   5.089 -0.4167  0.1727  0.8242
 6974SOL    HW121317   1.871   1.624   5.176 -0.5651 -1.8679  0.0052
 6974SOL    HW221318   1.853   1.587   5.030  0.2327  1.5305 -1.0515
 6975SOL     OW21319   6.717   5.302   5.353  0.4883  0.0466  0.3423
 6975SOL    HW121320   6.655   5.374   5.341  2.5735  2.1002  1.3794
 6975SOL    HW221321   6.720   5.259   5.268  0.8322  2.5794 -1.0089
 6976SOL     OW21322   4.530   2.700   3.180  0.3468 -0.2778  0.2175
 6976SOL    HW121323   4.537   2.784   3.226 -1.0769 -0.0230 -0.0027
 6976SOL    HW221324   4.550   2.722   3.089 -0.6185 -0.0494  0.0520
 6977SOL     OW21325   4.664   6.476   4.642 -0.2567  0.8253 -0.0799
 6977SOL    HW121326   4.705   6.404   4.593  0.4727 -0.0128  1.7021
 6977SOL    HW221327   4.654   6.545   4.576  0.3990 -0.3506 -1.4948
 6978SOL     OW21328   0.252   2.460   5.296 -0.2975 -0.1860  0.4213
 6978SOL    HW121329   0.326   2.516   5.321 -0.9858  1.4464 -0.9229
 6978SOL    HW221330   0.175   2.515   5.312 -0.9296 -0.1422 -2.2368
 6979SOL     OW21331   0.963   1.431   5.297  0.6689 -0.7111 -0.4269
 6979SOL    HW121332   0.954   1.428   5.392  0.7401 -2.6286 -0.4412
 6979SOL    HW221333   0.893   1.489   5.268 -0.2602 -1.2031  0.7144
 6980SOL     OW21334   1.167   4.945   0.286  0.8285  0.4462  0.4990
 6980SOL    HW121335   1.235   4.890   0.247 -0.0395 -0.0335 -0.3906
 6980SOL    HW221336   1.178   4.934   0.380  2.4078  0.9172  0.3958
 6981SOL     OW21337   2.748   4.225   6.490  0.3391 -0.8896 -0.2910
 6981SOL    HW121338   2.823   4.229   6.550  0.2219 -0.0104 -0.2036
 6981SOL    HW221339   2.787   4.197   6.406  1.0623  1.1608 -0.6961
 6982SOL     OW21340   5.673   4.569   2.572  0.2084 -0.5646  0.5747
 6982SOL    HW121341   5.758   4.557   2.614 -0.1802  1.6080  2.1649
 6982SOL    HW221342   5.694   4.589   2.481  1.5403  1.1240  1.1890
 6983SOL     OW21343   4.603   4.025   1.346 -0.2561 -0.0057 -0.2444
 6983SOL    HW121344   4.643   4.097   1.298 -1.7006  0.2911 -1.0938
 6983SOL    HW221345   4.550   3.979   1.280  1.1794 -2.3187  0.0927
 6984SOL     OW21346   6.837   6.021   1.082  0.2388 -1.0586  0.3486
 6984SOL    HW121347   6.876   5.951   1.031 -1.3634 -0.4873 -1.8145
 6984SOL    HW221348   6.814   6.088   1.017 -0.0838  0.6081  2.0869
 6985SOL     OW21349   4.937   4.275   3.945  0.6718  0.2999 -0.2440
 6985SOL    HW121350   4.871   4.211   3.970  2.4364 -0.7641  2.0509
 6985SOL    HW221351   4.893   4.360   3.957 -0.5378 -0.3847  0.4133
 6986SOL     OW21352   0.230   1.730   4.942  0.6421  0.3701  0.3683
 6986SOL    HW121353   0.142   1.766   4.940  0.2259 -0.6018  0.5325
 6986SOL    HW221354   0.217   1.635   4.949  1.6966  0.2112  0.3610
 6987SOL     OW21355   5.112   2.050   3.969  0.0962 -0.3067 -0.0333
 6987SOL    HW121356   5.049   2.090   3.908  0.0710 -0.7597 -0.3119
 6987SOL    HW221357   5.069   2.057   4.055  1.1955  2.5797  0.3685
 6988SOL     OW21358   3.807   0.904   3.536  0.6395 -0.1327 -0.2792
 6988SOL    HW121359   3.812   0.955   3.617  1.3346  0.6485 -0.8023
 6988SOL    HW221360   3.737   0.945   3.486  0.9067  0.0481 -0.5121
 6989SOL     OW21361   3.428   4.135   1.366  0.2578 -0.4030 -0.7067
 6989SOL    HW121362   3.372   4.207   1.338 -0.7505 -1.4155 -1.4241
 6989SOL    HW221363   3.386   4.102   1.446  1.7289  0.9081  0.6645
 6990SOL     OW21364   2.162   2.890   1.042  0.2131  0.1952 -0.0046
 6990SOL    HW121365   2.133   2.837   0.968  0.4727  0.7082 -0.4826
 6990SOL    HW221366   2.172   2.828   1.114  0.4059 -0.3847 -0.5210
 6991SOL     OW21367   5.948   0.729   5.527 -0.3546 -0.4954 -0.3107
 6991SOL    HW121368   5.995   0.731   5.444  0.0493  1.3737 -0.0828
 6991SOL    HW221369   5.862   0.764   5.507 -0.1203  0.3512  0.1116
 6992SOL     OW21370   0.999   6.142   5.400  0.7472 -0.6883  0.2004
 6992SOL    HW121371   1.089   6.115   5.417  1.2051  0.3580 -0.4448
 6992SOL    HW221372   1.002   6.238   5.405 -0.4199 -0.6586  0.5756
 6993SOL     OW21373   0.565   1.561   5.979 -0.5739  0.1782 -0.3036
 6993SOL    HW121374   0.636   1.558   5.916  1.1052 -1.1415  1.5542
 6993SOL    HW221375   0.568   1.477   6.024 -0.6626  1.6142  2.5999
 6994SOL     OW21376   6.651   6.822   5.081 -0.7721 -0.0403  0.4777
 6994SOL    HW121377   6.651   6.909   5.040  0.2702  0.1298  0.7927
 6994SOL    HW221378   6.648   6.761   5.007 -0.8351  0.2681  0.2229
 6995SOL     OW21379   1.543   2.539   1.740 -0.1112 -0.1934  0.2335
 6995SOL    HW121380   1.596   2.619   1.739  0.4069 -0.5331  0.1138
 6995SOL    HW221381   1.606   2.468   1.755 -0.6780 -0.5055  1.2282
 6996SOL     OW21382   3.294   1.302   6.598  0.0849 -0.2150 -0.1241
 6996SOL    HW121383   3.352   1.277   6.526 -1.0426 -2.9699 -0.2128
 6996SOL    HW221384   3.352   1.308   6.674  0.7453 -1.2309 -0.5254
 6997SOL     OW21385   6.252   2.531   6.914 -0.6194  0.1531 -0.2930
 6997SOL    HW121386   6.214   2.616   6.893  0.1588  0.6230  0.1557
 6997SOL    HW221387   6.346   2.548   6.922 -0.4683 -0.7270 -0.0804
 6998SOL     OW21388   2.312   1.498   2.195 -0.0471 -0.1314 -0.5553
 6998SOL    HW121389   2.396   1.454   2.205  0.3385  0.3916 -1.4151
 6998SOL    HW221390   2.332   1.591   2.209 -0.4589  0.0084 -0.8867
 6999SOL     OW21391   2.152   1.243   0.106  0.0749 -0.3414  0.0103
 6999SOL    HW121392   2.148   1.191   0.025 -2.2787  2.7831 -2.1288
 6999SOL    HW221393   2.246   1.260   0.118  0.5188 -0.9625 -2.0593
 7000SOL     OW21394   4.354   4.911   2.426 -0.4913  0.1314 -0.7857
 7000SOL    HW121395   4.267   4.943   2.400 -1.0987  0.4490  1.4030
 7000SOL    HW221396   4.364   4.940   2.516  1.3238 -1.1170 -0.5255
 7001SOL     OW21397   4.067   2.199   3.782 -0.3861  0.7941  0.1723
 7001SOL    HW121398   4.101   2.209   3.693 -0.1181  0.1774  0.2056
 7001SOL    HW221399   3.974   2.181   3.770 -0.3619  0.7704  0.0233
 7002SOL     OW21400   2.566   2.515   1.461 -0.0296  0.2729 -0.5384
 7002SOL    HW121401   2.541   2.432   1.501 -2.1930  1.6183  1.1368
 7002SOL    HW221402   2.635   2.492   1.399 -2.1567 -3.1227 -1.9479
 7003SOL     OW21403   4.371   3.072   2.454  0.3298  0.8749  0.4054
 7003SOL    HW121404   4.403   3.002   2.397 -3.2201  0.5534 -1.4829
 7003SOL    HW221405   4.396   3.153   2.409  1.1760  0.7607  0.6458
 7004SOL     OW21406   1.527   2.849   0.039  0.2125  0.1798 -0.7572
 7004SOL    HW121407   1.450   2.811   0.082  1.1082 -0.3923  0.4056
 7004SOL    HW221408   1.601   2.816   0.090  1.2056  1.1150 -1.5547
 7005SOL     OW21409   6.365   4.200   1.314  0.7030  0.3969 -0.0864
 7005SOL    HW121410   6.351   4.108   1.333  0.2599  0.4164 -0.3218
 7005SOL    HW221411   6.405   4.235   1.394 -0.2186  0.2662  0.4475
 7006SOL     OW21412   5.837   6.015   4.146  0.0775 -0.0799 -0.3314
 7006SOL    HW121413   5.845   6.076   4.219  0.5932  0.5783 -0.9353
 7006SOL    HW221414   5.892   6.051   4.077 -1.1732 -0.1634 -1.4194
 7007SOL     OW21415   2.863   5.360   5.983 -0.0642  0.6519  0.3568
 7007SOL    HW121416   2.933   5.336   6.044  1.7397 -1.1512 -2.2106
 7007SOL    HW221417   2.823   5.277   5.959 -2.4420  1.5659  0.9033
 7008SOL     OW21418   2.778   5.265   2.304 -0.8386  0.5299 -0.4256
 7008SOL    HW121419   2.776   5.344   2.249 -0.0470  0.4154 -0.6372
 7008SOL    HW221420   2.849   5.282   2.366 -0.1521 -0.3198 -0.9503
 7009SOL     OW21421   0.388   3.363   3.023  0.3939  0.7031  0.4727
 7009SOL    HW121422   0.388   3.418   2.945 -1.3493 -3.2838 -2.7016
 7009SOL    HW221423   0.481   3.345   3.039  0.7754  1.3099 -0.9008
 7010SOL     OW21424   6.625   3.105   2.751  0.7021  0.4134 -0.2531
 7010SOL    HW121425   6.555   3.106   2.686  0.3131  0.8949  0.1699
 7010SOL    HW221426   6.605   3.029   2.806  0.5144  0.5534 -0.1302
 7011SOL     OW21427   0.785   4.008   2.460  0.3510 -0.0938  0.2668
 7011SOL    HW121428   0.779   3.930   2.406  1.4597 -0.1443  0.1969
 7011SOL    HW221429   0.791   4.080   2.398 -1.4533  0.1541  0.3204
 7012SOL     OW21430   5.356   1.786   5.483  0.1227 -0.1570 -0.2118
 7012SOL    HW121431   5.391   1.773   5.572  1.9883  0.3623 -0.8332
 7012SOL    HW221432   5.379   1.875   5.461 -0.1388 -0.3553 -1.3205
 7013SOL     OW21433   2.065   0.978   5.874 -0.5286  0.0976 -0.3420
 7013SOL    HW121434   2.100   0.894   5.847 -0.2376 -0.0774  0.5528
 7013SOL    HW221435   2.132   1.042   5.850 -0.8198  0.1039 -1.1688
 7014SOL     OW21436   2.075   1.463   4.484 -0.4454  0.8828  0.7392
 7014SOL    HW121437   2.141   1.517   4.440 -0.5356  0.2670 -0.1600
 7014SOL    HW221438   2.104   1.373   4.469 -1.8150  0.5801 -0.1913
 7015SOL     OW21439   0.989   0.467   4.057 -0.2092  0.4724 -0.0866
 7015SOL    HW121440   1.000   0.432   3.969 -0.3063  1.8324 -0.6561
 7015SOL    HW221441   0.939   0.547   4.045 -1.2183  0.0928  1.3346
 7016SOL     OW21442   4.322   3.018   6.245 -1.2866 -0.0054  0.6059
 7016SOL    HW121443   4.306   3.065   6.163  1.1589  0.4829  0.3186
 7016SOL    HW221444   4.312   2.926   6.222  2.8635 -0.2202 -1.3980
 7017SOL     OW21445   5.200   2.428   3.028  0.0800 -0.2219 -0.0955
 7017SOL    HW121446   5.145   2.351   3.013 -0.9435  0.5568 -0.4658
 7017SOL    HW221447   5.230   2.417   3.119  0.2985 -1.2507 -0.2703
 7018SOL     OW21448   6.325   4.750   6.209  0.4210 -0.0399 -0.2095
 7018SOL    HW121449   6.277   4.701   6.276 -1.1815  0.5555 -0.8683
 7018SOL    HW221450   6.308   4.703   6.128 -0.4920  1.1214 -0.7185
 7019SOL     OW21451   6.890   3.023   0.422  0.0401 -0.3428 -0.0115
 7019SOL    HW121452   6.961   2.974   0.463  1.3073  0.8984 -0.6270
 7019SOL    HW221453   6.896   3.110   0.461 -0.8002 -0.0713 -0.4714
 7020SOL     OW21454   1.136   4.300   4.401 -0.4876 -0.0925  0.6786
 7020SOL    HW121455   1.137   4.362   4.474 -1.2409  0.4009  0.2780
 7020SOL    HW221456   1.228   4.289   4.379 -0.2699  0.0163  1.4791
 7021SOL     OW21457   5.352   0.034   3.296  0.2466 -0.0661 -0.5423
 7021SOL    HW121458   5.408   0.059   3.222 -0.1554  0.8344 -0.5666
 7021SOL    HW221459   5.365   0.105   3.360  0.8832 -1.0310  0.4214
 7022SOL     OW21460   6.100   5.543   2.733 -0.3192 -0.1435  0.3000
 7022SOL    HW121461   6.053   5.496   2.802  1.5258 -1.9398  0.4191
 7022SOL    HW221462   6.087   5.635   2.755 -2.5540 -0.5622  1.1035
 7023SOL     OW21463   4.507   1.255   1.912 -0.0496 -0.1212 -0.6150
 7023SOL    HW121464   4.479   1.309   1.838 -1.8351  1.0136  0.7945
 7023SOL    HW221465   4.508   1.166   1.878  0.4252  0.4968 -2.3262
 7024SOL     OW21466   6.127   5.861   4.325 -0.3212  0.2069 -0.2333
 7024SOL    HW121467   6.079   5.815   4.393  0.5844  0.2924  0.4761
 7024SOL    HW221468   6.215   5.824   4.327  0.2257  1.4345 -0.1357
 7025SOL     OW21469   4.082   2.438   6.100 -0.4275  0.2890  0.3236
 7025SOL    HW121470   4.011   2.423   6.162 -1.5774  0.3946 -0.9034
 7025SOL    HW221471   4.052   2.512   6.047  0.7765  0.5833  0.0118
 7026SOL     OW21472   4.940   2.220   0.391 -0.0568  0.0224  0.5632
 7026SOL    HW121473   4.979   2.168   0.321 -2.1811  0.4186 -1.0182
 7026SOL    HW221474   4.899   2.155   0.449  0.2470 -0.2220  0.5077
 7027SOL     OW21475   4.270   2.534   4.117 -0.2625 -0.4255  0.0180
 7027SOL    HW121476   4.260   2.457   4.061 -0.0092 -0.5051  0.0834
 7027SOL    HW221477   4.191   2.586   4.101 -1.8748 -2.0522  2.0528
 7028SOL     OW21478   2.709   6.418   5.580 -0.2624 -0.2533 -0.1794
 7028SOL    HW121479   2.697   6.347   5.643 -1.5025 -0.5318 -0.7149
 7028SOL    HW221480   2.686   6.497   5.629  0.4174 -0.2773  0.1985
 7029SOL     OW21481   1.289   4.807   5.601 -0.0550 -0.3115  0.3161
 7029SOL    HW121482   1.228   4.877   5.625 -0.7057 -1.2091  1.3920
 7029SOL    HW221483   1.345   4.797   5.678  0.1971 -0.8091  0.0720
 7030SOL     OW21484   4.952   1.562   4.197  0.6273  0.4102 -0.1540
 7030SOL    HW121485   4.907   1.638   4.233  0.5204  0.2911 -0.0382
 7030SOL    HW221486   4.960   1.581   4.104  0.1177  0.3156 -0.2145
 7031SOL     OW21487   4.883   1.988   2.846  0.0570 -0.1999 -0.3136
 7031SOL    HW121488   4.857   1.952   2.932  1.6515 -2.1367 -0.5668
 7031SOL    HW221489   4.827   2.065   2.835 -0.3214  0.0289  2.3883
 7032SOL     OW21490   0.841   1.566   6.621  0.2087 -0.4823  0.5463
 7032SOL    HW121491   0.840   1.524   6.707  0.3323  0.4758  1.0352
 7032SOL    HW221492   0.908   1.518   6.572  0.2345 -0.9539  1.0294
 7033SOL     OW21493   1.748   4.800   5.831  0.7923 -0.6438 -0.0490
 7033SOL    HW121494   1.653   4.812   5.821  0.7787 -1.9475 -2.0419
 7033SOL    HW221495   1.787   4.873   5.784  0.7741 -0.4672  0.2102
 7034SOL     OW21496   4.952   0.186   0.276 -0.2345 -0.1986 -0.1072
 7034SOL    HW121497   4.983   0.197   0.186 -0.5525  2.5543  0.0282
 7034SOL    HW221498   4.951   0.275   0.312  1.7664 -1.3350  3.2866
 7035SOL     OW21499   3.882   0.502   2.751 -0.0453 -1.0848 -0.4459
 7035SOL    HW121500   3.883   0.571   2.818  0.1701 -0.9663 -0.5691
 7035SOL    HW221501   3.906   0.547   2.670  1.7724 -1.5969 -0.2326
 7036SOL     OW21502   3.284   5.568   1.596  0.6817 -0.2805  0.5863
 7036SOL    HW121503   3.261   5.507   1.666 -1.2458 -1.7003 -1.1543
 7036SOL    HW221504   3.348   5.522   1.542  0.4579 -0.1130  0.1691
 7037SOL     OW21505   5.563   5.136   2.027 -0.2372  0.0292  0.2305
 7037SOL    HW121506   5.606   5.106   1.947  0.5760  1.2151  0.1966
 7037SOL    HW221507   5.535   5.225   2.007  1.4769  0.9790  1.7627
 7038SOL     OW21508   0.311   4.218   2.671  0.1348 -0.2570 -0.0455
 7038SOL    HW121509   0.323   4.124   2.661 -1.2171 -0.2781 -2.0838
 7038SOL    HW221510   0.398   4.252   2.690  0.3633 -2.0812  2.8444
 7039SOL     OW21511   1.207   1.110   0.946 -0.0528  0.1560 -0.4347
 7039SOL    HW121512   1.177   1.154   1.025  1.6143 -0.3780  0.5340
 7039SOL    HW221513   1.127   1.076   0.906 -0.9130  0.2551  1.1251
 7040SOL     OW21514   1.434   2.799   1.221 -0.2528 -0.1486  0.0170
 7040SOL    HW121515   1.522   2.782   1.255  0.0860 -0.1685 -0.8384
 7040SOL    HW221516   1.389   2.715   1.230  0.1188 -0.3975 -0.4031
 7041SOL     OW21517   6.720   4.879   1.872  0.2247  0.8507 -0.4042
 7041SOL    HW121518   6.725   4.826   1.951 -1.7198 -0.8394 -1.3506
 7041SOL    HW221519   6.627   4.895   1.858  0.6478  3.5613 -0.8460
 7042SOL     OW21520   1.729   2.786   0.234  0.2595  0.5009 -1.1495
 7042SOL    HW121521   1.823   2.797   0.225  0.3556  1.2252  0.4129
 7042SOL    HW221522   1.715   2.775   0.328 -1.2252  0.6009 -1.3369
 7043SOL     OW21523   2.795   6.286   4.088 -0.0272 -0.0114 -0.0212
 7043SOL    HW121524   2.737   6.272   4.014 -0.6683 -1.0338  0.6448
 7043SOL    HW221525   2.883   6.272   4.053 -0.2588  0.3641 -0.7709
 7044SOL     OW21526   3.119   4.417   5.173 -0.2483  0.1213  0.0038
 7044SOL    HW121527   3.195   4.360   5.183 -1.7795 -2.2710 -0.9751
 7044SOL    HW221528   3.074   4.411   5.257 -0.2095  0.1907  0.0294
 7045SOL     OW21529   6.436   5.378   2.897 -0.0117 -0.3073 -0.1315
 7045SOL    HW121530   6.406   5.429   2.821  0.9707 -0.9068 -0.9546
 7045SOL    HW221531   6.507   5.430   2.934 -0.5345  0.0153  0.4222
 7046SOL     OW21532   2.649   3.090   4.571  0.7310  0.3659  0.7806
 7046SOL    HW121533   2.670   3.088   4.665  2.3733  0.8839  0.4531
 7046SOL    HW221534   2.635   3.183   4.551  2.3069  0.4944  0.1465
 7047SOL     OW21535   5.137   3.451   6.137 -0.0984  0.3693  0.0231
 7047SOL    HW121536   5.191   3.442   6.058  0.4526 -0.9041  0.5186
 7047SOL    HW221537   5.172   3.529   6.180  0.3463  0.4186 -0.4124
 7048SOL     OW21538   5.349   5.562   2.713 -0.1207 -0.1705 -0.1003
 7048SOL    HW121539   5.320   5.493   2.654 -0.3350 -0.3676  0.2291
 7048SOL    HW221540   5.423   5.602   2.669 -1.1470  0.6242 -1.1581
 7049SOL     OW21541   1.848   5.281   5.357 -0.0213  0.0391  0.3602
 7049SOL    HW121542   1.777   5.329   5.398  1.0767  0.5226  1.7745
 7049SOL    HW221543   1.913   5.348   5.335  0.8987 -0.6131  1.0207
 7050SOL     OW21544   2.077   2.910   1.408 -0.2663 -0.0746 -0.2103
 7050SOL    HW121545   2.008   2.933   1.345 -0.1653  0.4196 -0.1444
 7050SOL    HW221546   2.037   2.927   1.493 -0.2118 -0.2086 -0.1581
 7051SOL     OW21547   0.350   1.949   2.316  0.3860 -0.4768 -0.2541
 7051SOL    HW121548   0.398   1.877   2.276  1.0829  0.5032 -1.2425
 7051SOL    HW221549   0.333   2.010   2.244 -0.0117  0.4384  0.5852
 7052SOL     OW21550   3.484   5.715   5.847  0.3454  0.3162  0.0340
 7052SOL    HW121551   3.560   5.715   5.789 -0.5299  1.2180 -1.1751
 7052SOL    HW221552   3.414   5.676   5.793 -0.8593  2.4988 -0.0663
 7053SOL     OW21553   5.079   3.383   3.945  0.5096 -0.0010  0.1053
 7053SOL    HW121554   5.086   3.393   3.850 -2.6939 -0.6297 -0.3006
 7053SOL    HW221555   5.054   3.470   3.976 -3.0091 -0.7129 -0.3284
 7054SOL     OW21556   0.255   3.547   6.045  0.4390 -0.2094  0.1286
 7054SOL    HW121557   0.269   3.635   6.009 -0.9936 -0.5145 -1.2679
 7054SOL    HW221558   0.282   3.555   6.137  0.1779  1.7349  0.0848
 7055SOL     OW21559   1.591   0.414   5.899  0.2365  0.3327 -0.1853
 7055SOL    HW121560   1.532   0.478   5.938  0.6439  1.5335 -1.4779
 7055SOL    HW221561   1.535   0.361   5.842  0.3621  1.3979 -1.3230
 7056SOL     OW21562   0.729   1.199   3.215  0.1391  0.2984  0.4782
 7056SOL    HW121563   0.676   1.265   3.261 -0.9015  0.6704 -1.1500
 7056SOL    HW221564   0.701   1.116   3.253 -1.6975  0.4814 -0.3163
 7057SOL     OW21565   4.912   5.668   6.185  0.6998  0.0969 -0.0593
 7057SOL    HW121566   4.975   5.598   6.199 -0.3447 -0.7536  0.5656
 7057SOL    HW221567   4.881   5.655   6.095 -1.2413 -1.7854  0.7965
 7058SOL     OW21568   5.388   3.013   5.981  0.4011  0.1274  0.7031
 7058SOL    HW121569   5.351   2.944   5.926  2.4964 -0.2843 -0.2726
 7058SOL    HW221570   5.359   3.094   5.938 -1.8781 -0.0613  1.7266
 7059SOL     OW21571   6.887   6.241   4.274  0.1167  0.1256 -0.1609
 7059SOL    HW121572   6.846   6.273   4.194 -0.3836 -0.3297 -0.0948
 7059SOL    HW221573   6.872   6.147   4.272  1.0378 -0.0363 -0.0571
 7060SOL     OW21574   1.350   3.406   6.638  0.3520  0.2911  0.2407
 7060SOL    HW121575   1.256   3.424   6.647  0.3503 -0.3804  2.0417
 7060SOL    HW221576   1.392   3.476   6.688  0.8046  0.3926 -0.2749
 7061SOL     OW21577   2.186   3.337   0.959  0.0178  0.0660  0.3773
 7061SOL    HW121578   2.130   3.313   1.033 -3.0772  0.6840 -1.5490
 7061SOL    HW221579   2.147   3.292   0.884  1.5239  1.3672 -1.2740
 7062SOL     OW21580   3.481   5.920   0.577  0.1146 -0.4449 -0.2466
 7062SOL    HW121581   3.546   5.929   0.507  0.1728 -0.2407 -0.1679
 7062SOL    HW221582   3.404   5.966   0.543  0.5750  0.8035  0.3606
 7063SOL     OW21583   5.847   6.104   0.822  0.4540  0.2748 -0.2419
 7063SOL    HW121584   5.765   6.080   0.778  1.0419 -0.7077 -0.8222
 7063SOL    HW221585   5.886   6.170   0.765  0.7844 -0.3463 -0.7357
 7064SOL     OW21586   2.604   0.753   2.183 -0.8948 -0.7742  0.5452
 7064SOL    HW121587   2.617   0.826   2.244  0.4155 -0.2133 -0.3496
 7064SOL    HW221588   2.523   0.773   2.137  0.1231  0.8699 -0.6365
 7065SOL     OW21589   1.776   5.925   5.966  0.0539  0.2741  1.2019
 7065SOL    HW121590   1.756   5.840   5.928 -0.0346  0.5957  0.5060
 7065SOL    HW221591   1.804   5.906   6.055 -0.1339 -0.4655  1.1080
 7066SOL     OW21592   5.040   0.345   1.613  0.4097  0.0071  0.1268
 7066SOL    HW121593   5.000   0.340   1.526 -0.6909 -0.4440  0.6354
 7066SOL    HW221594   5.106   0.413   1.606 -0.4514  0.7760 -0.7603
 7067SOL     OW21595   6.327   6.544   3.538  0.7026 -0.0389 -0.3957
 7067SOL    HW121596   6.412   6.578   3.567  0.6686  0.7208 -1.1581
 7067SOL    HW221597   6.333   6.541   3.443  0.1664 -0.7922 -0.4170
 7068SOL     OW21598   2.264   6.155   0.975 -0.1265 -0.0933 -0.6851
 7068SOL    HW121599   2.215   6.075   0.955  0.9456 -0.6929 -1.0277
 7068SOL    HW221600   2.198   6.223   0.984 -0.9814 -0.7636 -1.6885
 7069SOL     OW21601   5.835   4.337   4.856 -0.0859  0.7465  0.4215
 7069SOL    HW121602   5.820   4.432   4.859 -0.0201  0.8320 -1.0273
 7069SOL    HW221603   5.759   4.299   4.900 -0.6020  1.4449  0.1533
 7070SOL     OW21604   0.816   6.747   5.995  0.0726  0.4363  0.3121
 7070SOL    HW121605   0.907   6.729   5.975  0.0181  0.6990 -0.1748
 7070SOL    HW221606   0.767   6.701   5.927 -0.1019  1.6028 -0.3762
 7071SOL     OW21607   1.123   2.508   4.291 -0.0917 -0.0391 -0.4632
 7071SOL    HW121608   1.083   2.422   4.277 -0.8167  0.1047  0.5759
 7071SOL    HW221609   1.076   2.566   4.230 -1.7369  0.1817  0.9206
 7072SOL     OW21610   6.630   6.291   0.548  0.2583  0.0919 -0.8096
 7072SOL    HW121611   6.608   6.261   0.460 -0.0668  2.5663 -1.6375
 7072SOL    HW221612   6.600   6.221   0.606 -0.5286 -1.0944 -2.5850
 7073SOL     OW21613   3.568   1.346   5.287 -0.2363  0.2859  0.2739
 7073SOL    HW121614   3.561   1.256   5.320 -0.8101  0.2946  0.1957
 7073SOL    HW221615   3.662   1.365   5.286 -0.1943  0.2329  1.7433
 7074SOL     OW21616   1.587   5.015   2.392 -0.3836 -0.0564 -0.6686
 7074SOL    HW121617   1.612   5.105   2.412 -1.0500 -0.1499  0.6810
 7074SOL    HW221618   1.644   4.962   2.448 -0.3256 -0.4536 -1.1022
 7075SOL     OW21619   5.610   5.967   4.819 -0.1762  0.6478  0.1791
 7075SOL    HW121620   5.676   6.006   4.876 -1.3648  0.3578  1.8428
 7075SOL    HW221621   5.528   5.981   4.865 -1.2969  0.9291 -1.7989
 7076SOL     OW21622   1.679   2.766   1.696  0.6499 -0.2420  0.1313
 7076SOL    HW121623   1.725   2.822   1.759  2.0034 -1.3212  0.1263
 7076SOL    HW221624   1.703   2.800   1.610 -1.0978  1.1511  0.1341
 7077SOL     OW21625   3.774   4.819   6.574  0.1428  0.4730 -0.3343
 7077SOL    HW121626   3.865   4.841   6.559  0.6199 -2.0687 -1.7935
 7077SOL    HW221627   3.770   4.724   6.561 -2.4161  0.2642  1.2736
 7078SOL     OW21628   4.099   3.844   4.540  0.7622 -0.4565 -0.0716
 7078SOL    HW121629   4.171   3.865   4.481  0.8381 -1.1066 -0.2142
 7078SOL    HW221630   4.141   3.827   4.624  0.6840  0.1228  0.0919
 7079SOL     OW21631   3.296   6.931   3.597 -0.0540  0.3168 -0.1085
 7079SOL    HW121632   3.253   6.982   3.528 -0.6962  0.5862  0.4785
 7079SOL    HW221633   3.286   6.840   3.569 -0.6082  0.4037 -0.2077
 7080SOL     OW21634   6.169   2.453   6.035  0.3141  0.4076  0.2965
 7080SOL    HW121635   6.163   2.542   6.068  1.8868  1.0167 -0.9263
 7080SOL    HW221636   6.228   2.459   5.960 -0.2388 -1.5226 -0.3519
 7081SOL     OW21637   2.698   5.840   4.483  0.2823  0.2375 -0.0861
 7081SOL    HW121638   2.785   5.845   4.522 -0.4231  1.1794  1.4262
 7081SOL    HW221639   2.710   5.783   4.407  2.0139 -0.4348  0.6311
 7082SOL     OW21640   0.925   0.871   6.394 -0.8841 -0.0697 -0.4618
 7082SOL    HW121641   0.954   0.962   6.402  0.4333 -0.5192  0.0435
 7082SOL    HW221642   0.876   0.854   6.475 -0.3203 -0.0943 -0.1230
 7083SOL     OW21643   5.299   5.529   4.678 -0.1031  0.2796  0.1470
 7083SOL    HW121644   5.389   5.549   4.704 -0.2607 -0.8040  1.6592
 7083SOL    HW221645   5.308   5.478   4.598  0.6669 -0.3605  0.6333
 7084SOL     OW21646   6.096   1.947   3.449 -0.1491 -0.0980 -0.3902
 7084SOL    HW121647   6.124   1.911   3.533 -1.1339 -1.2050 -0.5095
 7084SOL    HW221648   6.010   1.908   3.434 -0.9883  1.8336 -0.8491
 7085SOL     OW21649   1.591   1.015   3.699 -0.5662 -0.1518  0.7970
 7085SOL    HW121650   1.600   1.100   3.742  0.5422  0.3596 -0.3674
 7085SOL    HW221651   1.552   0.958   3.765 -0.9270  1.1480  1.7406
 7086SOL     OW21652   4.531   0.689   3.655  0.6915 -0.5268  0.2328
 7086SOL    HW121653   4.450   0.715   3.610  1.3704  0.2901 -0.5604
 7086SOL    HW221654   4.501   0.634   3.727 -0.6279  0.2918  0.3571
 7087SOL     OW21655   6.218   0.803   4.960  0.2011 -0.2707  0.0255
 7087SOL    HW121656   6.301   0.777   4.921  0.5291  0.7722  0.0031
 7087SOL    HW221657   6.161   0.727   4.949  1.1318 -0.9764 -0.0055
 7088SOL     OW21658   1.252   6.810   2.022  0.1754  0.7290 -0.6481
 7088SOL    HW121659   1.196   6.787   1.948  0.4354 -2.2972 -0.0146
 7088SOL    HW221660   1.335   6.765   2.004 -0.6085 -2.4608  2.6420
 7089SOL     OW21661   5.300   5.831   2.153  0.5687 -0.5424 -0.4708
 7089SOL    HW121662   5.284   5.911   2.203 -0.6841 -2.3904  2.4142
 7089SOL    HW221663   5.376   5.850   2.100  0.3071  2.5387  0.0794
 7090SOL     OW21664   2.461   0.523   2.298  0.3131 -0.1256 -0.1092
 7090SOL    HW121665   2.520   0.595   2.274  1.1121 -1.1200 -1.2553
 7090SOL    HW221666   2.377   0.565   2.315  1.1337  1.2392  0.7152
 7091SOL     OW21667   3.400   5.406   2.735 -0.5113 -1.2414  0.1934
 7091SOL    HW121668   3.454   5.339   2.693 -0.2503  0.7931 -3.0295
 7091SOL    HW221669   3.329   5.423   2.674 -1.6127  0.1626  1.7594
 7092SOL     OW21670   3.542   2.509   6.473 -0.0837 -0.2821  0.5818
 7092SOL    HW121671   3.622   2.512   6.525  0.7927  0.8934 -0.7812
 7092SOL    HW221672   3.489   2.582   6.505  0.7733  0.9032 -0.6139
 7093SOL     OW21673   1.387   0.043   5.380 -0.8636 -0.0879 -0.1409
 7093SOL    HW121674   1.409   0.046   5.287 -0.3353 -0.1644 -0.0189
 7093SOL    HW221675   1.393  -0.050   5.404 -1.2297 -0.0987 -0.0862
 7094SOL     OW21676   3.331   1.013   3.500 -0.1954  0.3350 -0.4029
 7094SOL    HW121677   3.411   0.991   3.451  0.5349  2.5154 -0.3037
 7094SOL    HW221678   3.307   1.099   3.467 -1.5000  0.4811  0.8684
 7095SOL     OW21679   3.658   3.522   5.940  0.4282 -0.0043 -0.6463
 7095SOL    HW121680   3.702   3.599   5.976 -0.1915  0.2948 -0.5087
 7095SOL    HW221681   3.590   3.501   6.004 -1.1913  0.9929 -1.9567
 7096SOL     OW21682   0.714   4.468   1.311  0.6880 -0.8104  0.1830
 7096SOL    HW121683   0.645   4.415   1.272  0.8834  0.6907 -2.4840
 7096SOL    HW221684   0.673   4.509   1.387 -0.3641 -2.3248  0.4749
 7097SOL     OW21685   4.905   4.069   6.281 -0.3166  0.1594 -0.0570
 7097SOL    HW121686   4.834   4.123   6.246 -0.5324  0.3908  0.7194
 7097SOL    HW221687   4.865   4.020   6.353  0.3483  0.4086  0.4908
 7098SOL     OW21688   6.352   6.109   6.374  0.3576 -0.8676  0.0680
 7098SOL    HW121689   6.443   6.136   6.374 -0.3843  1.9555 -0.1345
 7098SOL    HW221690   6.320   6.130   6.286 -0.6706 -1.0106  0.3849
 7099SOL     OW21691   1.343   3.098   1.256  0.3855 -0.0645 -0.4477
 7099SOL    HW121692   1.278   3.167   1.269  1.1014  0.7687 -1.1575
 7099SOL    HW221693   1.311   3.051   1.178 -0.4260 -0.9406  0.3915
 7100SOL     OW21694   6.919   0.345   5.560 -0.6964 -0.1282 -0.2957
 7100SOL    HW121695   6.976   0.361   5.485 -1.0762 -0.1751 -0.6000
 7100SOL    HW221696   6.844   0.298   5.524 -0.7238 -0.4582  0.1756
 7101SOL     OW21697   4.116   0.219   4.383  0.0335 -0.1076 -0.2292
 7101SOL    HW121698   4.142   0.254   4.298  0.6578 -1.8693 -0.7951
 7101SOL    HW221699   4.038   0.270   4.407  1.2909  2.1254 -0.6505
 7102SOL     OW21700   0.007   5.841   0.924  0.2391 -0.2968 -1.1676
 7102SOL    HW121701   0.057   5.883   0.853  1.7415  2.1876  1.1647
 7102SOL    HW221702   0.069   5.778   0.962 -0.6974 -1.9176 -2.1976
 7103SOL     OW21703   6.713   5.184   6.076  0.0929 -0.3974  0.0110
 7103SOL    HW121704   6.808   5.171   6.070  0.2452  1.0263 -1.2801
 7103SOL    HW221705   6.700   5.217   6.165  0.9054  0.0583 -0.0270
 7104SOL     OW21706   0.003   1.188   2.912 -0.3689 -0.2640  0.1222
 7104SOL    HW121707   0.063   1.118   2.939  0.8872  1.2794  1.5172
 7104SOL    HW221708  -0.080   1.167   2.955  0.4418 -0.0894  1.8477
 7105SOL     OW21709   0.329   1.060   3.647  0.2829  0.2196 -0.0863
 7105SOL    HW121710   0.309   1.153   3.654 -0.8339  0.0189 -0.3394
 7105SOL    HW221711   0.382   1.053   3.568  1.6664  0.8172  0.7666
 7106SOL     OW21712   4.095   3.593   0.312  0.1032 -0.1231  0.1194
 7106SOL    HW121713   4.153   3.580   0.387 -0.3489 -0.1168  0.4720
 7106SOL    HW221714   4.052   3.509   0.299  0.8919 -0.4153 -0.7499
 7107SOL     OW21715   5.580   1.325   4.291  0.6709 -0.1321  0.3088
 7107SOL    HW121716   5.627   1.250   4.254  0.9420  0.5533 -0.8126
 7107SOL    HW221717   5.491   1.317   4.258  0.2156 -0.9116  1.6561
 7108SOL     OW21718   0.397   4.722   5.317 -0.5561  0.2902 -0.4074
 7108SOL    HW121719   0.377   4.703   5.225  0.0651  1.6123 -0.8429
 7108SOL    HW221720   0.492   4.712   5.323 -0.4676  1.1944 -0.1708
 7109SOL     OW21721   4.037   1.832   2.112  0.2546  0.2775 -0.1916
 7109SOL    HW121722   3.984   1.896   2.064  0.2561 -0.0644 -0.6618
 7109SOL    HW221723   4.123   1.838   2.072 -0.1809 -1.2512 -1.4609
 7110SOL     OW21724   1.616   2.601   4.423  0.0532  0.0167 -0.3747
 7110SOL    HW121725   1.580   2.522   4.381  0.5318 -0.9685  0.9857
 7110SOL    HW221726   1.676   2.567   4.489 -0.5147  1.4935  0.9582
 7111SOL     OW21727   2.017   5.335   3.666  0.0728 -0.5277  0.9637
 7111SOL    HW121728   2.003   5.407   3.728  1.3093  1.2109 -0.6619
 7111SOL    HW221729   1.980   5.258   3.710 -2.1835  1.2417  2.4006
 7112SOL     OW21730   0.924   3.531   3.643  0.5693  0.2669  0.4026
 7112SOL    HW121731   1.006   3.556   3.600  0.5624 -0.4878 -0.0649
 7112SOL    HW221732   0.882   3.615   3.664  0.9600  0.6563 -0.3203
 7113SOL     OW21733   1.967   5.788   1.845 -0.1086  0.2759  0.5920
 7113SOL    HW121734   1.929   5.701   1.859  0.4562 -0.1566 -0.4480
 7113SOL    HW221735   2.045   5.790   1.899 -0.5559  0.4526  1.2469
 7114SOL     OW21736   1.760   0.280   6.840 -0.2091  0.0576 -0.2873
 7114SOL    HW121737   1.796   0.344   6.902 -0.1842 -1.8890  1.8278
 7114SOL    HW221738   1.667   0.275   6.863 -1.1483  2.1036 -3.0686
 7115SOL     OW21739   1.000   0.661   4.804 -0.1901 -0.2306 -0.1384
 7115SOL    HW121740   0.928   0.613   4.763  0.1365 -0.5181 -0.3840
 7115SOL    HW221741   1.005   0.627   4.893  0.2278 -0.8747 -0.3991
 7116SOL     OW21742   1.134   3.068   4.824  0.3291  0.2385  0.4147
 7116SOL    HW121743   1.060   3.102   4.773  0.3911  0.3026  0.3664
 7116SOL    HW221744   1.103   2.985   4.860  1.0993 -1.0973 -1.7726
 7117SOL     OW21745   5.730   1.379   0.870  0.3583  0.3174 -0.1318
 7117SOL    HW121746   5.707   1.373   0.777  0.1580  0.2545 -0.0781
 7117SOL    HW221747   5.713   1.470   0.893  0.3078  0.3068 -0.1286
 7118SOL     OW21748   1.648   5.410   3.842 -0.3536 -0.0130 -0.1310
 7118SOL    HW121749   1.683   5.498   3.827 -0.0684 -0.1299 -0.1513
 7118SOL    HW221750   1.709   5.352   3.798 -0.4668 -0.2332  0.0005
 7119SOL     OW21751   1.123   1.543   5.624 -0.0589 -0.0366  0.2245
 7119SOL    HW121752   1.145   1.574   5.712 -0.9405  2.7074 -0.4317
 7119SOL    HW221753   1.200   1.493   5.596  0.2002 -1.0437  2.5285
 7120SOL     OW21754   3.817   3.272   1.671 -0.0618 -0.0541 -0.1278
 7120SOL    HW121755   3.804   3.288   1.764 -0.2976 -2.6107  0.3522
 7120SOL    HW221756   3.849   3.355   1.636  0.5986  0.7882  2.3200
 7121SOL     OW21757   4.957   6.914   5.565 -0.0633 -0.0434 -0.5903
 7121SOL    HW121758   4.892   6.976   5.529 -0.4656 -0.0077  0.1735
 7121SOL    HW221759   4.923   6.892   5.651  0.1837 -1.1910 -0.7764
 7122SOL     OW21760   5.051   1.051   6.561 -0.0612 -0.3746  0.4993
 7122SOL    HW121761   5.000   0.987   6.610 -0.2982 -0.6688 -0.1326
 7122SOL    HW221762   5.126   1.002   6.528  0.3431 -0.0717  0.9408
 7123SOL     OW21763   4.417   3.896   5.729 -0.2703  0.3765 -0.8217
 7123SOL    HW121764   4.410   3.991   5.716  0.0528  0.4445 -0.5243
 7123SOL    HW221765   4.370   3.880   5.811 -0.4676  0.2568 -0.9590
 7124SOL     OW21766   6.228   3.741   4.970 -0.8078 -0.4779 -0.0502
 7124SOL    HW121767   6.216   3.649   4.995  1.2775 -0.8885 -0.4393
 7124SOL    HW221768   6.251   3.785   5.051 -1.4459 -0.3473  0.0678
 7125SOL     OW21769   6.174   6.331   1.761 -0.1697 -1.0428 -0.4825
 7125SOL    HW121770   6.197   6.414   1.802  2.0292 -1.4856 -0.6849
 7125SOL    HW221771   6.105   6.353   1.698 -2.6556 -0.1207  2.3431
 7126SOL     OW21772   0.797   3.965   1.336 -0.2229 -0.3129 -0.2903
 7126SOL    HW121773   0.777   4.057   1.354  0.1550  0.1567 -2.0977
 7126SOL    HW221774   0.820   3.963   1.243  3.3289 -1.6042  0.4476
 7127SOL     OW21775   5.924   5.960   2.359  0.0306 -0.2411 -0.2198
 7127SOL    HW121776   5.985   6.018   2.313 -0.2478  0.6480  0.4981
 7127SOL    HW221777   5.837   5.998   2.343 -0.0973 -0.0750  0.7959
 7128SOL     OW21778   0.558   3.594   4.583 -0.2945  0.0682  0.3472
 7128SOL    HW121779   0.596   3.663   4.529 -0.4402 -0.5888 -0.6255
 7128SOL    HW221780   0.554   3.631   4.671  0.7960  0.8393  0.0901
 7129SOL     OW21781   4.867   3.818   4.123  0.2651 -0.0589  0.0445
 7129SOL    HW121782   4.809   3.861   4.060  1.0473 -0.0669 -0.7022
 7129SOL    HW221783   4.811   3.800   4.198 -1.1438 -1.5640 -1.2753
 7130SOL     OW21784   6.491   6.100   0.706 -0.0980  0.2654  0.3252
 7130SOL    HW121785   6.526   6.022   0.747  1.1885  0.2073 -0.7908
 7130SOL    HW221786   6.423   6.068   0.646  0.7408 -0.0708 -0.4689
 7131SOL     OW21787   5.094   3.072   1.017 -0.3336 -0.4209  0.0187
 7131SOL    HW121788   5.103   3.154   0.968  0.1936  0.4190  1.4821
 7131SOL    HW221789   5.085   3.005   0.949  1.0944  0.6108 -1.2566
 7132SOL     OW21790   2.506   1.103   3.159 -0.1780 -0.1427  0.6141
 7132SOL    HW121791   2.514   1.141   3.071  2.7997 -0.8724  0.4611
 7132SOL    HW221792   2.592   1.065   3.176 -0.4954  0.3775  4.0546
 7133SOL     OW21793   6.414   2.851   2.628  0.2413  0.0919 -0.5040
 7133SOL    HW121794   6.358   2.790   2.580  0.8286  0.1972 -1.3396
 7133SOL    HW221795   6.420   2.928   2.571  0.0471  0.6651  0.2418
 7134SOL     OW21796   1.870   4.725   2.146  0.0899 -0.3694  0.4598
 7134SOL    HW121797   1.894   4.637   2.116  1.0141 -0.9722  2.7583
 7134SOL    HW221798   1.776   4.721   2.161 -0.1562 -0.4428 -1.0195
 7135SOL     OW21799   1.014   2.021   1.680 -0.2007  0.3197  0.0486
 7135SOL    HW121800   1.055   2.106   1.693 -2.0146  0.9275  2.3478
 7135SOL    HW221801   1.001   2.015   1.585 -0.7704  2.9935 -0.1281
 7136SOL     OW21802   1.688   2.339   2.208 -0.0987 -0.2237 -0.6013
 7136SOL    HW121803   1.619   2.337   2.275  0.5013  3.2993  0.3449
 7136SOL    HW221804   1.655   2.400   2.142  0.6241 -1.3218 -2.0340
 7137SOL     OW21805   1.197   4.698   5.357  0.3025 -0.0553  0.8432
 7137SOL    HW121806   1.175   4.781   5.314 -0.8403 -0.8444 -0.1568
 7137SOL    HW221807   1.263   4.722   5.422  0.1298  1.6092  0.4594
 7138SOL     OW21808   4.358   4.724   6.556  0.7259  0.2327 -0.2479
 7138SOL    HW121809   4.386   4.814   6.569  0.1205  0.5996 -1.4072
 7138SOL    HW221810   4.400   4.676   6.628  2.2649  1.1663 -0.4739
 7139SOL     OW21811   0.027   2.616   4.479  0.0563 -0.5350  0.4793
 7139SOL    HW121812   0.056   2.602   4.569 -1.7570 -1.3077  0.9796
 7139SOL    HW221813   0.080   2.555   4.427  0.2364 -0.9957  1.1903
 7140SOL     OW21814   5.354   5.339   6.366 -0.1678 -0.0019  0.6180
 7140SOL    HW121815   5.350   5.363   6.459 -0.1426  0.4342  0.5042
 7140SOL    HW221816   5.424   5.393   6.330 -0.9520  0.6881  0.0883
 7141SOL     OW21817   5.233   4.760   4.799 -0.2370  0.3190 -0.1621
 7141SOL    HW121818   5.299   4.692   4.811 -1.1239 -0.1495  3.2066
 7141SOL    HW221819   5.282   4.837   4.768  1.2357 -0.9931 -1.2333
 7142SOL     OW21820   4.040   4.948   6.575  0.0059 -0.3803  0.4212
 7142SOL    HW121821   4.129   4.973   6.597 -0.0026  0.7213 -0.6659
 7142SOL    HW221822   4.027   4.980   6.485 -1.8345  0.4778  0.9278
 7143SOL     OW21823   4.982   3.075   3.081 -0.4040 -0.4836  0.4903
 7143SOL    HW121824   5.064   3.121   3.095  0.5047 -2.0754  0.6996
 7143SOL    HW221825   5.008   2.986   3.057 -2.0671 -0.9588  0.2627
 7144SOL     OW21826   2.173   4.880   4.169 -0.1962  0.3490  0.5525
 7144SOL    HW121827   2.172   4.974   4.148 -1.3573 -0.2069 -2.1393
 7144SOL    HW221828   2.243   4.844   4.115 -1.0480 -0.6375  0.0880
 7145SOL     OW21829   6.476   3.624   6.083 -0.0308 -0.4105 -0.0392
 7145SOL    HW121830   6.432   3.540   6.088 -1.4942  0.2810 -0.5171
 7145SOL    HW221831   6.508   3.629   5.993  0.3377 -0.5973  0.0837
 7146SOL     OW21832   5.645   2.238   1.553  0.3021  0.2154 -0.1027
 7146SOL    HW121833   5.572   2.271   1.606  0.4415  0.5327 -0.1051
 7146SOL    HW221834   5.677   2.315   1.507  0.2355 -0.0476 -0.5879
 7147SOL     OW21835   0.887   5.541   2.570 -0.0696 -0.6106  0.3262
 7147SOL    HW121836   0.947   5.543   2.496  0.4760  1.7925  0.7641
 7147SOL    HW221837   0.802   5.523   2.531  0.2707  0.2078 -0.8381
 7148SOL     OW21838   4.511   4.034   6.353  0.3469 -0.1001 -0.5459
 7148SOL    HW121839   4.594   3.989   6.370  1.1904  1.4790 -0.2840
 7148SOL    HW221840   4.497   4.088   6.431 -1.3910 -0.9897 -0.2058
 7149SOL     OW21841   4.806   4.748   2.333  0.3887 -0.5332 -0.1748
 7149SOL    HW121842   4.763   4.713   2.410  0.9858  0.5708  0.6964
 7149SOL    HW221843   4.742   4.809   2.295  1.0524  0.9447  0.9971
 7150SOL     OW21844   5.180   2.201   2.771 -0.1222 -0.4827  0.0954
 7150SOL    HW121845   5.119   2.166   2.706  3.4188 -2.4143 -2.5034
 7150SOL    HW221846   5.165   2.147   2.849 -1.0672 -1.5345 -0.7777
 7151SOL     OW21847   1.519   2.871   2.013  0.6080  0.9711  0.1940
 7151SOL    HW121848   1.523   2.919   2.095  0.9909 -0.0551  0.8015
 7151SOL    HW221849   1.601   2.892   1.968  0.6190  1.1496  0.3001
 7152SOL     OW21850   3.195   2.613   3.932  0.0609  0.0024 -0.2166
 7152SOL    HW121851   3.114   2.563   3.923 -0.0953  0.2197 -0.0260
 7152SOL    HW221852   3.263   2.546   3.941  0.0078 -0.1960 -1.1454
 7153SOL     OW21853   0.129   6.558   1.570 -0.3667  0.3304  0.1994
 7153SOL    HW121854   0.050   6.504   1.574 -1.4262  1.7852 -0.2218
 7153SOL    HW221855   0.155   6.567   1.662  1.0984 -2.5796  0.1797
 7154SOL     OW21856   1.508   2.881   3.283  0.1655  0.1283 -0.1544
 7154SOL    HW121857   1.539   2.876   3.374 -0.9177 -0.3747  0.2104
 7154SOL    HW221858   1.557   2.953   3.245  0.3997  0.5776  0.9434
 7155SOL     OW21859   5.288   6.069   3.683  0.3409 -0.3963  0.0407
 7155SOL    HW121860   5.229   6.128   3.732 -0.2049 -1.4837  0.7253
 7155SOL    HW221861   5.321   6.009   3.749 -0.0438 -1.6073 -0.8447
 7156SOL     OW21862   6.567   0.953   4.208 -0.5798 -0.3810  0.0447
 7156SOL    HW121863   6.581   0.869   4.164  2.3892 -0.2910  0.6586
 7156SOL    HW221864   6.543   0.928   4.298 -0.3198 -0.5788  0.0612
 7157SOL     OW21865   5.462   6.723   0.260  0.2247 -0.4610  0.3788
 7157SOL    HW121866   5.373   6.696   0.282 -0.6337  0.5766 -1.6228
 7157SOL    HW221867   5.485   6.672   0.183  0.4574  0.9055 -0.4860
 7158SOL     OW21868   4.912   6.468   0.880  0.7231 -0.5910  0.2933
 7158SOL    HW121869   4.854   6.462   0.804 -0.3811  0.0011  1.0526
 7158SOL    HW221870   4.863   6.522   0.942  2.6317  0.9988  0.4906
 7159SOL     OW21871   5.270   0.555   1.460  0.0828 -0.3388 -0.3342
 7159SOL    HW121872   5.268   0.599   1.374 -1.0759 -0.9358 -0.6301
 7159SOL    HW221873   5.185   0.577   1.499  1.0705  0.9486  1.2115
 7160SOL     OW21874   0.291   3.390   3.487 -0.1643  0.1887 -0.0517
 7160SOL    HW121875   0.326   3.339   3.560 -0.2760  0.0126 -0.1202
 7160SOL    HW221876   0.366   3.405   3.430  0.1904  1.3632  0.6855
 7161SOL     OW21877   3.299   6.248   6.401 -0.0913 -0.3921  0.2088
 7161SOL    HW121878   3.280   6.314   6.468 -0.7994  0.5539 -0.8821
 7161SOL    HW221879   3.283   6.293   6.318 -0.9145 -2.0346 -0.5726
 7162SOL     OW21880   1.804   4.112   1.250  0.8813  0.0987 -0.3350
 7162SOL    HW121881   1.785   4.077   1.338 -1.3314  1.9246  0.0200
 7162SOL    HW221882   1.852   4.042   1.206  1.1142 -1.2977  1.9785
 7163SOL     OW21883   4.018   4.586   6.628 -0.4131  0.2408  0.1592
 7163SOL    HW121884   3.938   4.542   6.658 -1.0597  1.7735  0.7797
 7163SOL    HW221885   4.050   4.632   6.705  0.4552  0.5498 -0.3747
 7164SOL     OW21886   5.359   0.747   3.303 -0.4118 -0.0826 -0.1957
 7164SOL    HW121887   5.285   0.805   3.289  0.3231  1.6795  2.4480
 7164SOL    HW221888   5.372   0.747   3.398  2.0834 -1.4501 -0.4444
 7165SOL     OW21889   5.005   6.014   1.507 -0.1404 -0.2827 -0.6239
 7165SOL    HW121890   4.972   6.104   1.504  0.1586 -0.1595 -0.3261
 7165SOL    HW221891   5.003   5.985   1.416  0.5637  0.3260 -0.8512
 7166SOL     OW21892   4.115   3.173   6.409 -0.5480  0.3336 -0.1843
 7166SOL    HW121893   4.193   3.152   6.356 -0.3602  0.4907  0.0275
 7166SOL    HW221894   4.056   3.099   6.395  0.3381 -0.6327  1.0021
 7167SOL     OW21895   2.594   3.324   2.064 -0.1015 -0.4609 -0.1910
 7167SOL    HW121896   2.680   3.328   2.104 -0.2494 -1.9581  0.3410
 7167SOL    HW221897   2.540   3.382   2.118  0.8401  1.6068 -1.3659
 7168SOL     OW21898   0.160   5.720   2.736 -0.7377 -0.0579  0.2404
 7168SOL    HW121899   0.086   5.779   2.721 -1.6747 -1.4490 -1.0403
 7168SOL    HW221900   0.134   5.667   2.812 -0.4085  0.4098  0.6810
 7169SOL     OW21901   6.672   5.053   3.891 -0.4833  0.0226  0.1028
 7169SOL    HW121902   6.753   5.087   3.931 -0.2866  0.8892 -0.9635
 7169SOL    HW221903   6.691   4.961   3.873 -0.1015 -0.0387  0.7743
 7170SOL     OW21904   6.229   2.445   2.220  0.0012 -0.0614 -0.3457
 7170SOL    HW121905   6.261   2.436   2.131 -0.2154  1.3278 -0.5846
 7170SOL    HW221906   6.197   2.358   2.244 -1.5156 -0.0687 -2.2256
 7171SOL     OW21907   0.117   6.211   0.929 -0.1771 -0.2462 -0.2005
 7171SOL    HW121908   0.132   6.289   0.983 -0.2052 -1.8892  2.3473
 7171SOL    HW221909   0.203   6.189   0.894  0.1071  0.1162  0.2541
 7172SOL     OW21910   5.321   2.028   1.264  0.3916 -0.9450 -0.5700
 7172SOL    HW121911   5.333   1.943   1.307  1.2392 -0.1214  0.9181
 7172SOL    HW221912   5.409   2.066   1.262 -0.0504  0.0941 -0.7903
 7173SOL     OW21913   2.784   2.809   0.382  0.0129 -0.2148  0.0688
 7173SOL    HW121914   2.756   2.804   0.290 -0.2123  0.2759  0.1086
 7173SOL    HW221915   2.718   2.758   0.429  0.4574 -0.9717 -0.1060
 7174SOL     OW21916   4.792   1.777   5.077 -0.6157 -0.2825  0.1242
 7174SOL    HW121917   4.861   1.747   5.137 -0.7332  0.4388  0.6228
 7174SOL    HW221918   4.771   1.699   5.025  0.2042 -0.6530  0.3208
 7175SOL     OW21919   6.213   1.174   5.226 -0.6633  0.3825  0.3308
 7175SOL    HW121920   6.253   1.243   5.279 -2.5185  0.5899  1.5518
 7175SOL    HW221921   6.134   1.214   5.190 -1.5599 -0.9540  0.7269
 7176SOL     OW21922   1.569   5.273   2.709 -0.0895 -0.2180 -0.1816
 7176SOL    HW121923   1.626   5.349   2.702 -1.0565  0.4293 -1.5535
 7176SOL    HW221924   1.535   5.277   2.798  2.8554 -1.3113  1.1050
 7177SOL     OW21925   2.485   5.868   6.933 -0.0021 -0.6910 -0.2623
 7177SOL    HW121926   2.532   5.859   7.016 -1.9528  3.9495  1.7003
 7177SOL    HW221927   2.547   5.913   6.876  0.1905 -0.7415 -0.0978
 7178SOL     OW21928   4.544   2.486   4.156  0.2533 -0.3219  0.0277
 7178SOL    HW121929   4.451   2.483   4.133  0.5825  1.6031 -1.9007
 7178SOL    HW221930   4.556   2.571   4.198  1.2418 -0.2842 -0.3041
 7179SOL     OW21931   2.281   5.700   5.970  0.0513  0.6677 -0.1930
 7179SOL    HW121932   2.288   5.609   5.998  3.7112  0.0199 -2.5183
 7179SOL    HW221933   2.196   5.706   5.926  0.9088 -2.5877 -2.6625
 7180SOL     OW21934   3.165   5.663   3.340 -0.0717 -0.4030 -0.1587
 7180SOL    HW121935   3.251   5.639   3.305 -0.1974 -0.0306 -0.7386
 7180SOL    HW221936   3.167   5.633   3.431 -0.7008 -3.8402 -1.1506
 7181SOL     OW21937   6.300   3.158   4.862  0.4515  0.2057 -0.0649
 7181SOL    HW121938   6.370   3.209   4.904  1.3453  0.0791 -1.3264
 7181SOL    HW221939   6.342   3.075   4.838 -0.6689 -0.6791  0.8833
 7182SOL     OW21940   3.427   6.701   3.867 -0.0222 -0.0536  0.6013
 7182SOL    HW121941   3.407   6.717   3.775 -1.8580 -0.4635  0.8873
 7182SOL    HW221942   3.504   6.644   3.866 -0.5481 -0.7815 -0.7084
 7183SOL     OW21943   5.555   4.716   6.217 -0.0721  0.4147 -0.4076
 7183SOL    HW121944   5.482   4.685   6.270  0.1095  1.0084  0.2145
 7183SOL    HW221945   5.568   4.806   6.246 -0.2341  0.8944 -1.7718
 7184SOL     OW21946   4.310   1.055   3.177  0.0011  0.2254 -0.0329
 7184SOL    HW121947   4.320   1.148   3.196  0.5422 -0.1428  1.7109
 7184SOL    HW221948   4.329   1.046   3.084  0.1364  1.8282 -0.1722
 7185SOL     OW21949   0.845   5.232   6.021 -0.4476 -0.2040  0.0071
 7185SOL    HW121950   0.821   5.148   5.982  0.8530 -0.8132  0.4566
 7185SOL    HW221951   0.889   5.209   6.103 -0.3057  0.9234  0.2633
 7186SOL     OW21952   4.746   3.163   0.573 -0.2805 -0.5689 -0.7288
 7186SOL    HW121953   4.823   3.219   0.564  0.0489 -0.8782  0.0763
 7186SOL    HW221954   4.697   3.201   0.646 -1.3353  0.1251 -1.7702
 7187SOL     OW21955   4.265   3.128   4.858  0.2128 -0.4226  0.5595
 7187SOL    HW121956   4.281   3.217   4.827  1.5599  0.1266  2.6145
 7187SOL    HW221957   4.303   3.071   4.791 -1.2319  0.4570 -1.1003
 7188SOL     OW21958   2.347   1.171   5.243  0.4401  0.1928 -0.2655
 7188SOL    HW121959   2.344   1.077   5.261  0.5735  0.6665  2.5813
 7188SOL    HW221960   2.434   1.198   5.270 -0.1555  1.3838  0.5343
 7189SOL     OW21961   6.690   0.531   5.928 -0.4082 -0.7468  0.1490
 7189SOL    HW121962   6.714   0.624   5.925 -0.3040 -0.7882 -2.2991
 7189SOL    HW221963   6.595   0.531   5.924 -0.4763 -0.7502  1.4191
 7190SOL     OW21964   4.540   6.295   6.517  0.4022 -0.0224  0.1465
 7190SOL    HW121965   4.561   6.227   6.581 -0.1208  0.2286  0.5878
 7190SOL    HW221966   4.624   6.338   6.498  0.2032  1.5808  2.5663
 7191SOL     OW21967   1.048   5.360   1.362 -0.4406  0.4052  0.5793
 7191SOL    HW121968   0.989   5.396   1.428 -0.6302  0.7453  0.2279
 7191SOL    HW221969   0.993   5.345   1.285 -0.3729 -0.6909  0.7309
 7192SOL     OW21970   3.026   2.221   5.904  0.2059 -0.2091  0.1010
 7192SOL    HW121971   3.073   2.281   5.962 -0.1803  0.7322 -0.5492
 7192SOL    HW221972   3.093   2.186   5.846  0.1785  0.9118 -0.6378
 7193SOL     OW21973   1.555   0.277   0.532  0.2742 -0.3359 -0.3398
 7193SOL    HW121974   1.483   0.241   0.480 -0.3192  0.0118  0.2276
 7193SOL    HW221975   1.529   0.262   0.623  1.3055 -0.9453 -0.1301
 7194SOL     OW21976   0.009   3.719   0.042  0.5719  0.1718  0.6394
 7194SOL    HW121977  -0.064   3.737   0.101 -0.1331 -0.7375  0.0817
 7194SOL    HW221978   0.060   3.800   0.041 -1.2573  1.3812 -0.1194
 7195SOL     OW21979   6.657   4.764   1.579  0.1681  0.1759  0.2692
 7195SOL    HW121980   6.637   4.815   1.657 -1.9361 -0.8647  0.4820
 7195SOL    HW221981   6.700   4.827   1.520 -0.6427  1.6966  1.2227
 7196SOL     OW21982   6.040   0.950   5.297 -0.8598 -0.1258 -0.2063
 7196SOL    HW121983   5.950   0.983   5.290 -0.2693  1.2952 -2.0956
 7196SOL    HW221984   6.094   1.029   5.291  0.5350 -1.0714 -0.4641
 7197SOL     OW21985   6.833   0.257   4.832  0.2723  0.0437  0.2270
 7197SOL    HW121986   6.743   0.251   4.800  0.2799  0.4745  0.1224
 7197SOL    HW221987   6.884   0.204   4.771 -0.1510 -1.6853  1.2734
 7198SOL     OW21988   6.042   1.029   3.413 -0.2972  0.8804 -0.0536
 7198SOL    HW121989   5.990   0.950   3.403 -0.8219  1.1095  0.7715
 7198SOL    HW221990   6.122   1.000   3.455  0.0438  0.6074 -0.8641
 7199SOL     OW21991   2.823   5.552   3.475 -0.0428  0.6886 -0.0980
 7199SOL    HW121992   2.738   5.536   3.435  1.1364 -0.5582 -2.2997
 7199SOL    HW221993   2.840   5.645   3.460 -0.4409  0.6448 -0.8486
 7200SOL     OW21994   5.190   2.298   1.309  0.1071  0.0569 -0.0763
 7200SOL    HW121995   5.231   2.366   1.362 -1.1457 -0.1216  1.1611
 7200SOL    HW221996   5.253   2.226   1.310  0.8408  0.6844 -0.2688
 7201SOL     OW21997   5.424   4.741   4.174 -0.1542 -0.0670 -0.4663
 7201SOL    HW121998   5.340   4.701   4.196 -0.3764 -0.3141 -1.7245
 7201SOL    HW221999   5.413   4.833   4.198 -0.0893 -0.4510  1.2020
 7202SOL     OW22000   2.561   4.267   6.145 -0.2458  0.2170 -0.6828
 7202SOL    HW122001   2.594   4.252   6.056  0.1475  0.5907 -0.6059
 7202SOL    HW222002   2.622   4.219   6.201  0.0244  0.6993 -0.5575
 7203SOL     OW22003   4.228   1.259   0.573 -0.3251  0.4758  0.1623
 7203SOL    HW122004   4.313   1.242   0.532 -0.2306  1.4734 -0.0766
 7203SOL    HW222005   4.170   1.191   0.538  0.0720  0.5412 -0.6399
 7204SOL     OW22006   2.846   5.149   3.276  0.7223 -0.0907  0.2586
 7204SOL    HW122007   2.798   5.153   3.194  1.0687  1.2047  0.0935
 7204SOL    HW222008   2.782   5.174   3.343  0.8572  0.5298  0.1676
 7205SOL     OW22009   3.561   0.952   1.360  0.4716 -0.0932 -0.1863
 7205SOL    HW122010   3.581   0.870   1.314 -1.1009 -0.6225 -0.0092
 7205SOL    HW222011   3.515   1.005   1.296  2.0328  0.9481 -0.4930
 7206SOL     OW22012   3.965   5.143   6.916  0.1032 -0.2852  0.0507
 7206SOL    HW122013   3.942   5.184   6.832  0.2259  1.0566  0.6513
 7206SOL    HW222014   3.955   5.049   6.900 -1.3967  0.0161 -1.0239
 7207SOL     OW22015   5.286   5.182   5.208  0.1130 -0.4445 -0.6196
 7207SOL    HW122016   5.224   5.255   5.201 -0.8422 -0.6747  3.0255
 7207SOL    HW222017   5.238   5.106   5.174 -0.2841  0.0052 -1.0678
 7208SOL     OW22018   2.608   1.949   0.040 -0.2927 -0.7020 -0.1460
 7208SOL    HW122019   2.629   2.041   0.053  0.5442 -0.8605 -0.2948
 7208SOL    HW222020   2.674   1.902   0.092  0.5159 -1.2473 -1.5920
 7209SOL     OW22021   2.788   0.902   1.472 -0.6494  0.1127 -0.4859
 7209SOL    HW122022   2.816   0.966   1.538  0.6686 -0.6655 -0.2475
 7209SOL    HW222023   2.806   0.944   1.388  0.6974 -0.1182 -0.3333
 7210SOL     OW22024   1.350   6.312   1.685 -0.0461 -0.7400 -0.1199
 7210SOL    HW122025   1.315   6.232   1.647  1.3891 -1.3717 -0.1891
 7210SOL    HW222026   1.399   6.283   1.762  0.6236  0.0472 -0.2265
 7211SOL     OW22027   4.245   0.163   3.387  0.0084 -0.4905  0.1070
 7211SOL    HW122028   4.215   0.135   3.474 -0.8276 -1.1906 -0.3904
 7211SOL    HW222029   4.165   0.167   3.334  0.3807  0.8443 -0.3961
 7212SOL     OW22030   1.675   6.414   5.358 -0.5148  0.2393  0.4113
 7212SOL    HW122031   1.747   6.353   5.373 -0.7932  0.1805  1.5414
 7212SOL    HW222032   1.625   6.375   5.286  0.0061 -0.2244  0.2975
 7213SOL     OW22033   6.368   4.515   4.515 -0.1164 -0.1201 -0.3937
 7213SOL    HW122034   6.349   4.537   4.424  0.4703  3.1464  0.1550
 7213SOL    HW222035   6.316   4.576   4.567 -0.8842 -2.2536  1.5606
 7214SOL     OW22036   1.275   0.074   2.311 -0.5403  0.7408  0.1515
 7214SOL    HW122037   1.214   0.113   2.373 -0.5062  1.2664 -0.1455
 7214SOL    HW222038   1.236   0.090   2.226 -0.6137 -0.0269  0.0350
 7215SOL     OW22039   1.708   1.520   3.013  0.0418 -0.4777  0.4482
 7215SOL    HW122040   1.624   1.505   2.970 -1.5935 -0.1498  3.2578
 7215SOL    HW222041   1.754   1.436   3.006  0.5845 -0.0187 -3.1270
 7216SOL     OW22042   5.638   6.884   4.997  0.1837  0.3873  0.8244
 7216SOL    HW122043   5.578   6.942   5.043 -0.7779  0.4112 -0.4000
 7216SOL    HW222044   5.581   6.818   4.956  0.9429  0.5751 -0.5958
 7217SOL     OW22045   4.110   0.114   0.184  0.0492  0.0108  0.2176
 7217SOL    HW122046   4.136   0.038   0.236 -0.3860  0.5386  1.2300
 7217SOL    HW222047   4.085   0.078   0.099 -1.8000 -1.2288  1.2079
 7218SOL     OW22048   2.737   0.672   5.124  0.3855  0.0241  0.3756
 7218SOL    HW122049   2.743   0.615   5.200  0.0125 -2.5483 -1.4226
 7218SOL    HW222050   2.828   0.690   5.100  0.5187 -0.4400  0.5223
 7219SOL     OW22051   5.698   0.181   2.654  0.7394 -0.1439  0.0848
 7219SOL    HW122052   5.646   0.126   2.713 -0.6141  1.3260  0.3372
 7219SOL    HW222053   5.761   0.224   2.711 -0.3897  1.0665  0.4787
 7220SOL     OW22054   0.798   0.877   3.588 -0.2868  0.3282  0.8178
 7220SOL    HW122055   0.802   0.922   3.672 -0.7001 -1.3132  1.7435
 7220SOL    HW222056   0.714   0.830   3.589  0.1851 -0.5708 -0.0556
 7221SOL     OW22057   0.154   1.327   6.826  0.4289 -0.2802 -0.5735
 7221SOL    HW122058   0.172   1.242   6.867 -0.5066 -0.1995  0.0227
 7221SOL    HW222059   0.121   1.382   6.897  1.3379  0.7009 -0.8778
 7222SOL     OW22060   0.673   3.672   6.601  0.1142  0.0749  0.1110
 7222SOL    HW122061   0.764   3.700   6.602  0.4676 -0.8102 -1.7696
 7222SOL    HW222062   0.626   3.744   6.559 -0.1343  0.6513  1.3297
 7223SOL     OW22063   0.373   0.326   2.470  0.1186 -0.2550 -0.6301
 7223SOL    HW122064   0.347   0.408   2.428  1.5780  0.6154  0.0935
 7223SOL    HW222065   0.468   0.325   2.465  0.2340 -1.0099  0.9777
 7224SOL     OW22066   0.716   6.245   2.973 -0.7288  0.3353  0.3582
 7224SOL    HW122067   0.665   6.165   2.982 -0.0415  0.0186  1.6826
 7224SOL    HW222068   0.766   6.252   3.055 -2.8171  3.6040  1.5441
 7225SOL     OW22069   3.141   3.147   1.271  0.4714 -0.5455  0.0565
 7225SOL    HW122070   3.089   3.226   1.254 -0.1023  0.0173  3.6609
 7225SOL    HW222071   3.090   3.077   1.231 -0.3306  0.5950 -1.0330
 7226SOL     OW22072   6.004   5.723   0.987  0.1245  0.1317  0.0479
 7226SOL    HW122073   6.005   5.637   0.944 -0.1698  1.0107 -1.8088
 7226SOL    HW222074   6.020   5.703   1.079  1.7324 -1.7813 -0.5530
 7227SOL     OW22075   5.955   5.187   4.135  0.7483  0.3176  0.1016
 7227SOL    HW122076   6.002   5.252   4.083  0.4444 -0.6585 -1.4484
 7227SOL    HW222077   5.869   5.180   4.094  1.4921 -2.6374 -1.2645
 7228SOL     OW22078   0.077   1.342   1.666 -0.2537 -0.2543 -0.4063
 7228SOL    HW122079   0.067   1.366   1.759 -0.1752 -0.3335 -0.3771
 7228SOL    HW222080   0.147   1.399   1.634 -1.3263  0.8787 -0.8215
 7229SOL     OW22081   1.680   6.811   3.844 -0.8928 -0.5477 -0.1631
 7229SOL    HW122082   1.636   6.822   3.760 -0.3910  0.1973 -0.3392
 7229SOL    HW222083   1.637   6.875   3.901 -0.7058 -0.5102 -0.0649
 7230SOL     OW22084   5.474   2.837   4.169 -0.4422 -0.3444 -0.0585
 7230SOL    HW122085   5.465   2.915   4.113  0.7348 -0.1070  0.0526
 7230SOL    HW222086   5.402   2.780   4.142 -0.6997  0.3394 -0.8773
 7231SOL     OW22087   4.808   0.753   2.512  0.2142 -0.3713 -0.1420
 7231SOL    HW122088   4.874   0.699   2.468 -0.2073 -1.9131  1.0208
 7231SOL    HW222089   4.725   0.708   2.495 -0.1636 -0.0334  0.7338
 7232SOL     OW22090   1.592   3.936   3.147  0.0622 -0.0893 -0.4057
 7232SOL    HW122091   1.512   3.884   3.141  0.7994 -1.1189 -2.0336
 7232SOL    HW222092   1.571   4.006   3.209 -1.7728 -0.8863 -0.0745
 7233SOL     OW22093   1.721   5.213   3.052  0.2926  0.0411 -0.2713
 7233SOL    HW122094   1.628   5.233   3.040 -0.0061 -0.4307  1.0110
 7233SOL    HW222095   1.767   5.291   3.023 -0.7422  2.2353  3.3918
 7234SOL     OW22096   3.916   2.019   1.711  0.5827  0.4391 -0.0391
 7234SOL    HW122097   3.848   2.028   1.644  1.6122  1.0928 -1.0320
 7234SOL    HW222098   3.872   2.039   1.794 -0.8298 -0.8420 -0.4423
 7235SOL     OW22099   2.497   0.705   5.360 -0.1412 -0.5513  0.7389
 7235SOL    HW122100   2.491   0.611   5.344 -0.1743 -0.0189 -3.4664
 7235SOL    HW222101   2.592   0.722   5.364  0.0082 -0.5073 -1.5150
 7236SOL     OW22102   1.618   2.743   4.182 -0.3131 -0.4274  0.0067
 7236SOL    HW122103   1.549   2.689   4.142 -0.5542  0.5072 -0.8861
 7236SOL    HW222104   1.691   2.683   4.193 -1.7098 -1.8568  2.4173
 7237SOL     OW22105   1.040   2.559   2.663  0.8415 -0.4425 -0.3583
 7237SOL    HW122106   1.030   2.465   2.674  1.1187 -0.4264  0.0589
 7237SOL    HW222107   1.091   2.569   2.583  0.8100 -0.6444 -0.4040
 7238SOL     OW22108   3.020   1.389   0.234 -0.1525  0.5364  0.1501
 7238SOL    HW122109   2.960   1.463   0.243  1.0973  1.3067  3.0541
 7238SOL    HW222110   3.024   1.350   0.321  0.0051 -2.4225 -1.0545
 7239SOL     OW22111   2.361   4.370   5.047 -1.2686  0.4103 -0.8431
 7239SOL    HW122112   2.446   4.335   5.022 -2.5359 -2.8409 -1.1769
 7239SOL    HW222113   2.347   4.445   4.989  1.2045  0.8570 -0.9508
 7240SOL     OW22114   0.358   4.644   5.064  0.2001  0.4223 -0.3363
 7240SOL    HW122115   0.353   4.591   4.984 -2.0368 -0.4156  0.2938
 7240SOL    HW222116   0.267   4.660   5.088  0.7599 -0.2878  2.6375
 7241SOL     OW22117   1.899   1.964   0.876 -0.4432 -0.3105 -0.4106
 7241SOL    HW122118   1.921   1.900   0.808 -1.5462 -2.4915  1.1527
 7241SOL    HW222119   1.983   2.001   0.903  0.6898 -3.4434  0.7749
 7242SOL     OW22120   4.811   4.250   4.525 -0.7053 -0.3017 -0.3299
 7242SOL    HW122121   4.724   4.220   4.499 -0.9445  1.8371 -2.3694
 7242SOL    HW222122   4.869   4.177   4.502 -1.8953 -1.6971  0.9319
 7243SOL     OW22123   6.625   5.334   3.831  0.6046 -0.8356  0.5835
 7243SOL    HW122124   6.647   5.242   3.847 -1.2839 -1.3054  0.7329
 7243SOL    HW222125   6.561   5.332   3.760  0.0705  0.2991  0.9964
 7244SOL     OW22126   4.734   1.274   5.459  0.2494 -0.3232  0.1230
 7244SOL    HW122127   4.784   1.194   5.471  1.3645  0.4794  1.1915
 7244SOL    HW222128   4.714   1.303   5.548 -0.9019  0.1241 -0.2636
 7245SOL     OW22129   1.430   2.505   5.078 -0.2138 -0.2830 -0.0357
 7245SOL    HW122130   1.523   2.510   5.057  0.4446  1.6541  2.6587
 7245SOL    HW222131   1.391   2.581   5.035 -0.3308 -0.4783 -0.2753
 7246SOL     OW22132   1.160   4.175   3.633  0.3590 -0.0536 -0.1105
 7246SOL    HW122133   1.153   4.162   3.728  1.7638 -0.3669 -0.0333
 7246SOL    HW222134   1.247   4.213   3.621  0.7424 -1.2638 -1.3834
 7247SOL     OW22135   5.010   2.986   5.995 -0.0177 -0.4416 -0.1497
 7247SOL    HW122136   4.930   2.936   5.980  0.3743 -0.8211 -0.9843
 7247SOL    HW222137   5.018   3.043   5.919  1.9150 -2.2918 -1.4217
 7248SOL     OW22138   3.050   5.171   3.482  0.1876 -0.0224 -0.4027
 7248SOL    HW122139   3.110   5.104   3.451  0.2074  0.0559 -0.5343
 7248SOL    HW222140   2.983   5.179   3.413 -0.7652 -1.0922  0.3612
 7249SOL     OW22141   0.879   3.779   0.271 -0.5449  0.4727 -0.2948
 7249SOL    HW122142   0.832   3.786   0.354  1.3974 -0.0829  0.9188
 7249SOL    HW222143   0.972   3.784   0.296  0.1417 -1.2053 -2.2409
 7250SOL     OW22144   1.362   2.540   6.721  0.0922  0.4859  0.1024
 7250SOL    HW122145   1.378   2.450   6.749 -1.0049 -0.4030 -1.8913
 7250SOL    HW222146   1.387   2.541   6.629  1.1714  2.5610  0.3663
 7251SOL     OW22147   2.121   2.223   0.169 -0.3827 -0.5677 -0.7286
 7251SOL    HW122148   2.167   2.215   0.086  1.2573  0.2018  0.0539
 7251SOL    HW222149   2.101   2.133   0.194  0.0211 -0.8634 -1.4563
 7252SOL     OW22150   5.248   5.216   3.588 -0.2976 -0.3894 -0.6811
 7252SOL    HW122151   5.265   5.127   3.559 -1.8317 -1.3064  1.0649
 7252SOL    HW222152   5.163   5.212   3.632 -0.2986  1.8851 -0.3384
 7253SOL     OW22153   1.809   2.299   5.614  0.8073  0.0623  0.1584
 7253SOL    HW122154   1.812   2.363   5.542  1.3031  0.5263  0.5874
 7253SOL    HW222155   1.900   2.290   5.641  0.8646 -1.4787 -0.4566
 7254SOL     OW22156   5.217   6.305   3.576 -0.7150 -0.2476  0.7851
 7254SOL    HW122157   5.125   6.308   3.552 -0.6046 -0.8773  0.2247
 7254SOL    HW222158   5.238   6.211   3.578  0.3887 -0.0936 -1.0607
 7255SOL     OW22159   6.632   3.102   6.921 -0.1378 -0.0108 -0.2391
 7255SOL    HW122160   6.687   3.178   6.941  0.9044 -0.7344 -0.2676
 7255SOL    HW222161   6.676   3.029   6.964 -1.0798 -0.6193 -0.2838
 7256SOL     OW22162   3.180   5.265   1.421 -0.2655  0.0786 -0.5036
 7256SOL    HW122163   3.246   5.318   1.378  0.7518 -0.1077  0.7741
 7256SOL    HW222164   3.225   5.224   1.495 -2.6563  3.4072  3.2320
 7257SOL     OW22165   0.111   1.394   0.817  0.9386 -0.1785  0.1689
 7257SOL    HW122166   0.191   1.438   0.791  0.7242 -0.3695 -0.8348
 7257SOL    HW222167   0.140   1.323   0.875  1.2153  1.8588  2.7220
 7258SOL     OW22168   1.359   5.614   2.465 -0.0949 -0.0241 -0.5418
 7258SOL    HW122169   1.321   5.544   2.518  0.4253 -0.2984 -0.5264
 7258SOL    HW222170   1.426   5.653   2.521  0.5866 -0.4345 -1.0543
 7259SOL     OW22171   2.985   3.619   2.981 -0.0920  0.1065 -0.0587
 7259SOL    HW122172   2.999   3.554   2.912  0.0694  2.4147 -2.3262
 7259SOL    HW222173   3.011   3.573   3.061  0.7368 -2.3677 -1.6035
 7260SOL     OW22174   4.293   5.759   5.354  0.6331 -0.6703 -0.6891
 7260SOL    HW122175   4.241   5.840   5.351  0.5259 -0.4967  2.4911
 7260SOL    HW222176   4.229   5.689   5.360  0.6898 -0.6542  0.4234
 7261SOL     OW22177   1.852   1.277   4.177  0.4710 -0.3719 -0.8818
 7261SOL    HW122178   1.847   1.295   4.271 -0.5496  0.4182 -1.0547
 7261SOL    HW222179   1.815   1.356   4.136  1.1396 -0.5957 -1.9556
 7262SOL     OW22180   2.045   3.269   2.634 -0.0185  0.6226  0.9043
 7262SOL    HW122181   2.135   3.260   2.605 -0.6823 -1.1953 -0.7543
 7262SOL    HW222182   2.007   3.333   2.573  0.6786  3.3999  3.1359
 7263SOL     OW22183   0.617   5.155   2.916  0.3566 -0.3444  0.4926
 7263SOL    HW122184   0.649   5.205   2.990  1.4649 -0.2985  0.0076
 7263SOL    HW222185   0.587   5.220   2.853  1.5396 -0.2534 -0.0218
 7264SOL     OW22186   0.286   4.876   6.011  0.0395  0.2751 -0.4383
 7264SOL    HW122187   0.197   4.911   6.014 -1.4260 -3.0206 -1.3363
 7264SOL    HW222188   0.315   4.892   5.922 -0.0733  0.4131 -0.4502
 7265SOL     OW22189   0.332   3.765   1.603  0.5974  0.5056 -0.4810
 7265SOL    HW122190   0.253   3.716   1.581 -0.1535  1.9709 -1.2590
 7265SOL    HW222191   0.394   3.742   1.535 -0.1044  1.3812 -1.4523
 7266SOL     OW22192   4.680   6.606   2.250  0.2199 -0.0450  0.0159
 7266SOL    HW122193   4.739   6.578   2.180  0.3946 -0.2403  0.2404
 7266SOL    HW222194   4.638   6.526   2.280 -0.1178  0.0850 -0.1005
 7267SOL     OW22195   4.916   2.203   4.634  0.1642  0.6251  0.0240
 7267SOL    HW122196   4.891   2.296   4.631 -1.4998  0.1999 -0.1187
 7267SOL    HW222197   4.874   2.165   4.557 -0.3595 -0.5140  0.8552
 7268SOL     OW22198   4.920   2.291   3.103 -0.3106 -0.0516  0.5598
 7268SOL    HW122199   4.867   2.348   3.048  0.6384  0.2020 -0.1197
 7268SOL    HW222200   4.906   2.323   3.192  0.4502  1.4520  0.1616
 7269SOL     OW22201   2.311   3.606   3.258 -0.2851  0.0760 -0.4893
 7269SOL    HW122202   2.218   3.623   3.275 -0.5382  0.5129 -2.1223
 7269SOL    HW222203   2.325   3.516   3.288 -0.8609  0.4917  1.1052
 7270SOL     OW22204   2.950   0.655   1.423  0.1104 -0.8551 -0.2025
 7270SOL    HW122205   2.972   0.748   1.420 -0.6058 -0.6802 -0.2175
 7270SOL    HW222206   2.855   0.654   1.437  0.3178 -1.5813  1.3668
 7271SOL     OW22207   1.628   3.303   4.135  0.0781  0.1845 -0.5048
 7271SOL    HW122208   1.581   3.334   4.057  1.6151  0.6949 -1.2907
 7271SOL    HW222209   1.718   3.289   4.104  0.8400  0.8366  1.2927
 7272SOL     OW22210   0.014   1.537   4.449 -1.0700  0.3182  0.3487
 7272SOL    HW122211   0.027   1.484   4.370  1.2386  0.5499  0.4869
 7272SOL    HW222212  -0.079   1.558   4.449 -1.0150  1.0812 -2.8449
 7273SOL     OW22213   0.454   6.271   5.608  0.8572 -0.4481  0.2071
 7273SOL    HW122214   0.519   6.204   5.591 -0.5553 -2.2184  1.3593
 7273SOL    HW222215   0.381   6.224   5.650 -0.2206  1.7973  1.0390
 7274SOL     OW22216   2.605   0.772   6.639  0.1317  0.1666  0.5773
 7274SOL    HW122217   2.595   0.818   6.556  0.1583  1.2802  1.1715
 7274SOL    HW222218   2.672   0.822   6.686  0.9586 -1.1297  0.8119
 7275SOL     OW22219   1.516   3.266   3.416  0.5028 -0.0632 -0.5325
 7275SOL    HW122220   1.453   3.195   3.426  1.4423 -0.9310 -0.5903
 7275SOL    HW222221   1.589   3.240   3.473  0.6936  1.0536 -0.2545
 7276SOL     OW22222   3.811   1.851   5.174 -0.4422  0.3056 -0.0052
 7276SOL    HW122223   3.762   1.926   5.139  0.4043  0.9601  0.1723
 7276SOL    HW222224   3.822   1.870   5.267  0.8897  0.6086 -0.2052
 7277SOL     OW22225   4.898   1.801   4.667  0.5198 -0.6887 -0.0997
 7277SOL    HW122226   4.839   1.868   4.700 -0.6496 -1.2614 -0.9836
 7277SOL    HW222227   4.895   1.731   4.733  2.8462  0.6449  1.5648
 7278SOL     OW22228   3.187   0.623   5.980 -0.2688 -0.4117  0.0243
 7278SOL    HW122229   3.203   0.546   5.927 -1.2071 -1.1313  0.7467
 7278SOL    HW222230   3.250   0.618   6.052 -0.5657 -0.7107  0.2683
 7279SOL     OW22231   0.918   5.129   5.264 -0.2747 -0.4680 -0.0343
 7279SOL    HW122232   0.833   5.166   5.240  0.1906  0.2017 -0.6891
 7279SOL    HW222233   0.917   5.129   5.360 -1.1830 -0.8859 -0.0272
 7280SOL     OW22234   6.015   1.904   2.721 -0.7008  0.4061 -0.3037
 7280SOL    HW122235   6.089   1.940   2.771 -0.9173  0.2797  0.1105
 7280SOL    HW222236   6.020   1.809   2.735 -0.2791  0.2805 -1.1923
 7281SOL     OW22237   2.718   2.631   6.542 -0.2975 -0.0948  0.1063
 7281SOL    HW122238   2.725   2.704   6.480 -2.3309 -0.4584 -0.6105
 7281SOL    HW222239   2.746   2.668   6.626 -1.5971  1.6171 -0.1663
 7282SOL     OW22240   5.841   5.540   4.345  0.6557 -0.7028  0.4882
 7282SOL    HW122241   5.836   5.472   4.413  1.0912  0.1876  1.4331
 7282SOL    HW222242   5.868   5.619   4.392 -1.0135  0.4350 -0.3614
 7283SOL     OW22243   5.058   0.789   4.383 -0.3767 -0.6424  0.0537
 7283SOL    HW122244   5.065   0.883   4.399  3.4277 -0.7819  0.1017
 7283SOL    HW222245   5.119   0.773   4.311  0.6179 -3.2955  1.3540
 7284SOL     OW22246   0.620   4.720   6.110  0.0773 -0.1729 -0.4484
 7284SOL    HW122247   0.558   4.773   6.161 -1.4915 -0.5009 -1.9412
 7284SOL    HW222248   0.645   4.649   6.170  0.4709  0.9677  0.7968
 7285SOL     OW22249   6.439   4.547   2.599  0.0475 -0.6155 -0.0463
 7285SOL    HW122250   6.447   4.457   2.569 -1.0863 -0.6344 -0.3459
 7285SOL    HW222251   6.513   4.592   2.560 -1.1559 -0.7149 -2.6851
 7286SOL     OW22252   1.796   3.200   4.861  0.1647 -0.1038 -0.1323
 7286SOL    HW122253   1.707   3.192   4.895 -0.2549 -0.4371 -1.2782
 7286SOL    HW222254   1.788   3.258   4.785  1.0774  0.5882  0.2713
 7287SOL     OW22255   1.870   4.212   3.890  0.5759 -0.9534 -0.4030
 7287SOL    HW122256   1.903   4.194   3.978  0.1833  0.0626 -0.0345
 7287SOL    HW222257   1.944   4.249   3.843  0.3298  0.1647  0.0516
 7288SOL     OW22258   6.770   5.479   2.457 -0.1922 -0.7984  0.5430
 7288SOL    HW122259   6.723   5.487   2.540 -2.3794  0.6380 -0.7329
 7288SOL    HW222260   6.789   5.569   2.432 -0.4450 -1.1438 -0.9663
 7289SOL     OW22261   5.488   5.569   5.682  0.4481  0.0378  0.6530
 7289SOL    HW122262   5.525   5.653   5.707 -0.5914  0.2925  1.4395
 7289SOL    HW222263   5.479   5.573   5.587 -2.5674  2.1815  0.8716
 7290SOL     OW22264   5.658   4.947   5.833 -0.5981 -0.1705  0.0283
 7290SOL    HW122265   5.570   4.915   5.814 -0.5449 -0.1790 -0.1968
 7290SOL    HW222266   5.687   4.895   5.908 -2.4102  2.5414  2.9310
 7291SOL     OW22267   4.579   6.839   1.779  0.0039 -0.0428 -0.4012
 7291SOL    HW122268   4.551   6.856   1.869  0.6280 -1.6061  0.1241
 7291SOL    HW222269   4.672   6.861   1.779 -0.3476  1.6166 -1.1642
 7292SOL     OW22270   3.162   4.332   5.989 -0.8826 -0.2069 -0.4398
 7292SOL    HW122271   3.069   4.320   5.968 -1.0270 -0.4678  0.2841
 7292SOL    HW222272   3.202   4.247   5.969 -0.8833 -0.2214 -0.3830
 7293SOL     OW22273   6.710   1.157   3.023 -0.0298  0.1676  0.2061
 7293SOL    HW122274   6.667   1.226   3.073 -3.3088 -0.7167 -1.1252
 7293SOL    HW222275   6.662   1.153   2.941  2.3467 -1.3641 -1.2244
 7294SOL     OW22276   4.232   0.629   1.249  0.5813 -0.3611 -0.1375
 7294SOL    HW122277   4.259   0.620   1.340 -2.5688  0.8670  1.0853
 7294SOL    HW222278   4.203   0.541   1.223  0.0121 -0.4150  0.6405
 7295SOL     OW22279   0.123   6.265   2.517  0.2016  0.0921 -0.6690
 7295SOL    HW122280   0.203   6.261   2.465  1.4658  0.6655  1.1688
 7295SOL    HW222281   0.137   6.203   2.588 -1.5970 -0.8559 -1.0850
 7296SOL     OW22282   6.451   5.806   2.765 -0.2798 -0.1765 -0.3108
 7296SOL    HW122283   6.419   5.716   2.757 -1.2147  0.0634  0.5373
 7296SOL    HW222284   6.390   5.859   2.713 -0.0992  0.0485 -0.2982
 7297SOL     OW22285   5.616   0.219   3.339 -0.1107  0.1713  0.2564
 7297SOL    HW122286   5.537   0.232   3.392 -0.3780  0.7262 -0.2687
 7297SOL    HW222287   5.602   0.273   3.261  0.1726 -0.8108 -0.5027
 7298SOL     OW22288   0.642   3.477   6.346  0.4351 -0.2543 -0.5380
 7298SOL    HW122289   0.645   3.471   6.250  0.3328  0.0975 -0.5623
 7298SOL    HW222290   0.636   3.570   6.365 -0.8903 -0.3795 -0.2320
 7299SOL     OW22291   5.846   1.964   4.109 -0.3129 -0.6225  0.0374
 7299SOL    HW122292   5.816   1.976   4.199  0.7619  1.6009  0.1718
 7299SOL    HW222293   5.941   1.971   4.114 -0.0663 -2.6432 -1.0160
 7300SOL     OW22294   3.841   1.668   3.237  0.7113 -0.5438  0.0152
 7300SOL    HW122295   3.823   1.597   3.299 -1.1615 -0.4748 -0.3761
 7300SOL    HW222296   3.888   1.627   3.165  0.9772 -1.0747  0.4867
 7301SOL     OW22297   1.868   0.008   0.325  0.6723 -0.0559  0.3204
 7301SOL    HW122298   1.863  -0.077   0.369 -0.6162  0.3613  1.0614
 7301SOL    HW222299   1.883   0.071   0.396 -0.8640  0.5755  0.1270
 7302SOL     OW22300   1.237   2.593   1.257  0.1890 -0.1963 -0.1539
 7302SOL    HW122301   1.224   2.592   1.163  1.8293  0.6727 -0.4296
 7302SOL    HW222302   1.163   2.543   1.292 -0.6676 -0.1931 -1.8520
 7303SOL     OW22303   1.949   6.508   6.105 -0.3429  0.0644  0.2247
 7303SOL    HW122304   1.888   6.537   6.038 -1.2812  0.7513  1.3474
 7303SOL    HW222305   1.957   6.413   6.091  0.1247  0.3057 -1.3443
 7304SOL     OW22306   6.187   0.272   3.278 -0.1973  0.3766 -0.0546
 7304SOL    HW122307   6.206   0.337   3.345  2.4402 -2.5839  2.4253
 7304SOL    HW222308   6.092   0.259   3.284 -0.4481  2.2807  1.0045
 7305SOL     OW22309   4.611   3.109   3.483  0.1552  0.6669  0.5957
 7305SOL    HW122310   4.577   3.053   3.413  1.5779 -1.0345  1.1819
 7305SOL    HW222311   4.665   3.174   3.438  0.8710 -0.2632  0.0889
 7306SOL     OW22312   5.182   2.660   4.334 -0.3894  0.3480  0.4279
 7306SOL    HW122313   5.114   2.721   4.306 -1.0394 -0.5886 -0.0991
 7306SOL    HW222314   5.233   2.642   4.255 -1.2476 -1.0743  0.1519
 7307SOL     OW22315   2.219   3.445   5.084  0.0184 -0.0988  0.1459
 7307SOL    HW122316   2.188   3.355   5.069  0.8663 -0.7408  1.9532
 7307SOL    HW222317   2.312   3.436   5.103  0.2798  1.2677 -0.3571
 7308SOL     OW22318   1.645   1.057   4.246  0.1365  0.0258  0.1923
 7308SOL    HW122319   1.623   1.149   4.254  3.2593  0.9131 -0.2976
 7308SOL    HW222320   1.602   1.028   4.166  1.3861  1.8526 -1.1976
 7309SOL     OW22321   5.468   4.699   4.478  0.2066 -0.0998  0.2143
 7309SOL    HW122322   5.457   4.658   4.563  0.6366  0.8769  0.7655
 7309SOL    HW222323   5.393   4.670   4.427 -1.6005  1.4780  1.8227
 7310SOL     OW22324   3.422   6.077   1.381  0.0300  0.2047  1.2463
 7310SOL    HW122325   3.363   6.005   1.404  1.3781 -0.0741  4.3311
 7310SOL    HW222326   3.509   6.037   1.380  0.5412  1.2838  0.1767
 7311SOL     OW22327   4.890   5.726   0.501  0.2310 -0.4635  0.1762
 7311SOL    HW122328   4.883   5.662   0.430 -0.7417 -0.7777  0.5401
 7311SOL    HW222329   4.975   5.769   0.487  0.1833 -0.7325 -0.9831
 7312SOL     OW22330   5.781   0.554   3.146  0.3115  0.1943 -0.1580
 7312SOL    HW122331   5.707   0.558   3.206  0.7115  1.4780  0.2858
 7312SOL    HW222332   5.758   0.614   3.075  1.3638  1.4677  0.5306
 7313SOL     OW22333   3.827   5.774   1.528  0.2039  0.1662  0.4670
 7313SOL    HW122334   3.839   5.688   1.488  0.8554  0.3861  0.1808
 7313SOL    HW222335   3.914   5.812   1.531 -0.2737  1.5124 -0.9986
 7314SOL     OW22336   6.323   0.105   6.125 -0.0036  0.2445 -0.4693
 7314SOL    HW122337   6.291   0.035   6.069 -0.1642  0.2131 -0.3397
 7314SOL    HW222338   6.313   0.071   6.214 -1.0792  0.8331 -0.3444
 7315SOL     OW22339   1.364   0.282   1.221 -0.0813 -0.0583  0.0358
 7315SOL    HW122340   1.439   0.300   1.164  0.1390  1.0476  0.6300
 7315SOL    HW222341   1.401   0.279   1.309 -0.5014 -1.1912  0.1888
 7316SOL     OW22342   1.435   2.851   3.939 -0.3070  0.3773 -0.6208
 7316SOL    HW122343   1.446   2.933   3.987  2.0545 -0.4356  0.3883
 7316SOL    HW222344   1.399   2.790   4.003 -1.2511  0.4021 -1.1242
 7317SOL     OW22345   4.232   6.757   1.062 -0.7800  0.3838 -0.7835
 7317SOL    HW122346   4.250   6.821   1.130  0.6907 -0.3398 -0.4590
 7317SOL    HW222347   4.303   6.693   1.069 -0.9936 -0.1005 -2.5300
 7318SOL     OW22348   6.731   3.993   2.897 -0.6874  0.5025 -0.3122
 7318SOL    HW122349   6.646   3.991   2.942  0.0489 -3.4734  1.3147
 7318SOL    HW222350   6.758   4.085   2.901 -3.3055  1.3263  2.2926
 7319SOL     OW22351   4.007   3.756   5.686 -0.1291 -0.4979  0.1887
 7319SOL    HW122352   4.096   3.726   5.702 -0.5934 -3.0351 -1.5027
 7319SOL    HW222353   4.017   3.830   5.626  0.8528 -0.0818  0.8437
 7320SOL     OW22354   4.687   2.622   4.858  0.3303  0.2329 -0.5543
 7320SOL    HW122355   4.667   2.685   4.927  1.1826  1.6102 -1.4968
 7320SOL    HW222356   4.604   2.611   4.811  0.1586  0.6595 -0.3589
 7321SOL     OW22357   1.378   5.927   0.220  0.1035  0.0960 -0.0434
 7321SOL    HW122358   1.307   5.931   0.284  0.7565 -1.8329  0.8660
 7321SOL    HW222359   1.405   6.018   0.209 -3.4704  1.1473 -1.5909
 7322SOL     OW22360   2.650   4.812   5.240  0.1974 -0.3429 -0.3550
 7322SOL    HW122361   2.742   4.818   5.217 -0.1516  0.5918 -1.5965
 7322SOL    HW222362   2.622   4.903   5.249 -0.7301 -0.6018 -0.5265
 7323SOL     OW22363   1.647   0.649   0.089  0.2089 -0.3341 -0.5306
 7323SOL    HW122364   1.583   0.584   0.116  1.1970 -1.2687 -0.3593
 7323SOL    HW222365   1.718   0.640   0.153  0.5910  0.5424 -0.8185
 7324SOL     OW22366   3.589   6.376   6.666 -0.4102  0.0401  0.1173
 7324SOL    HW122367   3.542   6.394   6.747  0.3929  0.1464  0.5706
 7324SOL    HW222368   3.546   6.431   6.600 -0.4662  0.6727  0.6731
 7325SOL     OW22369   0.401   6.329   2.443 -0.1740  0.9189 -0.0617
 7325SOL    HW122370   0.484   6.297   2.407  0.4653  2.6876 -0.2311
 7325SOL    HW222371   0.425   6.370   2.526 -0.5927  2.8163 -0.8288
 7326SOL     OW22372   0.220   0.150   2.906  0.0911 -0.1489  0.3129
 7326SOL    HW122373   0.285   0.124   2.970  1.0149 -0.2703 -0.6522
 7326SOL    HW222374   0.140   0.164   2.957 -0.0392 -3.1780  1.1506
 7327SOL     OW22375   3.775   2.076   0.561 -0.0346 -0.0310 -0.0825
 7327SOL    HW122376   3.799   2.162   0.596 -0.9901 -0.3326  1.3494
 7327SOL    HW222377   3.781   2.016   0.635  0.4129 -1.1958 -1.0108
 7328SOL     OW22378   0.748   3.962   6.015  0.1830  0.0935  0.2461
 7328SOL    HW122379   0.833   3.989   5.981  0.9764 -1.6734  0.7266
 7328SOL    HW222380   0.716   3.898   5.951 -0.7724  0.7015  0.0967
 7329SOL     OW22381   2.848   2.342   2.195  0.3067  0.0286 -0.7479
 7329SOL    HW122382   2.927   2.306   2.233  0.2951  0.8976  0.1196
 7329SOL    HW222383   2.776   2.296   2.239  0.3088  0.4793 -0.2592
 7330SOL     OW22384   5.168   1.608   3.737  0.0636 -0.5952  0.2294
 7330SOL    HW122385   5.128   1.574   3.657 -0.7873 -0.1800  0.4705
 7330SOL    HW222386   5.135   1.698   3.744  1.9147  0.1709 -0.1601
 7331SOL     OW22387   2.637   3.037   5.929  0.1541  0.5955  0.2768
 7331SOL    HW122388   2.551   3.001   5.906 -0.1202  0.6016  1.2647
 7331SOL    HW222389   2.619   3.125   5.960  0.5597  0.7046  0.2097
 7332SOL     OW22390   6.714   4.074   4.420  0.4571 -0.4601  0.2061
 7332SOL    HW122391   6.703   4.007   4.352 -0.8278  0.2536 -0.3410
 7332SOL    HW222392   6.790   4.124   4.392  0.4317 -0.6815 -0.2844
 7333SOL     OW22393   4.503   0.923   5.852 -0.1809  0.2938  0.0529
 7333SOL    HW122394   4.468   0.969   5.776 -1.1187  0.2771  0.4584
 7333SOL    HW222395   4.598   0.927   5.841 -0.3017  0.4447 -1.0214
 7334SOL     OW22396   0.498   6.943   4.544 -0.3295  0.3876 -0.2147
 7334SOL    HW122397   0.448   6.884   4.601  0.3859  2.2840  2.5673
 7334SOL    HW222398   0.460   7.029   4.559  1.5242  1.3442 -0.6800
 7335SOL     OW22399   0.923   2.826   4.682 -0.3061 -0.7308 -0.5409
 7335SOL    HW122400   0.987   2.813   4.752 -0.3252  1.3019 -0.0838
 7335SOL    HW222401   0.843   2.785   4.716  0.0353 -0.8995  0.0816
 7336SOL     OW22402   5.341   0.742   0.091 -0.3082  0.4333 -0.2316
 7336SOL    HW122403   5.293   0.757   0.010 -0.4289 -0.8418 -0.4137
 7336SOL    HW222404   5.429   0.773   0.072 -0.2503 -0.1560 -0.9589
 7337SOL     OW22405   3.041   0.383   0.841  0.1509 -0.3995 -0.4128
 7337SOL    HW122406   3.023   0.297   0.877  1.9339 -1.4047 -1.7750
 7337SOL    HW222407   2.999   0.382   0.755  2.0081 -0.7870 -1.3624
 7338SOL     OW22408   2.318   1.231   4.003 -0.0913  0.2919  0.4183
 7338SOL    HW122409   2.225   1.244   4.021 -0.5494 -1.4279 -0.5586
 7338SOL    HW222410   2.351   1.319   3.985 -0.6596  1.5028  4.3875
 7339SOL     OW22411   0.767   1.739   3.526  0.3563  0.1908  0.0954
 7339SOL    HW122412   0.847   1.791   3.515  0.8280 -0.9188 -2.7314
 7339SOL    HW222413   0.703   1.781   3.468 -0.0218 -0.9062 -0.3098
 7340SOL     OW22414   1.213   3.893   4.780 -0.3495 -0.2566  0.2953
 7340SOL    HW122415   1.182   3.877   4.870 -0.1234 -1.5330  0.1578
 7340SOL    HW222416   1.211   3.807   4.738  0.2598  0.2048 -0.7113
 7341SOL     OW22417   6.123   0.138   4.565 -0.0375  0.3798  0.6339
 7341SOL    HW122418   6.131   0.086   4.485 -0.1058 -0.1111  0.9423
 7341SOL    HW222419   6.038   0.182   4.556  0.0716  0.5339  0.3215
 7342SOL     OW22420   2.589   3.647   0.721  0.5215  0.3136  0.5334
 7342SOL    HW122421   2.578   3.652   0.816  0.5865  1.0023  0.5075
 7342SOL    HW222422   2.511   3.688   0.685  0.2656 -0.3723  0.2722
 7343SOL     OW22423   4.428   6.816   5.124 -0.5041 -0.0300  0.1141
 7343SOL    HW122424   4.405   6.891   5.177  0.9589  0.1922  0.4642
 7343SOL    HW222425   4.523   6.821   5.113 -0.6230 -0.6288 -1.6664
 7344SOL     OW22426   2.359   2.684   5.604  0.2833  0.1814  0.0897
 7344SOL    HW122427   2.382   2.647   5.519  0.2523  0.3504  0.0059
 7344SOL    HW222428   2.364   2.779   5.590 -0.9037  0.2385 -0.0520
 7345SOL     OW22429   2.518   0.944   5.995  0.2070  0.2308 -0.7254
 7345SOL    HW122430   2.461   0.965   5.920 -0.3579  0.0150 -0.3630
 7345SOL    HW222431   2.468   0.972   6.071  0.0979 -1.0020 -0.3248
 7346SOL     OW22432   0.883   2.308   4.260 -0.3982  0.0476  0.6604
 7346SOL    HW122433   0.855   2.398   4.280  1.5689  0.8254  0.1685
 7346SOL    HW222434   0.858   2.295   4.169 -0.8077  0.0378  0.7719
 7347SOL     OW22435   1.944   1.185   5.456  0.2339 -0.1209  0.1296
 7347SOL    HW122436   1.997   1.208   5.379  0.7685 -2.1273 -0.1596
 7347SOL    HW222437   2.006   1.190   5.529  0.7182 -1.8282 -0.1202
 7348SOL     OW22438   3.867   4.743   2.386 -0.0825  0.6966 -0.3489
 7348SOL    HW122439   3.945   4.700   2.421  0.4627  0.2946 -1.9693
 7348SOL    HW222440   3.795   4.683   2.408  0.1472  0.7736  0.6253
 7349SOL     OW22441   6.046   3.125   2.692 -0.1079  0.3639  0.4709
 7349SOL    HW122442   6.060   3.078   2.610 -2.2392  0.1160  0.2168
 7349SOL    HW222443   6.131   3.119   2.737  0.6731 -0.7435 -1.0531
 7350SOL     OW22444   4.024   0.024   5.081  0.0950  0.3584 -0.4634
 7350SOL    HW122445   3.949   0.000   5.027 -0.8140  0.9295  0.5079
 7350SOL    HW222446   3.991   0.092   5.139  0.8827 -0.5897  1.1582
 7351SOL     OW22447   5.748   6.382   0.891 -0.1356 -0.1416 -0.0837
 7351SOL    HW122448   5.672   6.384   0.949 -0.2013 -1.5857 -0.0755
 7351SOL    HW222449   5.774   6.290   0.889  1.5206  0.2884 -0.2061
 7352SOL     OW22450   6.118   0.400   1.518  0.6641 -0.0323 -0.2720
 7352SOL    HW122451   6.154   0.407   1.430  1.6005 -1.4785 -0.0463
 7352SOL    HW222452   6.089   0.309   1.525  2.2167 -0.4541  1.4729
 7353SOL     OW22453   0.103   5.271   2.977 -0.5859 -0.1594  0.1585
 7353SOL    HW122454   0.169   5.202   2.980 -1.6968 -1.3437 -1.2218
 7353SOL    HW222455   0.074   5.280   3.068  1.0401  0.0018  0.7001
 7354SOL     OW22456   4.665   2.871   0.834 -0.3230  0.6777  0.0151
 7354SOL    HW122457   4.613   2.896   0.757 -2.0562 -2.5223 -0.0048
 7354SOL    HW222458   4.626   2.921   0.906 -1.0106  1.1028 -0.6314
 7355SOL     OW22459   1.617   2.140   2.973  0.0502 -0.3637  0.3033
 7355SOL    HW122460   1.705   2.128   2.938 -0.9357 -1.0592 -2.0853
 7355SOL    HW222461   1.560   2.092   2.913 -1.9578 -0.1150  1.9090
 7356SOL     OW22462   6.082   5.472   5.119 -0.0792 -0.6537  0.4010
 7356SOL    HW122463   6.074   5.515   5.034  0.2239  1.3880  1.3451
 7356SOL    HW222464   5.995   5.436   5.136 -0.6408  0.4834  0.0125
 7357SOL     OW22465   2.663   1.222   2.419  0.6583 -0.7011 -0.3582
 7357SOL    HW122466   2.690   1.276   2.493  1.0771 -1.0400 -0.2546
 7357SOL    HW222467   2.745   1.205   2.371  0.2144  0.6640 -1.6907
 7358SOL     OW22468   6.037   6.724   0.893  0.2256  0.0454 -0.0317
 7358SOL    HW122469   6.103   6.657   0.907  0.0134 -0.4235 -1.1768
 7358SOL    HW222470   6.086   6.807   0.899  0.3566 -0.1261  2.1112
 7359SOL     OW22471   4.885   4.887   0.783 -0.0475  1.1658 -0.0620
 7359SOL    HW122472   4.828   4.960   0.761  0.0579  1.2966  0.0927
 7359SOL    HW222473   4.859   4.816   0.724  0.1740  1.4788 -0.5398
 7360SOL     OW22474   5.414   0.871   4.682 -0.5432 -0.3075 -0.6234
 7360SOL    HW122475   5.376   0.783   4.684  0.9937 -1.0381 -1.5178
 7360SOL    HW222476   5.339   0.929   4.665 -1.4531 -1.5318 -0.9498
 7361SOL     OW22477   6.435   0.558   0.225  0.3247 -0.1495 -0.0306
 7361SOL    HW122478   6.378   0.496   0.270  0.3044  0.2453  0.4947
 7361SOL    HW222479   6.457   0.514   0.143 -0.4845 -0.4330 -0.1075
 7362SOL     OW22480   4.684   0.534   1.596 -0.0681  0.3602  0.2132
 7362SOL    HW122481   4.692   0.624   1.563 -0.7363  0.9102  1.4781
 7362SOL    HW222482   4.747   0.529   1.668 -0.3745 -0.0229  0.4585
 7363SOL     OW22483   4.463   4.658   5.796  0.2513  0.0010 -0.6306
 7363SOL    HW122484   4.505   4.650   5.881  0.4474 -0.7912 -0.7932
 7363SOL    HW222485   4.403   4.732   5.805  0.8088  0.3845 -0.0367
 7364SOL     OW22486   2.270   3.077   4.063  0.3886  0.4074 -0.6169
 7364SOL    HW122487   2.363   3.098   4.059  0.4335  0.0589 -1.9963
 7364SOL    HW222488   2.231   3.125   3.990 -0.7636  1.6062  0.7181
 7365SOL     OW22489   1.831   0.382   0.800  0.2148 -0.0942  0.5639
 7365SOL    HW122490   1.857   0.436   0.875  0.4824  0.7539 -0.1177
 7365SOL    HW222491   1.759   0.430   0.760  0.9893  0.2040 -0.5267
 7366SOL     OW22492   4.077   5.454   3.533 -0.1155  0.1429  0.4712
 7366SOL    HW122493   4.138   5.467   3.604  0.1557 -1.2534  0.5343
 7366SOL    HW222494   4.115   5.500   3.458  1.2080 -0.9504  0.4252
 7367SOL     OW22495   3.781   1.708   3.549  0.0681  0.0242 -0.3493
 7367SOL    HW122496   3.814   1.628   3.510  0.4196 -0.8156  1.5468
 7367SOL    HW222497   3.688   1.692   3.564  0.4513 -0.7386  1.5299
 7368SOL     OW22498   2.609   4.963   3.923  0.0030  0.0346  0.0301
 7368SOL    HW122499   2.587   5.044   3.878 -0.1973  0.0399  0.1360
 7368SOL    HW222500   2.682   4.986   3.980 -0.6965  0.3821  0.8033
 7369SOL     OW22501   3.472   2.255   4.680  0.0117  0.4579  0.1037
 7369SOL    HW122502   3.512   2.171   4.700  0.2776  0.6671  0.4528
 7369SOL    HW222503   3.403   2.265   4.745 -3.4351 -1.7539 -2.7760
 7370SOL     OW22504   3.207   0.767   2.168 -0.0711  0.2125  0.2089
 7370SOL    HW122505   3.160   0.741   2.248  1.4192 -0.4837  0.8867
 7370SOL    HW222506   3.282   0.818   2.200  0.9396 -0.6794 -0.6942
 7371SOL     OW22507   3.781   2.822   3.774  0.9297 -0.1537  0.7411
 7371SOL    HW122508   3.817   2.734   3.764  2.2479  0.3693  0.5593
 7371SOL    HW222509   3.833   2.876   3.714 -1.0746  0.4532 -0.5514
 7372SOL     OW22510   5.924   2.218   4.321 -0.5340  0.8144  0.1217
 7372SOL    HW122511   5.940   2.279   4.393  3.1988  0.9408 -0.6129
 7372SOL    HW222512   5.977   2.141   4.342 -0.6446  0.1955 -1.6827
 7373SOL     OW22513   2.478   2.662   0.056  0.0272  0.0900 -0.5449
 7373SOL    HW122514   2.413   2.645   0.125  0.3976 -0.9921 -0.4468
 7373SOL    HW222515   2.435   2.725  -0.002 -0.4904  0.6334  0.3870
 7374SOL     OW22516   6.883   0.724   2.924  0.2658  0.4666  0.2076
 7374SOL    HW122517   6.962   0.751   2.876  1.7131 -1.4975  1.3617
 7374SOL    HW222518   6.878   0.785   2.998  1.6816 -0.3757  1.0346
 7375SOL     OW22519   3.093   6.623   0.104 -0.1594 -0.0717 -0.4589
 7375SOL    HW122520   3.034   6.655   0.036 -2.0116 -0.0534  1.0753
 7375SOL    HW222521   3.104   6.530   0.085  0.5337  0.2219 -1.5949
 7376SOL     OW22522   6.243   3.127   1.135 -0.3027  0.2411 -0.3211
 7376SOL    HW122523   6.226   3.040   1.099 -1.1896  0.6155 -0.8118
 7376SOL    HW222524   6.160   3.173   1.130  0.3693  1.4426 -0.9092
 7377SOL     OW22525   5.228   0.385   2.134  0.0614 -0.1092  0.1693
 7377SOL    HW122526   5.223   0.294   2.163  1.6126 -0.1768  0.3315
 7377SOL    HW222527   5.302   0.386   2.073 -0.0873  1.0065 -0.0067
 7378SOL     OW22528   0.969   2.163   2.909  0.2699  0.0914 -0.3695
 7378SOL    HW122529   0.899   2.226   2.893 -0.8996 -0.9979  0.2874
 7378SOL    HW222530   0.971   2.108   2.831 -0.6064 -0.7687  0.1903
 7379SOL     OW22531   5.501   6.238   0.023 -0.6985  0.7900 -0.0357
 7379SOL    HW122532   5.411   6.207   0.025 -0.4099 -0.2717 -1.6286
 7379SOL    HW222533   5.494   6.332   0.004 -1.4615  0.8891  0.6915
 7380SOL     OW22534   1.780   3.345   2.795 -0.7879  0.3965  0.4577
 7380SOL    HW122535   1.722   3.397   2.740 -1.0348  0.6343  0.9351
 7380SOL    HW222536   1.857   3.328   2.741 -0.2516  2.1230  0.6436
 7381SOL     OW22537   4.086   3.384   5.666  0.0825  0.4609 -0.0957
 7381SOL    HW122538   3.992   3.371   5.675 -0.6544  3.4362 -1.8784
 7381SOL    HW222539   4.122   3.297   5.650 -2.3827 -0.7180  0.3974
 7382SOL     OW22540   4.658   3.780   3.859 -0.4877  0.0864 -0.7325
 7382SOL    HW122541   4.609   3.775   3.941 -0.3997  1.2083 -0.5916
 7382SOL    HW222542   4.658   3.691   3.825 -0.6474 -0.3647  0.4163
 7383SOL     OW22543   4.950   2.975   3.678 -0.2842  0.4884  0.0105
 7383SOL    HW122544   5.004   2.944   3.750  0.5369  0.2532 -0.6911
 7383SOL    HW222545   4.863   2.939   3.695 -0.1880  0.7291  1.0609
 7384SOL     OW22546   0.948   1.513   0.329  0.3044  0.1331 -0.1608
 7384SOL    HW122547   0.859   1.538   0.304  0.3606 -0.5135 -1.0317
 7384SOL    HW222548   0.975   1.582   0.390 -1.3835 -0.5474  1.4369
 7385SOL     OW22549   1.716   0.208   3.382 -0.0764  0.1239 -0.0549
 7385SOL    HW122550   1.805   0.233   3.357  0.7265 -0.4659  2.0005
 7385SOL    HW222551   1.662   0.281   3.354  0.8544  0.0128 -2.3472
 7386SOL     OW22552   1.662   1.699   1.058  0.4723  0.1676  0.0497
 7386SOL    HW122553   1.667   1.719   1.151  0.0689 -0.0043  0.1129
 7386SOL    HW222554   1.570   1.674   1.044  0.2938  1.0773 -0.5679
 7387SOL     OW22555   5.541   2.190   1.231 -0.6460  0.1082 -0.7051
 7387SOL    HW122556   5.568   2.254   1.296 -1.0281 -0.3938 -0.0416
 7387SOL    HW222557   5.549   2.236   1.147  1.5414  0.2179 -0.4883
 7388SOL     OW22558   5.393   0.757   3.035  0.1290  1.0051 -0.3413
 7388SOL    HW122559   5.359   0.675   2.999  0.7364  0.8857 -0.6630
 7388SOL    HW222560   5.397   0.742   3.129  1.2776  0.2449 -0.4883
 7389SOL     OW22561   2.584   4.655   4.452 -0.0910  0.6124  0.0430
 7389SOL    HW122562   2.566   4.688   4.540  0.0431  0.9111 -0.0399
 7389SOL    HW222563   2.609   4.733   4.402  1.8683  0.1964  0.2760
 7390SOL     OW22564   4.013   4.461   0.529 -0.1113 -0.0362  0.0485
 7390SOL    HW122565   4.001   4.494   0.617 -0.1457  1.4863 -0.4950
 7390SOL    HW222566   3.952   4.387   0.522 -0.7213  0.3550  1.0150
 7391SOL     OW22567   0.430   4.828   0.175 -0.1908 -0.1656 -0.2969
 7391SOL    HW122568   0.503   4.887   0.195 -2.5771  2.2763  2.1870
 7391SOL    HW222569   0.405   4.791   0.260 -1.5043 -1.3367 -1.1456
 7392SOL     OW22570   5.613   4.653   3.435 -0.5129 -0.6941 -0.2601
 7392SOL    HW122571   5.630   4.746   3.442 -3.1355 -0.2402  2.5523
 7392SOL    HW222572   5.678   4.611   3.491  0.2983 -0.5443 -1.0677
 7393SOL     OW22573   1.477   2.411   5.722 -0.4620 -0.3677  0.2142
 7393SOL    HW122574   1.457   2.422   5.815 -1.3262 -0.1352  0.0196
 7393SOL    HW222575   1.498   2.500   5.691  0.2305 -0.5101  0.2751
 7394SOL     OW22576   5.590   5.413   2.045 -0.2174  0.2090  0.4699
 7394SOL    HW122577   5.610   5.410   2.139 -1.2350 -2.7779  0.6955
 7394SOL    HW222578   5.529   5.485   2.036 -1.3398 -0.4066  2.4166
 7395SOL     OW22579   6.447   5.107   4.031  0.4395  0.3256  0.3448
 7395SOL    HW122580   6.495   5.089   3.950 -1.7936 -0.1373 -0.9485
 7395SOL    HW222581   6.445   5.202   4.037 -0.7644  0.4247 -1.0719
 7396SOL     OW22582   4.768   5.960   6.533 -0.5945  0.2938 -0.2491
 7396SOL    HW122583   4.835   6.026   6.515 -1.2600  0.8494 -0.7453
 7396SOL    HW222584   4.799   5.881   6.489  0.7959 -0.1038  1.3248
 7397SOL     OW22585   3.558   1.869   3.731 -0.2612 -0.0277 -0.1346
 7397SOL    HW122586   3.636   1.886   3.784 -1.2435 -0.3891  1.4747
 7397SOL    HW222587   3.534   1.779   3.751 -3.2316  1.1624  2.3840
 7398SOL     OW22588   4.893   0.874   1.256 -0.1885  0.4761  0.2758
 7398SOL    HW122589   4.847   0.957   1.265  1.0171  1.1633  0.3403
 7398SOL    HW222590   4.966   0.893   1.197  0.9827 -0.1538  1.4779
 7399SOL     OW22591   6.894   3.018   0.929 -0.2165  0.4381  0.3024
 7399SOL    HW122592   6.814   3.039   0.882  0.2118 -0.1793 -0.7325
 7399SOL    HW222593   6.944   3.100   0.929 -0.3342  0.5109 -0.0956
 7400SOL     OW22594   4.496   0.837   3.208 -0.0069  0.0917  0.2619
 7400SOL    HW122595   4.431   0.884   3.156  1.4767  1.8857 -0.0648
 7400SOL    HW222596   4.536   0.905   3.263  1.4801 -0.9833  0.5699
 7401SOL     OW22597   0.945   6.578   5.060  0.1606  0.0433  0.8387
 7401SOL    HW122598   1.012   6.510   5.070 -0.2951 -0.5021  0.3041
 7401SOL    HW222599   0.897   6.577   5.143  0.5428  0.1287  1.0589
 7402SOL     OW22600   5.903   0.595   2.191  0.0848  0.4450  0.6473
 7402SOL    HW122601   5.962   0.670   2.183  0.6791  0.0960  1.6081
 7402SOL    HW222602   5.888   0.587   2.286 -1.4356  0.4691  0.4405
 7403SOL     OW22603   0.346   1.292   0.351  0.0061  0.0952 -0.3909
 7403SOL    HW122604   0.256   1.325   0.355  0.7768  2.4557 -1.0552
 7403SOL    HW222605   0.382   1.330   0.271  1.7442 -0.4225  0.1112
 7404SOL     OW22606   4.476   6.912   4.499  0.1116  0.1901 -0.1517
 7404SOL    HW122607   4.419   6.850   4.452 -0.9785  1.0494 -0.0226
 7404SOL    HW222608   4.471   6.884   4.590 -1.2814  1.0810  0.0835
 7405SOL     OW22609   6.548   0.859   3.441 -0.0397 -0.1867  0.3307
 7405SOL    HW122610   6.567   0.896   3.526 -0.7790  0.1872  0.3401
 7405SOL    HW222611   6.624   0.805   3.420  0.3324  0.0663  1.0282
 7406SOL     OW22612   2.537   1.071   1.916  0.2246 -0.4144 -0.1676
 7406SOL    HW122613   2.526   1.166   1.905  0.6766 -0.5501 -2.1141
 7406SOL    HW222614   2.626   1.062   1.951  0.5564 -0.1519 -0.9248
 7407SOL     OW22615   2.760   1.677   2.657 -0.1904 -0.0593 -0.0734
 7407SOL    HW122616   2.765   1.760   2.705  0.5648  1.2048 -2.1615
 7407SOL    HW222617   2.746   1.704   2.566  1.6059 -2.1687 -1.0495
 7408SOL     OW22618   6.575   0.312   4.168  0.1108 -0.0176 -0.4690
 7408SOL    HW122619   6.582   0.386   4.229  0.5174  1.5593 -2.3421
 7408SOL    HW222620   6.662   0.273   4.167  0.1701  0.1063 -0.2228
 7409SOL     OW22621   2.970   1.989   0.385  0.7410 -0.4221 -0.3508
 7409SOL    HW122622   3.005   2.075   0.409  1.4075 -0.4154 -1.2787
 7409SOL    HW222623   3.016   1.928   0.442  2.2057 -0.3946 -1.4312
 7410SOL     OW22624   0.871   4.966   1.342  0.0354 -0.2510 -0.5459
 7410SOL    HW122625   0.865   4.877   1.307 -2.0112 -1.8712  3.2941
 7410SOL    HW222626   0.783   5.001   1.331 -1.0544 -1.2387  3.3582
 7411SOL     OW22627   2.941   1.318   3.613  0.6016 -0.0317  0.3003
 7411SOL    HW122628   2.948   1.406   3.575 -0.7493 -0.2715 -0.5652
 7411SOL    HW222629   2.944   1.333   3.707 -0.1950  1.0159  0.1837
 7412SOL     OW22630   2.803   2.667   1.980 -0.0909  0.8741 -0.0367
 7412SOL    HW122631   2.886   2.712   1.965 -0.0736  0.9689  0.3215
 7412SOL    HW222632   2.819   2.577   1.954  0.3929  0.6903  0.8677
 7413SOL     OW22633   6.758   3.848   5.057  0.0301  0.5113 -0.3726
 7413SOL    HW122634   6.838   3.797   5.066 -0.7210 -0.5626  0.5104
 7413SOL    HW222635   6.777   3.932   5.100  0.8901  0.5461 -0.7983
 7414SOL     OW22636   1.963   1.918   2.768  0.6302 -0.2745 -0.1216
 7414SOL    HW122637   1.873   1.904   2.798 -0.0088  0.2147 -1.7074
 7414SOL    HW222638   1.957   1.918   2.673  2.4572 -1.1118 -0.2951
 7415SOL     OW22639   4.693   2.371   4.367  0.0353 -0.0141 -0.6699
 7415SOL    HW122640   4.648   2.413   4.294 -2.0489  0.7511  0.9733
 7415SOL    HW222641   4.746   2.441   4.406 -0.6373  0.1799 -0.0920
 7416SOL     OW22642   3.738   4.242   6.469  0.2306  0.7407  0.1273
 7416SOL    HW122643   3.794   4.165   6.466  0.8463  1.1744  0.2868
 7416SOL    HW222644   3.783   4.307   6.415 -0.3744  0.9352 -0.1584
 7417SOL     OW22645   3.993   3.496   6.714 -0.8442 -0.1141 -0.5406
 7417SOL    HW122646   3.907   3.521   6.750 -0.8537 -1.2201  0.2630
 7417SOL    HW222647   4.052   3.566   6.741 -1.4492  0.5595 -0.9321
 7418SOL     OW22648   4.737   1.152   5.808  0.1567 -0.4348  0.3451
 7418SOL    HW122649   4.816   1.196   5.839  1.3204  0.1815 -2.9871
 7418SOL    HW222650   4.679   1.224   5.781 -0.1000 -0.8750 -0.3099
 7419SOL     OW22651   0.362   2.510   1.170  0.2093 -0.0520 -0.2722
 7419SOL    HW122652   0.354   2.555   1.086  0.3074  0.3222 -0.0799
 7419SOL    HW222653   0.307   2.432   1.160 -0.4521  0.4182 -0.3893
 7420SOL     OW22654   1.021   3.283   6.334 -0.6013  0.0886 -0.1390
 7420SOL    HW122655   1.022   3.199   6.379  0.5612  0.0457 -0.2215
 7420SOL    HW222656   0.981   3.343   6.398  2.2018  0.3141  1.5632
 7421SOL     OW22657   1.894   6.698   0.387 -0.2670 -0.6520 -0.5705
 7421SOL    HW122658   1.883   6.687   0.481  0.0949 -0.2534 -0.4806
 7421SOL    HW222659   1.816   6.657   0.349 -1.1118  0.4085 -0.0442
 7422SOL     OW22660   4.068   1.159   2.529  0.1514 -0.2118  0.7394
 7422SOL    HW122661   4.054   1.254   2.522 -0.2109 -0.3653 -0.9808
 7422SOL    HW222662   4.077   1.143   2.623 -1.7313  1.2510  1.2217
 7423SOL     OW22663   4.022   2.242   2.262  0.0470  0.7597 -0.0096
 7423SOL    HW122664   3.959   2.171   2.253  1.0325 -0.6025  2.8453
 7423SOL    HW222665   4.107   2.200   2.261  0.7887  2.1865 -0.3893
 7424SOL     OW22666   2.507   1.479   5.877  0.2484 -0.2335  0.0436
 7424SOL    HW122667   2.501   1.504   5.785 -1.1760  1.3606  0.5249
 7424SOL    HW222668   2.443   1.409   5.887  1.3008 -1.3073 -0.4037
 7425SOL     OW22669   6.751   0.308   6.088  0.0922 -1.0826 -0.2166
 7425SOL    HW122670   6.755   0.395   6.048  0.4153 -1.0196 -0.0569
 7425SOL    HW222671   6.748   0.247   6.014 -2.0032 -0.8883 -0.3436
 7426SOL     OW22672   5.394   2.983   0.584 -0.0624 -0.1668  0.1138
 7426SOL    HW122673   5.424   2.967   0.494  0.4070  0.1636  0.2056
 7426SOL    HW222674   5.299   2.992   0.577 -0.1311 -1.1165 -0.2052
 7427SOL     OW22675   4.886   6.425   5.190 -0.0650  0.6574  0.3543
 7427SOL    HW122676   4.817   6.455   5.249  0.9170  1.3430  1.1976
 7427SOL    HW222677   4.883   6.329   5.196  0.5109  0.7067  2.1771
 7428SOL     OW22678   4.894   1.898   0.264  0.4852  0.6828  0.6393
 7428SOL    HW122679   4.959   1.828   0.257 -0.3878 -0.1022  0.3378
 7428SOL    HW222680   4.921   1.962   0.199 -0.7339 -1.0429 -1.6990
 7429SOL     OW22681   4.983   1.134   3.966 -0.2930 -0.2373 -0.3680
 7429SOL    HW122682   4.930   1.205   4.002 -0.4438  0.4360 -1.8453
 7429SOL    HW222683   4.940   1.054   3.996 -1.4678  0.2949 -0.5616
 7430SOL     OW22684   2.759   6.765   6.447 -0.2536  0.6481 -0.3326
 7430SOL    HW122685   2.777   6.788   6.356 -1.6380 -0.4870 -0.9339
 7430SOL    HW222686   2.692   6.696   6.441  0.4437 -0.2326  1.5116
 7431SOL     OW22687   5.063   4.009   5.175 -0.9438 -0.3005  0.4040
 7431SOL    HW122688   5.126   3.941   5.201  1.2765  1.3773 -0.3214
 7431SOL    HW222689   4.980   3.962   5.167  0.5274 -3.0063 -0.3161
 7432SOL     OW22690   0.559   5.481   0.923 -0.4457  0.6296 -0.0283
 7432SOL    HW122691   0.552   5.447   1.012  0.5692  1.1366  0.2601
 7432SOL    HW222692   0.595   5.409   0.872  0.1319  0.7386  0.2298
 7433SOL     OW22693   2.664   1.364   0.006 -0.3316  0.3786  0.3171
 7433SOL    HW122694   2.700   1.421  -0.063  1.0612  1.3449  1.7550
 7433SOL    HW222695   2.736   1.305   0.028 -1.5788 -1.6196 -0.7421
 7434SOL     OW22696   4.400   0.103   5.274  0.0043  0.5616 -0.0572
 7434SOL    HW122697   4.362   0.159   5.207 -0.6433 -0.0474 -0.2065
 7434SOL    HW222698   4.430   0.164   5.342 -1.0362  1.0677 -0.0392
 7435SOL     OW22699   6.703   1.314   0.181 -0.1450  0.6400  1.1365
 7435SOL    HW122700   6.716   1.333   0.274 -1.6936  3.8769  0.8322
 7435SOL    HW222701   6.616   1.349   0.161 -0.7091 -1.7103 -1.1876
 7436SOL     OW22702   1.216   5.123   6.350 -0.5415 -0.3158 -0.2082
 7436SOL    HW122703   1.281   5.187   6.321 -1.9133  1.0619 -0.3561
 7436SOL    HW222704   1.212   5.133   6.445 -0.8381 -0.0856 -0.2428
 7437SOL     OW22705   5.511   0.118   5.161 -0.2790  0.1154 -0.1140
 7437SOL    HW122706   5.550   0.190   5.211 -0.4369  0.7512 -0.8962
 7437SOL    HW222707   5.438   0.088   5.216 -0.0349  0.3508  0.3499
 7438SOL     OW22708   0.641   1.099   5.187 -0.0932  0.0348  0.0412
 7438SOL    HW122709   0.636   1.010   5.152 -0.5657  0.2782 -0.5162
 7438SOL    HW222710   0.735   1.117   5.193  0.0015 -0.3456 -0.2392
 7439SOL     OW22711   6.480   6.182   4.462  0.1714  0.3330 -0.5127
 7439SOL    HW122712   6.431   6.197   4.543  0.1011 -2.3945  0.0327
 7439SOL    HW222713   6.558   6.238   4.471 -0.6530  1.3499  0.6274
 7440SOL     OW22714   0.890   4.680   3.985 -0.4248  0.3365  0.2701
 7440SOL    HW122715   0.819   4.643   4.037 -1.0135  2.1167  0.7861
 7440SOL    HW222716   0.853   4.690   3.897  0.4477 -2.2988 -0.5084
 7441SOL     OW22717   2.791   3.569   6.766 -0.4328 -0.2234  0.1135
 7441SOL    HW122718   2.777   3.616   6.848 -0.7140 -1.1930  0.6373
 7441SOL    HW222719   2.755   3.482   6.782 -0.5936 -0.3932 -1.0847
 7442SOL     OW22720   5.156   3.936   6.842  0.4437 -0.2131 -0.3944
 7442SOL    HW122721   5.199   3.992   6.778 -0.5174 -0.6124 -1.4138
 7442SOL    HW222722   5.227   3.892   6.888  1.1805  1.1343 -0.2063
 7443SOL     OW22723   6.378   5.586   1.215 -0.2833  0.8980 -0.3745
 7443SOL    HW122724   6.377   5.680   1.201 -0.9143  0.9811  0.2013
 7443SOL    HW222725   6.391   5.575   1.309 -1.1586  0.4351 -0.2917
 7444SOL     OW22726   0.335   6.618   4.101 -0.1401  0.2742 -0.0382
 7444SOL    HW122727   0.292   6.536   4.125 -1.8372  0.7606 -1.2525
 7444SOL    HW222728   0.377   6.648   4.182  1.4168 -2.2610  0.2140
 7445SOL     OW22729   2.241   2.978   6.008  0.2905  0.5910  0.2621
 7445SOL    HW122730   2.271   2.890   5.987  0.4950  0.9144 -0.8716
 7445SOL    HW222731   2.156   2.965   6.050  0.5838 -0.1689  0.6296
 7446SOL     OW22732   6.386   6.150   4.933 -0.1959 -0.2809  0.0336
 7446SOL    HW122733   6.481   6.156   4.944 -0.2112 -1.4954  1.0215
 7446SOL    HW222734   6.351   6.158   5.022 -1.0422  0.2658 -0.3316
 7447SOL     OW22735   6.046   6.213   5.843 -0.2302  0.1382 -0.0974
 7447SOL    HW122736   5.964   6.262   5.849  0.7286  1.9904 -1.1795
 7447SOL    HW222737   6.021   6.131   5.800 -1.3170  1.2897 -1.8177
 7448SOL     OW22738   1.051   3.082   2.373  0.1210 -0.2594  0.2498
 7448SOL    HW122739   1.026   2.995   2.341  2.2177 -1.4320  1.5716
 7448SOL    HW222740   1.147   3.084   2.365  0.1336  1.8853  0.3957
 7449SOL     OW22741   3.318   4.557   4.451  0.2554 -0.0909  0.2036
 7449SOL    HW122742   3.297   4.538   4.360  1.5574  0.6654 -0.2713
 7449SOL    HW222743   3.386   4.494   4.474  0.2659  0.0321  0.5127
 7450SOL     OW22744   6.323   2.816   2.996 -0.0352 -0.4801  0.1762
 7450SOL    HW122745   6.318   2.801   3.090 -0.4246  0.8638  0.3937
 7450SOL    HW222746   6.406   2.862   2.983 -0.8334  1.0137  0.1442
 7451SOL     OW22747   5.955   2.399   6.257 -0.2240  0.0172  0.4203
 7451SOL    HW122748   6.042   2.379   6.221  0.4409  1.5522  1.0498
 7451SOL    HW222749   5.930   2.320   6.305  1.4213 -0.0368  1.2890
 7452SOL     OW22750   2.227   2.468   6.233  0.5048  0.4497 -0.5187
 7452SOL    HW122751   2.301   2.513   6.276  0.4711  0.7466 -0.7661
 7452SOL    HW222752   2.265   2.387   6.199 -0.0125 -1.1539  2.3847
 7453SOL     OW22753   4.274   6.828   0.793  0.0080  0.3512 -0.2142
 7453SOL    HW122754   4.270   6.799   0.884  0.5343  0.2956 -0.2035
 7453SOL    HW222755   4.206   6.778   0.748 -0.1380  0.2547  0.1147
 7454SOL     OW22756   5.941   0.849   6.108 -0.0997 -0.1297  0.3466
 7454SOL    HW122757   5.986   0.765   6.109 -1.6108 -0.9949 -0.2549
 7454SOL    HW222758   5.914   0.861   6.017 -0.5930  0.6097  0.5785
 7455SOL     OW22759   2.588   4.401   6.792  0.4473 -0.4629  0.1173
 7455SOL    HW122760   2.649   4.427   6.861  0.2551 -1.7787  0.7982
 7455SOL    HW222761   2.576   4.307   6.804 -1.0093 -0.3891 -0.5694
 7456SOL     OW22762   1.719   2.123   2.035 -0.2944  0.2967  0.2587
 7456SOL    HW122763   1.648   2.141   1.973 -0.6853 -0.0422  0.5917
 7456SOL    HW222764   1.694   2.172   2.114 -0.5675 -0.4312  0.6380
 7457SOL     OW22765   6.572   2.489   3.072 -0.2633 -0.2130 -0.7284
 7457SOL    HW122766   6.543   2.398   3.075 -0.1490 -0.2096  1.5562
 7457SOL    HW222767   6.523   2.527   2.999 -0.3156 -2.0755 -1.7302
 7458SOL     OW22768   0.012   6.639   0.667 -0.4876 -0.2108  0.4933
 7458SOL    HW122769  -0.004   6.709   0.603  0.7804  0.1195  0.5115
 7458SOL    HW222770   0.099   6.605   0.644 -0.6791 -1.1456  1.0867
 7459SOL     OW22771   1.381   3.772   1.401 -0.6321 -0.0587 -0.1014
 7459SOL    HW122772   1.443   3.700   1.388 -0.6032 -0.0700  0.0977
 7459SOL    HW222773   1.381   3.786   1.496 -1.5803 -0.6288 -0.0094
 7460SOL     OW22774   5.219   2.535   6.653  0.0292 -0.4517 -0.2065
 7460SOL    HW122775   5.255   2.611   6.698 -0.4572  0.9649 -2.0955
 7460SOL    HW222776   5.136   2.518   6.696 -0.1113  0.4399 -0.1240
 7461SOL     OW22777   3.315   6.175   3.536  0.1955 -0.2212 -0.0571
 7461SOL    HW122778   3.353   6.203   3.619  1.1713  0.3687 -0.6858
 7461SOL    HW222779   3.385   6.125   3.494 -0.2581 -0.4239 -0.5721
 7462SOL     OW22780   1.484   5.716   3.713  0.4074  0.2669 -0.1303
 7462SOL    HW122781   1.461   5.703   3.805  0.0199 -1.2910 -0.4187
 7462SOL    HW222782   1.543   5.791   3.713  1.6832 -0.6765  1.5966
 7463SOL     OW22783   6.518   1.847   0.087 -0.1488 -0.2822 -0.0143
 7463SOL    HW122784   6.459   1.838   0.012  1.5793  0.0904 -1.4904
 7463SOL    HW222785   6.473   1.906   0.146 -0.9697  0.5492 -1.4134
 7464SOL     OW22786   3.291   6.866   2.991  0.5112 -0.2267  0.3352
 7464SOL    HW122787   3.255   6.822   2.914  0.8486  0.7437 -0.3935
 7464SOL    HW222788   3.376   6.900   2.963  0.5570  0.3035  1.0763
 7465SOL     OW22789   1.066   4.548   5.854 -0.1402  0.0657  0.1781
 7465SOL    HW122790   1.000   4.511   5.795  0.0097  2.1343 -1.3717
 7465SOL    HW222791   1.150   4.514   5.820 -0.1756 -0.1509  0.3027
 7466SOL     OW22792   1.491   1.669   2.938  0.0326 -0.4679 -0.4212
 7466SOL    HW122793   1.399   1.692   2.936 -0.3307 -1.8697 -0.8206
 7466SOL    HW222794   1.503   1.610   2.864  1.5481  0.6902 -1.1695
 7467SOL     OW22795   2.414   1.142   0.598 -0.1040  0.5494  0.0559
 7467SOL    HW122796   2.488   1.083   0.582 -1.0029 -0.5884 -0.0372
 7467SOL    HW222797   2.426   1.171   0.688 -0.1566 -0.5340  0.4242
 7468SOL     OW22798   4.586   5.852   5.240  0.6651 -0.4400  0.4710
 7468SOL    HW122799   4.561   5.815   5.325 -3.5983 -0.5665 -0.6124
 7468SOL    HW222800   4.581   5.947   5.253 -2.6652 -0.4343 -0.1339
 7469SOL     OW22801   6.613   0.004   1.937 -0.3351 -0.3111  0.1201
 7469SOL    HW122802   6.612   0.097   1.917 -0.6315 -0.2820  0.2763
 7469SOL    HW222803   6.681  -0.032   1.879  2.0629  0.4837  2.2702
 7470SOL     OW22804   1.659   4.336   0.022  1.0187 -0.0327 -0.1351
 7470SOL    HW122805   1.674   4.305  -0.068  3.8537  2.8491 -0.8401
 7470SOL    HW222806   1.745   4.331   0.063  0.5420  2.0326  1.2382
 7471SOL     OW22807   0.946   6.108   5.972  0.3640 -0.0135 -0.3078
 7471SOL    HW122808   0.901   6.176   6.022 -1.0849 -0.4275 -0.9903
 7471SOL    HW222809   1.035   6.109   6.006  0.0869  1.4515  0.4758
 7472SOL     OW22810   2.756   5.208   3.023  0.2549  0.3918  0.1860
 7472SOL    HW122811   2.727   5.298   3.017 -0.3405  0.2627  0.9317
 7472SOL    HW222812   2.794   5.188   2.938 -0.6302  0.9894 -0.3580
 7473SOL     OW22813   6.839   0.935   3.139 -0.1314  0.2199 -0.0872
 7473SOL    HW122814   6.776   0.866   3.162 -0.9387  0.4254 -1.5575
 7473SOL    HW222815   6.785   1.014   3.130  0.1754  0.2389 -2.1558
 7474SOL     OW22816   2.683   5.493   1.229 -0.3217 -0.3963  0.0470
 7474SOL    HW122817   2.651   5.403   1.227 -2.2601  0.1161  2.3353
 7474SOL    HW222818   2.634   5.533   1.301  2.4638  1.7454  0.9053
 7475SOL     OW22819   5.275   3.767   1.657  0.4083 -0.4811  0.6920
 7475SOL    HW122820   5.214   3.750   1.585  0.1595  0.1298  0.7517
 7475SOL    HW222821   5.303   3.857   1.644  1.4689 -0.8205  0.5511
 7476SOL     OW22822   0.030   3.157   1.455 -0.6150  0.3760  0.6634
 7476SOL    HW122823  -0.038   3.093   1.478  0.3515 -0.6626  0.7007
 7476SOL    HW222824  -0.013   3.217   1.394 -1.4362 -0.5306  0.3298
 7477SOL     OW22825   6.768   0.016   1.692 -0.4270 -0.4023  0.6937
 7477SOL    HW122826   6.715  -0.036   1.632  1.4784 -0.9790 -0.5736
 7477SOL    HW222827   6.796   0.092   1.640 -0.5512  0.2517  1.5467
 7478SOL     OW22828   5.723   5.976   6.496 -0.1838 -0.2843  0.3952
 7478SOL    HW122829   5.807   6.009   6.526 -0.6318  0.0375  1.3383
 7478SOL    HW222830   5.664   5.987   6.571 -1.5825  1.4628 -0.8633
 7479SOL     OW22831   2.064   2.800   3.513 -0.0228  0.1172  0.0490
 7479SOL    HW122832   2.010   2.721   3.512 -1.3917  1.0060  0.3190
 7479SOL    HW222833   2.139   2.779   3.458 -0.7365 -1.1177 -0.4874
 7480SOL     OW22834   3.264   2.472   5.879  0.2113 -0.1713  0.3951
 7480SOL    HW122835   3.320   2.397   5.856 -0.3241 -0.2906 -0.6072
 7480SOL    HW222836   3.278   2.535   5.808 -0.7922 -0.1468  0.1930
 7481SOL     OW22837   3.848   2.528   4.224 -0.3612  0.5172  0.8395
 7481SOL    HW122838   3.886   2.447   4.190 -1.4830 -0.2444  1.3518
 7481SOL    HW222839   3.826   2.579   4.146  1.1835  0.7569  0.5225
 7482SOL     OW22840   4.116   6.708   5.242 -0.4837  0.0037  0.0132
 7482SOL    HW122841   4.154   6.740   5.324 -0.5239  0.4834 -0.1515
 7482SOL    HW222842   4.094   6.787   5.194  2.2398 -0.1694 -1.7533
 7483SOL     OW22843   6.386   2.324   0.963  0.4117  0.4100  0.2929
 7483SOL    HW122844   6.290   2.328   0.953  0.5541 -0.4241 -1.9693
 7483SOL    HW222845   6.408   2.405   1.009 -1.4072  0.3932  1.3066
 7484SOL     OW22846   5.110   4.647   3.772 -0.7007 -0.4459  0.0314
 7484SOL    HW122847   5.118   4.607   3.859  0.9184  0.7504  0.4764
 7484SOL    HW222848   5.111   4.572   3.712  0.9167 -1.1745  0.9042
 7485SOL     OW22849   2.015   0.978   3.600 -0.1125  0.5851  0.4288
 7485SOL    HW122850   1.927   0.961   3.568  0.8287  0.0816 -2.0851
 7485SOL    HW222851   2.028   1.072   3.588  0.1182  0.4529 -0.3804
 7486SOL     OW22852   0.135   2.066   2.819  0.5707  0.3423 -0.5493
 7486SOL    HW122853   0.155   2.116   2.740  1.3179 -0.1430 -0.6721
 7486SOL    HW222854   0.105   2.132   2.882 -0.3476  0.6920 -1.3260
 7487SOL     OW22855   1.068   1.426   4.139  0.6410 -0.8142 -0.1218
 7487SOL    HW122856   1.006   1.354   4.150 -0.9272  0.6983  1.9216
 7487SOL    HW222857   1.075   1.439   4.045 -0.9918 -2.0203 -0.4385
 7488SOL     OW22858   6.016   4.076   2.316  0.4682  0.0598  0.6944
 7488SOL    HW122859   5.999   3.997   2.367  0.1350  0.5692  1.3886
 7488SOL    HW222860   6.102   4.105   2.345  0.2935  0.3313  0.9405
 7489SOL     OW22861   2.499   0.323   2.501  0.1184  0.4103 -0.0082
 7489SOL    HW122862   2.502   0.373   2.420 -0.6349 -0.9813 -0.9307
 7489SOL    HW222863   2.571   0.358   2.553  0.7345  1.2064 -1.3360
 7490SOL     OW22864   0.005   2.107   5.958 -0.5154  0.0428 -0.6396
 7490SOL    HW122865   0.090   2.149   5.968 -0.6144  1.1304 -3.3936
 7490SOL    HW222866   0.005   2.074   5.868 -2.4238 -1.3403 -0.1989
 7491SOL     OW22867   5.255   6.770   3.882 -0.0569  0.4220  0.4294
 7491SOL    HW122868   5.322   6.754   3.949 -1.0486  2.4003  2.0328
 7491SOL    HW222869   5.251   6.689   3.832  1.0801 -1.0031  2.4779
 7492SOL     OW22870   0.324   5.677   4.020  0.2956 -0.6777  0.0096
 7492SOL    HW122871   0.402   5.631   3.989 -0.8300 -1.0957 -2.4378
 7492SOL    HW222872   0.290   5.721   3.942 -0.3162  1.9258  1.6388
 7493SOL     OW22873   1.016   6.862   0.503  0.2155  0.3932  0.0312
 7493SOL    HW122874   1.000   6.830   0.592 -1.0942 -0.9672 -0.6391
 7493SOL    HW222875   1.012   6.784   0.449 -0.7533  1.4094 -1.4293
 7494SOL     OW22876   1.807   5.038   5.249 -0.5137  0.1662  0.0377
 7494SOL    HW122877   1.767   5.045   5.163 -0.6275  0.0003  0.0776
 7494SOL    HW222878   1.827   5.129   5.273 -2.7961  0.5214  0.9111
 7495SOL     OW22879   2.030   6.601   6.453  0.3641 -0.5819 -0.0614
 7495SOL    HW122880   2.024   6.678   6.511 -1.2497  0.3183 -1.3293
 7495SOL    HW222881   2.111   6.558   6.480  2.9567  3.0997 -1.1108
 7496SOL     OW22882   4.964   3.406   3.195 -0.0454 -0.1435 -0.0888
 7496SOL    HW122883   4.951   3.415   3.289 -2.3915 -0.6458 -0.3021
 7496SOL    HW222884   5.009   3.487   3.169 -1.2878  1.0000  1.1617
 7497SOL     OW22885   2.194   4.667   6.848  0.1398 -0.1575  0.1715
 7497SOL    HW122886   2.196   4.575   6.871  0.0135  0.0842  1.2006
 7497SOL    HW222887   2.105   4.683   6.817  0.0782 -0.3125  0.2735
 7498SOL     OW22888   3.456   2.427   3.775 -0.1614 -0.5417  0.2213
 7498SOL    HW122889   3.407   2.368   3.717 -0.2603 -1.7382  1.4859
 7498SOL    HW222890   3.463   2.508   3.725 -1.0110 -1.2464 -1.1110
 7499SOL     OW22891   6.788   6.286   6.808 -0.3407  0.5728 -0.0748
 7499SOL    HW122892   6.810   6.306   6.717  0.7079  1.2087  0.3101
 7499SOL    HW222893   6.849   6.217   6.833 -0.4844  0.5489  0.2107
 7500SOL     OW22894   1.045   5.397   4.120  0.1217  0.5933  0.6382
 7500SOL    HW122895   1.137   5.414   4.102  0.2622 -2.1562 -2.3100
 7500SOL    HW222896   1.001   5.481   4.107  1.9641  1.4645 -0.2179
 7501SOL     OW22897   0.839   1.014   4.433 -0.5515 -0.2773 -0.3563
 7501SOL    HW122898   0.869   0.931   4.471  0.1801  0.4344  0.6883
 7501SOL    HW222899   0.880   1.081   4.488 -0.7273  0.7849 -1.4797
 7502SOL     OW22900   1.737   5.183   4.551 -0.0736 -0.2423 -0.1754
 7502SOL    HW122901   1.659   5.128   4.554 -2.2866  2.6645  0.1376
 7502SOL    HW222902   1.704   5.273   4.560  3.4427  1.0785  2.0433
 7503SOL     OW22903   1.876   6.130   2.816 -0.6180  0.4490 -0.1144
 7503SOL    HW122904   1.957   6.107   2.860  0.2748  1.7144 -1.0339
 7503SOL    HW222905   1.812   6.141   2.887 -0.1570 -1.1065  0.5793
 7504SOL     OW22906   5.821   1.520   2.797  0.0154  0.3146 -0.6299
 7504SOL    HW122907   5.892   1.583   2.785  0.6784 -0.6056 -1.7698
 7504SOL    HW222908   5.865   1.439   2.824 -0.7839  0.2086  0.4391
 7505SOL     OW22909   6.337   5.529   3.800 -0.6142 -0.4873 -0.3323
 7505SOL    HW122910   6.367   5.545   3.710  0.7065 -0.6051  0.0749
 7505SOL    HW222911   6.247   5.560   3.800 -0.3197  0.4495 -1.4360
 7506SOL     OW22912   3.697   4.549   5.499 -0.2706 -0.3426 -1.0299
 7506SOL    HW122913   3.706   4.519   5.408  0.5262  0.6618 -1.3100
 7506SOL    HW222914   3.637   4.623   5.493  0.2974  0.1434 -0.8494
 7507SOL     OW22915   2.097   1.886   2.180 -0.6717 -0.3746 -0.0229
 7507SOL    HW122916   2.107   1.948   2.252  0.5461  0.5480 -0.9450
 7507SOL    HW222917   2.004   1.889   2.159 -1.3195 -1.5995  2.2660
 7508SOL     OW22918   5.544   4.953   1.307  0.0253 -0.3533  0.0799
 7508SOL    HW122919   5.463   4.936   1.258 -0.3792 -1.4288  1.0822
 7508SOL    HW222920   5.614   4.941   1.242 -0.5743 -0.0545 -0.6409
 7509SOL     OW22921   1.561   4.939   3.697 -0.0574 -0.1337  0.1731
 7509SOL    HW122922   1.581   4.982   3.614 -0.2906  0.0230  0.1957
 7509SOL    HW222923   1.524   5.009   3.752  0.3668 -0.1736  0.5087
 7510SOL     OW22924   2.470   2.645   3.601 -0.0153  0.1101  0.0898
 7510SOL    HW122925   2.513   2.728   3.578  0.1066  0.1001  0.2787
 7510SOL    HW222926   2.536   2.578   3.583 -0.3576 -0.0106 -0.7392
 7511SOL     OW22927   1.786   2.607   0.504  0.4920 -0.2092 -0.6961
 7511SOL    HW122928   1.707   2.556   0.487  0.1268 -0.5919  1.6932
 7511SOL    HW222929   1.851   2.572   0.443 -1.0147 -0.2334 -2.3570
 7512SOL     OW22930   4.405   5.303   5.075 -0.0399 -0.1572 -0.2596
 7512SOL    HW122931   4.390   5.394   5.049 -1.1134  0.0711  1.0378
 7512SOL    HW222932   4.490   5.281   5.037 -0.0410  1.1775 -1.1185
 7513SOL     OW22933   6.439   1.969   3.701  0.1610  0.0087 -0.0298
 7513SOL    HW122934   6.470   2.037   3.641  0.5395 -0.1343  0.0027
 7513SOL    HW222935   6.402   1.902   3.644 -1.1484  0.6862 -0.0266
 7514SOL     OW22936   4.758   2.571   2.388  0.4403 -0.0092 -0.0059
 7514SOL    HW122937   4.784   2.607   2.473  2.8344  0.6985 -0.9380
 7514SOL    HW222938   4.704   2.495   2.409  1.2634 -0.0721  2.1535
 7515SOL     OW22939   2.170   0.734   0.007 -0.3940  0.0391 -0.2631
 7515SOL    HW122940   2.184   0.822  -0.030  1.3505  0.5157  1.3433
 7515SOL    HW222941   2.091   0.702  -0.036  0.7774  1.0059 -3.4390
 7516SOL     OW22942   1.478   5.564   3.492 -0.0378 -0.5365 -0.0102
 7516SOL    HW122943   1.484   5.619   3.570  0.5044  0.0323 -0.4410
 7516SOL    HW222944   1.385   5.544   3.484 -0.2513  0.3494  0.1407
 7517SOL     OW22945   2.604   5.298   0.227 -0.1541  0.6186  0.1022
 7517SOL    HW122946   2.578   5.209   0.203  3.3775 -1.6494  3.4289
 7517SOL    HW222947   2.557   5.315   0.309  1.6034  0.3457  1.2115
 7518SOL     OW22948   4.048   3.333   3.138  0.1425  0.3564  0.2864
 7518SOL    HW122949   3.981   3.311   3.203  1.0518 -0.5780  0.9252
 7518SOL    HW222950   4.011   3.407   3.091 -1.9088 -0.9149 -0.2260
 7519SOL     OW22951   0.144   0.887   3.203 -0.5830  0.4435  0.4773
 7519SOL    HW122952   0.209   0.943   3.160  0.3532  0.8285  2.2594
 7519SOL    HW222953   0.059   0.920   3.173  0.0080 -0.0086 -1.8329
 7520SOL     OW22954   3.812   1.623   0.041 -0.1771  0.3009 -0.0905
 7520SOL    HW122955   3.783   1.670  -0.037  1.7835  0.4177 -0.8003
 7520SOL    HW222956   3.907   1.638   0.046  0.1692 -1.7048  0.9217
 7521SOL     OW22957   3.209   3.649   4.131  0.3522  0.4976  0.5476
 7521SOL    HW122958   3.265   3.588   4.083 -0.6321  1.8608 -2.6497
 7521SOL    HW222959   3.245   3.735   4.110 -0.5996  1.1966  1.6790
 7522SOL     OW22960   3.243   4.220   6.278 -0.7224  0.1269 -0.5629
 7522SOL    HW122961   3.332   4.186   6.273 -0.9996 -1.1863  1.8643
 7522SOL    HW222962   3.190   4.156   6.229 -0.4923  0.1722 -0.8681
 7523SOL     OW22963   4.407   0.994   0.116  0.9971 -0.1570  0.0825
 7523SOL    HW122964   4.452   0.991   0.032 -0.6521  1.7007 -0.9458
 7523SOL    HW222965   4.423   1.082   0.149  0.7044 -0.4991  1.2114
 7524SOL     OW22966   2.031   0.338   6.730 -0.3297  0.2398 -0.2308
 7524SOL    HW122967   1.996   0.426   6.741 -0.3319  0.2025  0.0913
 7524SOL    HW222968   1.959   0.280   6.757  0.0580  0.1684  0.7177
 7525SOL     OW22969   6.172   5.931   6.451 -0.3179  0.0974  0.3275
 7525SOL    HW122970   6.245   5.869   6.457 -0.0038  0.4883  0.5143
 7525SOL    HW222971   6.212   6.013   6.424 -0.7519  0.1970 -0.0319
 7526SOL     OW22972   5.228   2.187   4.713  0.0165 -0.4132 -0.2900
 7526SOL    HW122973   5.247   2.115   4.654 -0.9210  0.1238 -1.2809
 7526SOL    HW222974   5.202   2.259   4.656 -1.6393 -0.0987  0.7740
 7527SOL     OW22975   6.345   6.543   3.259  0.1218 -0.8059 -0.1841
 7527SOL    HW122976   6.382   6.558   3.172 -0.1805  2.3788  0.1211
 7527SOL    HW222977   6.253   6.568   3.250 -0.0802 -1.1157  0.8923
 7528SOL     OW22978   5.263   2.866   1.191  0.0329 -0.4826  0.3285
 7528SOL    HW122979   5.186   2.845   1.138 -0.2285  0.0212  0.5025
 7528SOL    HW222980   5.228   2.907   1.270  0.5537  2.2446 -0.7304
 7529SOL     OW22981   0.153   5.408   5.598 -0.3188  0.1148 -0.5168
 7529SOL    HW122982   0.080   5.348   5.614 -0.6267  0.7281  0.4130
 7529SOL    HW222983   0.189   5.379   5.514 -1.3405 -0.4811 -0.7687
 7530SOL     OW22984   5.718   5.857   1.870 -0.2852  0.4219  0.2867
 7530SOL    HW122985   5.736   5.819   1.956 -0.1777  1.9738  0.9774
 7530SOL    HW222986   5.804   5.864   1.828 -0.1986  0.6905  0.5062
 7531SOL     OW22987   0.383   5.262   5.984  0.1688 -0.0425 -0.1392
 7531SOL    HW122988   0.466   5.277   5.938  0.4116 -2.4080 -0.5955
 7531SOL    HW222989   0.324   5.228   5.916  0.6339 -3.9880  1.1773
 7532SOL     OW22990   4.713   2.446   5.881  0.2958  0.0542  0.2076
 7532SOL    HW122991   4.694   2.471   5.972  0.9487  0.1897  0.3190
 7532SOL    HW222992   4.670   2.514   5.828 -0.6744 -0.4121  0.3810
 7533SOL     OW22993   4.198   4.713   2.020 -0.4651  0.2819 -0.6484
 7533SOL    HW122994   4.198   4.722   2.115  2.1179  1.5250 -0.6676
 7533SOL    HW222995   4.222   4.800   1.988  2.1991 -0.8891 -2.1907
 7534SOL     OW22996   2.338   0.694   3.521 -0.2401  0.4862  0.1261
 7534SOL    HW122997   2.245   0.700   3.498 -0.6623  1.2477  1.8683
 7534SOL    HW222998   2.378   0.650   3.446 -1.6541  1.8623 -1.5243
 7535SOL     OW22999   5.765   2.409   3.207 -0.2876 -0.0298 -0.1949
 7535SOL    HW123000   5.854   2.372   3.202 -1.0504 -1.9392 -0.3156
 7535SOL    HW223001   5.753   2.431   3.299  0.2452  0.0355 -0.1387
 7536SOL     OW23002   2.738   2.875   5.364 -0.1502  0.1144 -0.7054
 7536SOL    HW123003   2.658   2.928   5.362  0.3189  1.0603  1.7208
 7536SOL    HW223004   2.714   2.797   5.414  0.1872 -0.0848 -0.8499
 7537SOL     OW23005   5.218   4.340   5.915 -0.1444 -0.4667  0.1807
 7537SOL    HW123006   5.159   4.289   5.971  0.2351 -0.5578  0.4967
 7537SOL    HW223007   5.220   4.290   5.833  0.4812 -1.1512  0.5970
 7538SOL     OW23008   4.687   3.536   6.457  0.2156 -0.0525  0.2983
 7538SOL    HW123009   4.735   3.479   6.397 -0.3460 -0.5875  0.3585
 7538SOL    HW223010   4.689   3.490   6.540 -1.2610 -0.5640  0.0730
 7539SOL     OW23011   1.976   1.670   5.989  0.2544 -0.1417 -0.7448
 7539SOL    HW123012   1.926   1.708   6.062  1.2249 -0.3660  0.0732
 7539SOL    HW223013   1.910   1.642   5.926 -0.6424 -0.2320  0.2031
 7540SOL     OW23014   4.366   2.230   2.388  0.0166  0.0172  0.3325
 7540SOL    HW123015   4.443   2.283   2.408  0.1380 -0.0441  0.0294
 7540SOL    HW223016   4.333   2.203   2.474 -1.6765  2.8432  0.7171
 7541SOL     OW23017   1.455   6.742   4.171  0.1407 -0.2744 -0.5648
 7541SOL    HW123018   1.442   6.836   4.163  1.2718 -0.1288 -0.9192
 7541SOL    HW223019   1.452   6.709   4.081 -2.9065 -1.0222 -0.3201
 7542SOL     OW23020   0.875   4.769   0.549  0.0440  0.3110 -0.3678
 7542SOL    HW123021   0.917   4.703   0.605 -0.2886  0.2764 -0.1546
 7542SOL    HW223022   0.940   4.838   0.540 -0.7865  1.5704  2.2391
 7543SOL     OW23023   1.977   2.338   0.712 -0.1194  0.2066  0.3328
 7543SOL    HW123024   1.975   2.289   0.630  1.4326 -3.9326  2.4960
 7543SOL    HW223025   2.038   2.410   0.696 -0.0348 -0.3582 -2.2025
 7544SOL     OW23026   2.139   2.203   5.260 -0.2041 -0.2899 -0.2430
 7544SOL    HW123027   2.068   2.145   5.234 -0.2466 -0.6759  0.6996
 7544SOL    HW223028   2.100   2.291   5.259 -0.7281 -0.5057  0.3439
 7545SOL     OW23029   3.633   4.872   5.684 -0.4992  0.1420 -0.1028
 7545SOL    HW123030   3.636   4.945   5.746  0.8952  0.1361 -0.1350
 7545SOL    HW223031   3.725   4.855   5.663 -0.4286 -3.5807  2.2266
 7546SOL     OW23032   2.536   2.230   3.485 -0.2277  0.0911  0.9153
 7546SOL    HW123033   2.468   2.182   3.532 -0.7658  0.7967  0.8859
 7546SOL    HW223034   2.612   2.227   3.542 -0.6915  0.4281  1.5621
 7547SOL     OW23035   5.904   1.272   6.041 -0.5725 -0.4774 -0.0271
 7547SOL    HW123036   5.829   1.274   6.102 -0.1967  1.4513  0.4395
 7547SOL    HW223037   5.962   1.205   6.077 -0.7811 -0.0022  1.2520
 7548SOL     OW23038   5.487   2.238   0.729 -0.2294 -0.4940  0.6513
 7548SOL    HW123039   5.470   2.162   0.785 -0.8099 -0.0897  1.0327
 7548SOL    HW223040   5.400   2.270   0.704 -0.0018  0.2348  0.7604
 7549SOL     OW23041   6.864   3.343   6.208  0.1373 -0.4632 -0.0548
 7549SOL    HW123042   6.771   3.363   6.197 -0.2190 -2.5349 -1.4006
 7549SOL    HW223043   6.906   3.428   6.221 -1.9023  0.5323  0.4628
 7550SOL     OW23044   5.443   1.357   6.339  0.0483  0.2261 -0.1539
 7550SOL    HW123045   5.461   1.434   6.393 -0.0715  1.6540 -2.0471
 7550SOL    HW223046   5.388   1.390   6.268 -1.1145 -1.8950 -0.3205
 7551SOL     OW23047   2.941   6.203   3.757  0.2776 -0.0064 -0.2546
 7551SOL    HW123048   2.988   6.176   3.836  3.9553  1.2728 -1.7870
 7551SOL    HW223049   2.944   6.126   3.701 -1.1026 -0.4730  0.2769
 7552SOL     OW23050   3.387   1.597   0.229 -0.1387 -0.1246 -0.2634
 7552SOL    HW123051   3.360   1.532   0.165  0.6134 -0.1892 -0.5272
 7552SOL    HW223052   3.307   1.618   0.277 -0.8131  0.1916 -1.4526
 7553SOL     OW23053   4.835   4.933   4.972 -0.4229  0.0444  0.0145
 7553SOL    HW123054   4.888   4.943   5.051  0.2547  0.5023 -0.4865
 7553SOL    HW223055   4.852   4.844   4.942 -0.9996 -0.2733  0.6005
 7554SOL     OW23056   4.604   3.224   5.936 -0.4706 -0.1647 -0.5392
 7554SOL    HW123057   4.644   3.147   5.895 -1.8741 -0.1711 -1.9859
 7554SOL    HW223058   4.662   3.244   6.010  0.5747 -1.8872 -0.8251
 7555SOL     OW23059   4.565   1.620   0.481 -0.5103  0.4194  0.6243
 7555SOL    HW123060   4.571   1.528   0.505 -0.6674  0.1415 -0.3685
 7555SOL    HW223061   4.476   1.630   0.445 -0.2779  0.8057  0.1416
 7556SOL     OW23062   6.552   2.399   5.996  0.6309 -0.8347  0.1806
 7556SOL    HW123063   6.645   2.378   6.008  0.7796 -0.3712 -0.1109
 7556SOL    HW223064   6.534   2.467   6.060  0.7065 -0.3512 -0.3018
 7557SOL     OW23065   4.796   6.861   2.259 -0.4721  0.7880 -0.6967
 7557SOL    HW123066   4.746   6.780   2.268  1.9805 -0.8914 -1.2384
 7557SOL    HW223067   4.822   6.882   2.349  1.0734 -0.5620 -0.7853
 7558SOL     OW23068   6.065   1.476   0.547  0.3574  0.7502 -0.2740
 7558SOL    HW123069   6.096   1.564   0.566 -0.7723  0.8936  1.1070
 7558SOL    HW223070   6.104   1.421   0.615  0.1583  0.3781 -0.4539
 7559SOL     OW23071   4.999   5.218   0.924  0.0069  0.1302  0.3538
 7559SOL    HW123072   4.943   5.178   0.991 -1.2452 -0.2159 -0.8334
 7559SOL    HW223073   5.003   5.311   0.947 -1.6589  0.2904  0.1144
 7560SOL     OW23074   6.261   5.969   1.638  0.1330  0.3474 -0.3400
 7560SOL    HW123075   6.353   5.948   1.623 -0.4367 -2.8592 -0.0899
 7560SOL    HW223076   6.253   5.979   1.733 -0.1965 -2.4763  0.0214
 7561SOL     OW23077   5.328   4.803   3.871 -0.0288  0.4299  0.0818
 7561SOL    HW123078   5.274   4.866   3.918 -1.5716 -0.7555 -0.0028
 7561SOL    HW223079   5.267   4.733   3.846  1.5198 -0.9011 -0.1655
 7562SOL     OW23080   6.291   5.989   0.527 -0.2016 -0.4292 -0.1078
 7562SOL    HW123081   6.337   6.021   0.450 -0.7884  0.9193  0.0747
 7562SOL    HW223082   6.199   6.008   0.510 -0.2077  1.2736  1.5194
 7563SOL     OW23083   4.996   2.450   0.278  0.1711 -0.0246 -0.1924
 7563SOL    HW123084   4.976   2.364   0.316  0.6231 -0.6904 -1.4078
 7563SOL    HW223085   4.920   2.504   0.300  0.1764 -0.5138  1.1784
 7564SOL     OW23086   5.230   3.783   5.264 -0.5420  0.4912 -0.1012
 7564SOL    HW123087   5.152   3.735   5.239 -0.2735  0.2278 -0.4500
 7564SOL    HW223088   5.293   3.714   5.289 -0.3551  0.6883 -0.0268
 7565SOL     OW23089   2.647   4.107   2.426 -0.2661  0.4191  0.3574
 7565SOL    HW123090   2.622   4.043   2.493  0.4916 -1.2246 -0.8495
 7565SOL    HW223091   2.713   4.162   2.469 -1.3653  0.8039  1.6000
 7566SOL     OW23092   3.474   3.031   3.756 -0.8239  0.1795  0.5757
 7566SOL    HW123093   3.517   3.008   3.838 -1.1443 -0.9575  0.4478
 7566SOL    HW223094   3.525   2.985   3.688 -0.6238  1.0210  0.1436
 7567SOL     OW23095   1.049   6.357   0.634  0.6141  0.2953  0.1821
 7567SOL    HW123096   0.986   6.427   0.614  1.4954  0.7232 -1.2573
 7567SOL    HW223097   1.025   6.286   0.576  0.6148 -0.0742  0.6266
 7568SOL     OW23098   0.600   3.162   0.532  0.2514 -0.5012  0.2092
 7568SOL    HW123099   0.597   3.071   0.562  0.1173 -0.0295  1.7279
 7568SOL    HW223100   0.544   3.163   0.454 -0.3218 -1.5797  0.5818
 7569SOL     OW23101   0.008   0.743   4.038 -0.1427 -0.2698  0.0264
 7569SOL    HW123102  -0.022   0.790   4.116 -1.2053  0.0687 -0.5631
 7569SOL    HW223103   0.079   0.797   4.003  0.6521 -0.6594  0.9927
 7570SOL     OW23104   0.374   1.043   6.558 -0.2029  0.3720 -0.5251
 7570SOL    HW123105   0.388   0.951   6.537 -0.9414  0.1463 -0.0287
 7570SOL    HW223106   0.393   1.089   6.476 -0.0872 -0.2378 -0.8455
 7571SOL     OW23107   4.388   5.807   5.056  0.0540 -0.1908 -0.0316
 7571SOL    HW123108   4.430   5.816   5.142  0.6657 -1.7106 -0.1337
 7571SOL    HW223109   4.296   5.791   5.075 -0.0808  0.9178  0.2808
 7572SOL     OW23110   3.368   6.908   1.833 -0.3507 -0.2131 -0.1375
 7572SOL    HW123111   3.316   6.895   1.912  3.1510 -0.5091  2.3265
 7572SOL    HW223112   3.392   7.001   1.835 -1.4170  0.1646 -1.8011
 7573SOL     OW23113   1.100   1.999   0.488 -0.1448 -0.0946  0.1785
 7573SOL    HW123114   1.159   2.020   0.415 -0.9942 -2.6310 -1.3399
 7573SOL    HW223115   1.157   1.965   0.556  0.3745 -0.4891 -0.4464
 7574SOL     OW23116   1.398   6.693   3.323  0.1896 -0.0886 -0.3797
 7574SOL    HW123117   1.304   6.698   3.305  0.2558 -0.4438 -0.8773
 7574SOL    HW223118   1.433   6.776   3.290  0.1043 -0.1236 -0.5612
 7575SOL     OW23119   0.127   3.338   2.722 -0.2738 -0.1766  0.2501
 7575SOL    HW123120   0.184   3.404   2.682 -0.1736  0.5357  1.5200
 7575SOL    HW223121   0.044   3.383   2.734 -1.0165 -1.0798 -1.1880
 7576SOL     OW23122   2.367   0.468   0.067 -0.8259 -0.4050  0.9092
 7576SOL    HW123123   2.390   0.545   0.120  2.1825  0.4829 -1.4194
 7576SOL    HW223124   2.291   0.496   0.016 -1.1241  0.2071  1.6593
 7577SOL     OW23125   5.646   4.233   0.848  1.0679 -0.0514 -0.0905
 7577SOL    HW123126   5.680   4.191   0.927  0.4639 -1.7119 -0.6673
 7577SOL    HW223127   5.723   4.272   0.807  1.5986 -0.2513  0.6866
 7578SOL     OW23128   2.085   6.810   1.341 -1.2918  0.2440  0.4305
 7578SOL    HW123129   2.146   6.748   1.381 -0.0918 -0.4163 -2.2167
 7578SOL    HW223130   2.128   6.895   1.349 -0.8061  0.0333  0.0298
 7579SOL     OW23131   2.176   1.827   3.926  0.3730  0.0213  0.0189
 7579SOL    HW123132   2.252   1.771   3.910  1.7033  1.3623  1.2063
 7579SOL    HW223133   2.206   1.888   3.993 -0.7447  2.5409 -1.6041
 7580SOL     OW23134   5.003   6.286   1.757  0.1033  0.4299 -0.2887
 7580SOL    HW123135   5.019   6.218   1.691  2.3836  0.9170 -0.2988
 7580SOL    HW223136   5.042   6.365   1.720  1.5458  0.6975  1.6749
 7581SOL     OW23137   6.097   3.461   3.802  0.3678 -0.1886  0.0103
 7581SOL    HW123138   6.029   3.400   3.830  0.6706  0.3014  1.9903
 7581SOL    HW223139   6.179   3.414   3.817  0.5656  0.3570  0.7266
 7582SOL     OW23140   6.821   1.728   0.752 -0.3393 -0.1765  0.0853
 7582SOL    HW123141   6.802   1.820   0.767  0.3153  0.1548 -1.0058
 7582SOL    HW223142   6.810   1.686   0.837 -0.7135  0.8938  0.5688
 7583SOL     OW23143   1.405   2.740   4.917 -0.4874 -0.4171  0.0291
 7583SOL    HW123144   1.433   2.671   4.856  0.5366 -0.7528  0.8477
 7583SOL    HW223145   1.479   2.800   4.921 -1.0153  0.2386  0.0390
 7584SOL     OW23146   0.576   1.515   3.593 -0.0085  0.4039 -0.3427
 7584SOL    HW123147   0.638   1.588   3.597  2.0231 -1.2830  0.8734
 7584SOL    HW223148   0.591   1.475   3.508 -0.0237  0.4558 -0.3703
 7585SOL     OW23149   1.188   3.229   5.897 -0.3758 -0.4180 -0.4669
 7585SOL    HW123150   1.154   3.303   5.947 -0.1770 -1.4451  1.2469
 7585SOL    HW223151   1.110   3.185   5.863 -0.4748  1.0633 -2.3102
 7586SOL     OW23152   4.453   1.091   0.490  0.3735 -0.2024  0.3906
 7586SOL    HW123153   4.531   1.054   0.532  0.3779 -0.5473  0.0824
 7586SOL    HW223154   4.391   1.017   0.485  0.1846 -0.0356  0.2549
 7587SOL     OW23155   0.422   3.073   4.167 -0.1724 -0.1369 -0.1263
 7587SOL    HW123156   0.356   3.132   4.131  1.6712  0.8621 -2.1182
 7587SOL    HW223157   0.471   3.126   4.229 -1.9178 -1.2326  2.3501
 7588SOL     OW23158   5.716   0.091   3.072 -0.4168 -0.0922  0.0347
 7588SOL    HW123159   5.718   0.020   3.008 -0.5931 -0.7135  0.7149
 7588SOL    HW223160   5.722   0.048   3.157  1.6924  0.8246  0.4165
 7589SOL     OW23161   2.662   2.270   2.856 -0.0607 -0.1566  0.3480
 7589SOL    HW123162   2.695   2.332   2.922  1.0946 -0.4383  0.0528
 7589SOL    HW223163   2.707   2.188   2.876 -1.4611 -0.8774  0.6322
 7590SOL     OW23164   0.871   2.386   0.782 -0.3699 -0.2590 -0.3611
 7590SOL    HW123165   0.776   2.376   0.781 -0.3990 -0.1099  0.3507
 7590SOL    HW223166   0.905   2.297   0.791 -0.5210 -0.1610  1.7896
 7591SOL     OW23167   4.760   5.791   3.622 -0.3875 -0.1915 -0.2832
 7591SOL    HW123168   4.767   5.848   3.698 -0.3940 -1.1822  0.4869
 7591SOL    HW223169   4.829   5.725   3.635  1.3008  1.0117 -2.3983
 7592SOL     OW23170   2.428   6.422   1.357  0.4485 -0.0591  0.1240
 7592SOL    HW123171   2.378   6.451   1.281 -0.8452 -1.2798  0.4798
 7592SOL    HW223172   2.506   6.381   1.320 -0.4498 -1.1781 -0.6067
 7593SOL     OW23173   4.731   4.114   4.016  0.7956  0.6735  0.0277
 7593SOL    HW123174   4.735   4.101   4.110  1.0516  1.1046  0.0792
 7593SOL    HW223175   4.638   4.105   3.994  0.8286 -0.1130  0.2175
 7594SOL     OW23176   6.152   3.125   6.873 -0.2046 -0.4030 -0.6832
 7594SOL    HW123177   6.113   3.127   6.960 -0.5314  0.6853 -0.8410
 7594SOL    HW223178   6.078   3.140   6.813 -0.1005 -1.8035 -1.2076
 7595SOL     OW23179   3.878   5.910   3.496  0.2689 -0.0795 -0.1189
 7595SOL    HW123180   3.865   5.818   3.521 -0.7911 -0.1611 -0.8693
 7595SOL    HW223181   3.861   5.959   3.576 -0.8649 -0.4590 -0.0954
 7596SOL     OW23182   2.822   3.444   3.305  0.5866  0.3499 -0.3132
 7596SOL    HW123183   2.753   3.421   3.366  1.0728  1.0015  0.4939
 7596SOL    HW223184   2.807   3.386   3.230 -0.1780 -0.2651  0.2946
 7597SOL     OW23185   2.746   2.383   0.324 -0.1834  0.3035 -0.2953
 7597SOL    HW123186   2.661   2.402   0.284 -0.1956 -0.2325 -0.5268
 7597SOL    HW223187   2.810   2.415   0.260 -0.2059  0.8718 -0.0410
 7598SOL     OW23188   2.134   5.020   3.802 -0.3261 -0.0493  0.0269
 7598SOL    HW123189   2.109   5.012   3.710  0.8000  0.1318 -0.3098
 7598SOL    HW223190   2.114   5.111   3.825  1.1839  0.4930 -0.6318
 7599SOL     OW23191   1.125   2.293   1.231  0.4816  0.0977 -0.4403
 7599SOL    HW123192   1.128   2.201   1.259  0.2584  0.6956  1.7180
 7599SOL    HW223193   1.210   2.329   1.257 -0.7119  1.3344  2.1375
 7600SOL     OW23194   2.861   6.515   6.064  0.1208  0.4734 -0.3714
 7600SOL    HW123195   2.771   6.485   6.050  0.0588  0.7953 -0.6801
 7600SOL    HW223196   2.910   6.480   5.989  0.7189 -1.5334  0.8863
 7601SOL     OW23197   2.611   3.943   5.511  0.4880 -0.5646 -0.1280
 7601SOL    HW123198   2.693   3.913   5.473  1.0984  2.0884 -1.1766
 7601SOL    HW223199   2.583   4.015   5.454 -1.3039  0.1958  1.5598
 7602SOL     OW23200   5.888   4.231   0.448 -0.6709  0.8070  0.0326
 7602SOL    HW123201   5.976   4.217   0.414 -0.4358  1.1217  0.5084
 7602SOL    HW223202   5.901   4.260   0.538 -1.2722  0.5163  0.2211
 7603SOL     OW23203   2.475   2.226   4.851  0.6754 -0.3827 -0.3337
 7603SOL    HW123204   2.429   2.310   4.851  2.4505  0.6637  0.6329
 7603SOL    HW223205   2.453   2.187   4.935  0.1749 -0.6925 -0.6091
 7604SOL     OW23206   0.168   6.535   5.458 -0.7526 -0.0785  0.1192
 7604SOL    HW123207   0.248   6.516   5.508 -0.5997 -0.8710 -0.4054
 7604SOL    HW223208   0.171   6.629   5.442  0.6998 -0.2597 -0.9149
 7605SOL     OW23209   2.845   0.289   0.607 -0.3326 -0.7461 -0.0587
 7605SOL    HW123210   2.804   0.240   0.536 -0.6891  0.1507 -0.4964
 7605SOL    HW223211   2.782   0.285   0.679 -1.1549  0.4990 -0.6792
 7606SOL     OW23212   2.809   4.115   6.254 -1.0815 -0.5844 -0.3452
 7606SOL    HW123213   2.899   4.082   6.257 -1.0698 -1.0691 -3.1094
 7606SOL    HW223214   2.754   4.037   6.248 -1.9887 -0.4221  3.3543
 7607SOL     OW23215   0.155   1.967   1.536 -0.3821 -0.0597  0.3431
 7607SOL    HW123216   0.241   1.976   1.495 -1.4774  0.8177 -1.9084
 7607SOL    HW223217   0.175   1.945   1.627  2.2552  2.1280  0.4351
 7608SOL     OW23218   5.037   3.483   0.711 -0.1257 -0.3305  0.8207
 7608SOL    HW123219   5.012   3.558   0.764  1.6533 -0.9868  2.7224
 7608SOL    HW223220   5.117   3.510   0.667 -1.2032 -0.0495 -1.0604
 7609SOL     OW23221   3.032   2.475   6.474 -0.0944  0.2556  0.4122
 7609SOL    HW123222   2.965   2.416   6.509  0.6368 -1.1446 -0.4621
 7609SOL    HW223223   3.034   2.548   6.535 -3.3147  0.9928 -0.2302
 7610SOL     OW23224   1.921   1.393   0.086  0.0697 -0.0795 -0.5036
 7610SOL    HW123225   1.993   1.330   0.085  1.5541  1.5279 -0.2676
 7610SOL    HW223226   1.946   1.458   0.020 -0.6208  1.0863  0.3520
 7611SOL     OW23227   1.512   0.289   6.534 -0.0046 -0.0576  0.3164
 7611SOL    HW123228   1.500   0.329   6.448  0.5752  0.2539  0.3766
 7611SOL    HW223229   1.481   0.199   6.523 -0.4453  0.1345 -0.0672
 7612SOL     OW23230   2.183   5.714   6.825 -0.5828 -0.1062  0.2237
 7612SOL    HW123231   2.276   5.734   6.822 -0.8113  0.9934  0.0924
 7612SOL    HW223232   2.160   5.693   6.735 -0.4533 -0.4128  0.2624
 7613SOL     OW23233   6.682   5.539   4.695 -0.2660  0.0498  0.1596
 7613SOL    HW123234   6.672   5.591   4.615  0.4942 -0.0878 -0.0306
 7613SOL    HW223235   6.626   5.583   4.759  0.2224  0.9964 -0.0470
 7614SOL     OW23236   6.391   3.603   0.151  0.3146  0.2313 -0.0822
 7614SOL    HW123237   6.434   3.524   0.116 -0.4140  0.2000 -0.9337
 7614SOL    HW223238   6.298   3.584   0.145  0.1519  0.7085  0.8042
 7615SOL     OW23239   1.596   2.230   3.660 -0.2164 -0.4398 -0.3328
 7615SOL    HW123240   1.597   2.291   3.734  0.8380 -0.3926 -0.3835
 7615SOL    HW223241   1.678   2.182   3.666  0.5651  0.5499 -2.2931
 7616SOL     OW23242   3.495   5.640   0.831  0.7170  0.4373 -1.1193
 7616SOL    HW123243   3.487   5.700   0.905 -0.0461 -0.2605 -0.6151
 7616SOL    HW223244   3.404   5.622   0.806  0.9116 -0.9516 -0.8864
 7617SOL     OW23245   4.876   2.689   6.483 -0.3152  0.2283 -0.1708
 7617SOL    HW123246   4.822   2.664   6.558 -0.4970 -0.1616 -0.4279
 7617SOL    HW223247   4.862   2.784   6.474  0.0883  0.3645  0.5812
 7618SOL     OW23248   5.167   6.895   6.066 -0.1052 -0.5030  0.2738
 7618SOL    HW123249   5.132   6.940   6.143 -1.1188  0.6521 -0.8126
 7618SOL    HW223250   5.235   6.837   6.101 -1.3178 -0.8703  2.1546
 7619SOL     OW23251   2.965   2.533   4.012  0.1080  0.3377 -0.5181
 7619SOL    HW123252   2.989   2.482   3.935  0.2229  2.2208 -1.8111
 7619SOL    HW223253   2.891   2.587   3.982 -2.3174 -1.4427  1.7831
 7620SOL     OW23254   3.100   4.127   0.104 -0.3848  0.1328 -0.1117
 7620SOL    HW123255   3.084   4.055   0.165  0.9945 -0.7374 -0.7203
 7620SOL    HW223256   3.195   4.138   0.104 -0.3041 -0.0919 -2.2914
 7621SOL     OW23257   0.385   2.241   2.243 -0.1364 -0.2505  0.4490
 7621SOL    HW123258   0.317   2.191   2.198 -0.3765  1.0863 -0.7552
 7621SOL    HW223259   0.463   2.232   2.189 -0.2976  0.9779 -0.0303
 7622SOL     OW23260   4.967   0.510   6.942  0.7567 -0.1436 -0.2049
 7622SOL    HW123261   4.892   0.498   7.000 -0.0346  0.9135 -0.9675
 7622SOL    HW223262   5.001   0.421   6.928 -0.4460 -0.6544  0.0224
 7623SOL     OW23263   3.149   5.583   3.607  0.8329  0.2269 -0.0163
 7623SOL    HW123264   3.184   5.498   3.632  0.4357  0.0922  0.0841
 7623SOL    HW223265   3.054   5.570   3.603  0.6612  0.9742  1.2030
 7624SOL     OW23266   4.857   4.189   3.636 -0.6967  0.0700  0.0725
 7624SOL    HW123267   4.792   4.128   3.672 -1.9667  1.6553  0.5963
 7624SOL    HW223268   4.922   4.199   3.704  1.1959 -2.9125 -1.1084
 7625SOL     OW23269   2.311   4.594   3.844 -0.3025  0.0738  0.2135
 7625SOL    HW123270   2.316   4.645   3.925 -1.0050 -1.1005  1.0359
 7625SOL    HW223271   2.249   4.642   3.789 -1.5673 -0.2605  1.2883
 7626SOL     OW23272   6.417   2.986   1.593  0.0710 -0.5396 -0.1753
 7626SOL    HW123273   6.442   3.068   1.635  0.4690 -0.3111 -0.8516
 7626SOL    HW223274   6.394   3.011   1.503  1.3848 -1.3276 -0.7643
 7627SOL     OW23275   0.890   5.621   0.791 -0.2492  0.3263 -0.2737
 7627SOL    HW123276   0.871   5.577   0.874 -1.7315  1.6431  0.1242
 7627SOL    HW223277   0.825   5.585   0.730  0.3405 -0.0720 -0.6739
 7628SOL     OW23278   1.248   1.570   6.690  0.5841  0.3470 -0.2015
 7628SOL    HW123279   1.173   1.630   6.682 -0.3274 -0.7603 -0.1672
 7628SOL    HW223280   1.320   1.626   6.721  0.0480  1.6309 -1.1535
 7629SOL     OW23281   3.266   2.208   3.996  0.0519  0.2807  0.1031
 7629SOL    HW123282   3.331   2.248   4.054 -0.4540  0.7137  0.3828
 7629SOL    HW223283   3.272   2.115   4.013  0.3214  0.3546  0.4178
 7630SOL     OW23284   3.224   6.832   5.017 -0.1526 -0.7129 -0.2887
 7630SOL    HW123285   3.134   6.859   5.000 -0.0508 -0.1925 -0.0374
 7630SOL    HW223286   3.278   6.902   4.979  0.1119 -0.4211  0.5963
 7631SOL     OW23287   0.839   4.897   1.761  0.3682  0.1159 -0.2298
 7631SOL    HW123288   0.783   4.855   1.826  0.6526  0.5485  0.3020
 7631SOL    HW223289   0.866   4.826   1.703  1.5723 -0.6118  1.1607
 7632SOL     OW23290   0.840   2.213   6.293  0.4319 -0.2211  0.0360
 7632SOL    HW123291   0.804   2.163   6.367 -2.0555  2.7750  1.0634
 7632SOL    HW223292   0.931   2.229   6.318 -0.3610  0.8445  2.6769
 7633SOL     OW23293   3.819   1.679   4.205 -0.2322  0.0152  0.0448
 7633SOL    HW123294   3.873   1.605   4.231 -0.6637 -0.2709  0.1330
 7633SOL    HW223295   3.881   1.746   4.177  0.1692 -0.2567  0.2919
 7634SOL     OW23296   2.019   1.130   1.064 -0.1421  0.5403  0.4978
 7634SOL    HW123297   2.044   1.086   0.983  0.7364 -0.9274  1.5340
 7634SOL    HW223298   2.079   1.097   1.130 -1.8424  0.4751  2.1089
 7635SOL     OW23299   3.534   5.643   6.823 -0.3709  0.1309 -0.0711
 7635SOL    HW123300   3.588   5.704   6.772 -0.9074  1.0267  0.4069
 7635SOL    HW223301   3.444   5.674   6.810 -0.5623  0.0170  0.9394
 7636SOL     OW23302   6.204   1.764   3.240 -0.6690 -0.1532 -0.1711
 7636SOL    HW123303   6.289   1.769   3.195 -0.7249  1.0935 -0.1748
 7636SOL    HW223304   6.185   1.854   3.265 -2.1943 -0.3516 -0.5359
 7637SOL     OW23305   6.826   1.807   3.964  0.0221  0.4990  0.0910
 7637SOL    HW123306   6.752   1.780   3.908  0.7169  1.4632 -1.3484
 7637SOL    HW223307   6.864   1.882   3.919  1.0921  0.8437  1.5026
 7638SOL     OW23308   3.410   6.073   4.989 -0.2511  0.8175 -0.2045
 7638SOL    HW123309   3.447   6.160   4.974 -1.5410  1.0759 -2.2342
 7638SOL    HW223310   3.389   6.040   4.902 -1.1651 -0.9154  0.6167
 7639SOL     OW23311   1.139   0.221   5.411 -0.2871  1.3655 -0.3331
 7639SOL    HW123312   1.230   0.190   5.410 -0.4264  0.8047 -2.5713
 7639SOL    HW223313   1.087   0.143   5.390 -1.5004  1.3232  2.4227
 7640SOL     OW23314   5.947   6.234   1.313 -0.0876  0.1556  0.0907
 7640SOL    HW123315   6.041   6.217   1.316 -0.2280 -0.6182  2.4793
 7640SOL    HW223316   5.915   6.178   1.242  1.2862  0.8374 -1.1136
 7641SOL     OW23317   1.356   3.068   2.444  0.3545  0.3680 -0.3013
 7641SOL    HW123318   1.353   2.997   2.508 -3.3580 -0.1745 -0.8433
 7641SOL    HW223319   1.397   3.141   2.491  3.2144 -1.6396  0.6433
 7642SOL     OW23320   2.068   1.150   6.770 -0.6838 -0.1465  0.3087
 7642SOL    HW123321   2.049   1.142   6.677 -0.4565  2.2885 -0.0281
 7642SOL    HW223322   1.993   1.109   6.814 -0.0664 -2.7329 -0.8671
 7643SOL     OW23323   0.411   4.138   3.452  0.0497 -0.4574 -0.3262
 7643SOL    HW123324   0.455   4.206   3.504 -1.2212 -0.6742  1.0928
 7643SOL    HW223325   0.319   4.144   3.478 -0.1274 -2.5638 -0.3470
 7644SOL     OW23326   1.310   1.422   4.455  0.2921  0.1969 -0.1867
 7644SOL    HW123327   1.294   1.337   4.496 -2.0556  1.1721  1.1131
 7644SOL    HW223328   1.354   1.473   4.522  1.5853  0.1050 -0.9238
 7645SOL     OW23329   2.463   1.551   5.275  0.2660  0.2817 -0.2779
 7645SOL    HW123330   2.453   1.612   5.202 -2.3250  1.4880  0.9340
 7645SOL    HW223331   2.539   1.583   5.323 -0.5401  2.1135 -0.1506
 7646SOL     OW23332   3.110   2.814   0.451  0.5098  0.1973 -0.0069
 7646SOL    HW123333   3.112   2.907   0.472  0.2094  0.5489 -1.4594
 7646SOL    HW223334   3.044   2.806   0.382 -1.5445 -1.4990  1.9741
 7647SOL     OW23335   6.459   0.703   5.698  0.1339 -0.1950  1.0249
 7647SOL    HW123336   6.414   0.670   5.775 -0.8023 -1.5121 -0.0449
 7647SOL    HW223337   6.462   0.798   5.710 -4.0669  0.1510  0.6245
 7648SOL     OW23338   2.914   2.754   0.692  0.1432  0.7793 -0.0731
 7648SOL    HW123339   2.897   2.669   0.733  2.1228 -0.1624 -1.0682
 7648SOL    HW223340   2.896   2.740   0.599 -0.3105  1.7128 -0.1424
 7649SOL     OW23341   4.156   3.308   0.926  0.3993 -0.1831  0.0587
 7649SOL    HW123342   4.086   3.274   0.870 -1.7003  1.0242  1.7838
 7649SOL    HW223343   4.134   3.400   0.939 -0.3240 -0.7373  4.2259
 7650SOL     OW23344   6.672   5.635   1.097  0.1019 -0.3586 -0.1154
 7650SOL    HW123345   6.593   5.612   1.147 -0.0771  0.6580  0.0820
 7650SOL    HW223346   6.641   5.645   1.007 -0.2243  1.1693  0.1514
 7651SOL     OW23347   1.166   5.000   5.975 -0.2324  0.4623 -0.8359
 7651SOL    HW123348   1.102   4.930   5.967  0.1959 -0.2907  1.6479
 7651SOL    HW223349   1.249   4.961   5.948 -0.1664  0.2988 -0.4012
 7652SOL     OW23350   0.573   2.485   3.749 -0.1918  0.2870 -0.1554
 7652SOL    HW123351   0.643   2.529   3.701  0.0440  1.3902  1.1392
 7652SOL    HW223352   0.586   2.510   3.840 -0.5078 -1.9142  0.5624
 7653SOL     OW23353   3.705   0.267   0.002  0.4147  0.1180  0.3958
 7653SOL    HW123354   3.626   0.257   0.055  0.3564  0.0117  0.2899
 7653SOL    HW223355   3.765   0.201   0.036 -0.1635 -0.9836 -0.6575
 7654SOL     OW23356   4.418   2.517   0.525  0.3840  0.2147  0.0765
 7654SOL    HW123357   4.382   2.558   0.446 -1.1164 -0.2445  0.4863
 7654SOL    HW223358   4.380   2.566   0.598 -0.5455 -1.1457  0.5487
 7655SOL     OW23359   2.496   6.008   3.911  0.4977  0.1253  0.1033
 7655SOL    HW123360   2.485   6.005   4.006 -2.4583 -1.4922 -0.1826
 7655SOL    HW223361   2.432   6.073   3.882  0.6783 -0.1292 -0.8825
 7656SOL     OW23362   5.322   5.020   6.041  0.1226  0.3019  0.3161
 7656SOL    HW123363   5.357   5.053   6.124  0.0178  1.9144 -0.2323
 7656SOL    HW223364   5.399   5.016   5.983 -0.1423  1.3375 -0.1332
 7657SOL     OW23365   4.254   1.420   1.002  0.1506 -0.0603 -0.2321
 7657SOL    HW123366   4.307   1.494   0.972  1.1057 -0.6816 -0.0900
 7657SOL    HW223367   4.274   1.412   1.095 -0.5107 -0.0560 -0.0783
 7658SOL     OW23368   2.190   0.914   2.689 -0.0189  0.3309  0.3039
 7658SOL    HW123369   2.218   0.861   2.614  2.7096  0.2395  1.2773
 7658SOL    HW223370   2.192   1.004   2.656 -0.5381  0.1743 -0.1825
 7659SOL     OW23371   0.157   3.475   5.162 -0.0261 -0.3974 -0.4413
 7659SOL    HW123372   0.235   3.501   5.114 -1.1504  1.4704 -1.3662
 7659SOL    HW223373   0.108   3.419   5.102 -1.2951  1.7116 -1.4991
 7660SOL     OW23374   4.938   1.332   1.494 -0.6344  0.6393  0.7006
 7660SOL    HW123375   5.016   1.279   1.479  0.7631  2.4234  1.2585
 7660SOL    HW223376   4.963   1.420   1.465 -2.4811  1.2520  0.8258
 7661SOL     OW23377   2.281   2.832   4.175  0.5494 -0.0738 -0.1304
 7661SOL    HW123378   2.284   2.925   4.153  1.5558 -0.1336 -0.2793
 7661SOL    HW223379   2.289   2.787   4.091  2.5829 -0.2882  0.1201
 7662SOL     OW23380   4.239   6.574   3.872 -0.1550  0.1167 -0.6846
 7662SOL    HW123381   4.241   6.560   3.777  1.4529  0.1716 -0.6825
 7662SOL    HW223382   4.148   6.598   3.891 -0.8185 -1.1964 -2.0121
 7663SOL     OW23383   2.997   4.702   0.435  0.6898  0.2285 -0.0960
 7663SOL    HW123384   3.014   4.612   0.407  2.3971  0.2718  0.6930
 7663SOL    HW223385   3.003   4.699   0.530 -1.8291  0.7191  0.1625
 7664SOL     OW23386   5.747   6.613   5.697 -0.0173  0.0581  0.3563
 7664SOL    HW123387   5.720   6.690   5.747 -0.5367  0.7051 -0.8675
 7664SOL    HW223388   5.843   6.616   5.697 -0.0183  1.6866 -1.0695
 7665SOL     OW23389   3.184   1.257   3.068  0.2096  0.3994 -0.0445
 7665SOL    HW123390   3.228   1.290   2.990  1.4733  0.6620  0.7579
 7665SOL    HW223391   3.208   1.319   3.137 -1.9450  0.9165  0.3185
 7666SOL     OW23392   5.108   0.024   1.158 -0.2979 -0.5805 -0.4451
 7666SOL    HW123393   5.201   0.002   1.162  0.5685  2.7257  2.4499
 7666SOL    HW223394   5.105   0.105   1.108 -1.3174  0.2833  0.9505
 7667SOL     OW23395   4.774   4.555   2.867 -1.0205  0.3736  0.0578
 7667SOL    HW123396   4.723   4.474   2.871 -0.7022  0.2110  1.1947
 7667SOL    HW223397   4.865   4.526   2.875 -1.0035  0.9578  2.8105
 7668SOL     OW23398   4.249   1.132   6.038 -0.4032 -0.0980 -0.2880
 7668SOL    HW123399   4.228   1.040   6.056 -2.8051  0.9198  2.9091
 7668SOL    HW223400   4.339   1.143   6.069 -0.4526 -1.1134  0.2387
 7669SOL     OW23401   5.138   1.831   5.761 -0.1354 -0.0641  0.2892
 7669SOL    HW123402   5.233   1.827   5.774 -0.3362 -0.4817  1.7770
 7669SOL    HW223403   5.125   1.793   5.674  1.1668  1.3361 -0.5713
 7670SOL     OW23404   3.798   6.295   3.255  0.0367 -0.2777  0.0746
 7670SOL    HW123405   3.843   6.351   3.192  0.6551  0.3944  1.0944
 7670SOL    HW223406   3.795   6.346   3.336 -0.5224 -1.2227  0.6719
 7671SOL     OW23407   3.489   5.994   6.490  0.7621  0.4350  0.0051
 7671SOL    HW123408   3.572   6.027   6.525  0.9208  0.7027 -0.6179
 7671SOL    HW223409   3.431   6.071   6.490  0.9454  0.5764 -0.8759
 7672SOL     OW23410   3.338   3.982   6.554 -0.0296  0.1739 -0.3507
 7672SOL    HW123411   3.264   3.994   6.614  1.0733 -1.3225  1.3800
 7672SOL    HW223412   3.387   4.064   6.561 -0.2709  0.2711  0.2852
 7673SOL     OW23413   2.244   4.312   3.914 -1.2014  0.0430  0.0096
 7673SOL    HW123414   2.181   4.296   3.844  0.4526 -1.6853 -1.1890
 7673SOL    HW223415   2.285   4.395   3.891 -1.1054 -0.2113 -0.7926
 7674SOL     OW23416   3.992   6.114   6.635 -0.1149 -0.3622 -0.9414
 7674SOL    HW123417   4.067   6.157   6.592  0.4951 -0.8698 -0.4126
 7674SOL    HW223418   4.019   6.022   6.642 -1.0315 -0.6583 -1.2476
 7675SOL     OW23419   4.539   6.724   5.654  0.5427 -0.2045  0.0709
 7675SOL    HW123420   4.482   6.714   5.577  1.1020  0.0545 -0.3866
 7675SOL    HW223421   4.531   6.641   5.701  0.1939 -0.3684 -0.2720
 7676SOL     OW23422   1.342   4.551   0.753  0.2886 -0.2107 -0.2681
 7676SOL    HW123423   1.369   4.632   0.797  0.6262  0.8937 -2.3965
 7676SOL    HW223424   1.285   4.507   0.817  0.9325  1.1809  1.3317
 7677SOL     OW23425   6.143   6.114   6.765  0.2853  0.0667 -0.1683
 7677SOL    HW123426   6.222   6.062   6.749  0.4352  0.3410 -0.3244
 7677SOL    HW223427   6.176   6.199   6.794  0.0524  0.2482 -0.4283
 7678SOL     OW23428   3.478   3.055   0.303  0.3508  0.2362  0.4159
 7678SOL    HW123429   3.438   2.968   0.309 -0.7955  0.7369  0.1442
 7678SOL    HW223430   3.462   3.095   0.388 -0.5602  0.7807  0.0033
 7679SOL     OW23431   0.024   0.231   3.481 -0.1852 -0.3759 -0.7252
 7679SOL    HW123432   0.010   0.233   3.386 -2.6025 -0.1204 -0.4130
 7679SOL    HW223433   0.041   0.322   3.504  1.4227 -0.5739 -0.9988
 7680SOL     OW23434   0.265   0.693   0.458  0.1224 -0.1704 -0.0795
 7680SOL    HW123435   0.180   0.722   0.490 -0.0489 -0.0224 -0.6486
 7680SOL    HW223436   0.326   0.761   0.485  0.0103 -0.1359  0.0848
 7681SOL     OW23437   4.154   2.521   3.523  0.2327  0.5470 -0.5164
 7681SOL    HW123438   4.200   2.438   3.535 -0.9631 -0.3755 -2.0388
 7681SOL    HW223439   4.188   2.556   3.441 -0.7742  0.5395 -0.9464
 7682SOL     OW23440   3.952   6.919   5.391 -0.0539 -0.4480  0.0567
 7682SOL    HW123441   3.984   6.844   5.441  0.6033  0.8074  1.5786
 7682SOL    HW223442   3.862   6.895   5.368  1.0354 -3.0065 -2.2229
 7683SOL     OW23443   2.057   4.380   1.001  0.9065 -0.0628 -0.1056
 7683SOL    HW123444   2.096   4.467   0.988 -0.3134  0.6667  0.8456
 7683SOL    HW223445   2.037   4.349   0.913 -0.5075  1.5380 -0.4053
 7684SOL     OW23446   2.366   0.255   4.804  0.4246  0.7018 -0.5267
 7684SOL    HW123447   2.457   0.239   4.780  0.4256  0.4002 -0.3186
 7684SOL    HW223448   2.367   0.342   4.845  0.4112  1.2642 -1.6710
 7685SOL     OW23449   6.670   2.021   6.483  0.4196  0.0506  0.7882
 7685SOL    HW123450   6.693   1.964   6.410  0.2510 -1.3406  1.7708
 7685SOL    HW223451   6.593   2.070   6.453  0.0501 -0.8676  0.1960
 7686SOL     OW23452   0.058   2.725   3.214  0.1304 -0.1755 -0.0183
 7686SOL    HW123453   0.083   2.750   3.125 -0.1563 -1.5521 -0.5138
 7686SOL    HW223454   0.113   2.649   3.234 -1.6045 -1.5221 -0.0667
 7687SOL     OW23455   0.091   5.355   2.521  0.1885 -0.0996  0.3507
 7687SOL    HW123456   0.001   5.356   2.489 -0.7070  0.5457  2.6777
 7687SOL    HW223457   0.112   5.447   2.535  0.4367 -0.3433  1.7464
 7688SOL     OW23458   0.939   5.535   4.859 -0.0378 -0.9332  0.7157
 7688SOL    HW123459   0.879   5.487   4.916 -0.4999  0.2910  1.2991
 7688SOL    HW223460   0.968   5.609   4.912  0.3296 -0.3315 -0.2962
 7689SOL     OW23461   0.406   1.931   0.964 -0.0106 -0.3781  0.0439
 7689SOL    HW123462   0.386   1.881   0.885 -0.2414 -1.1298  0.5708
 7689SOL    HW223463   0.351   2.009   0.958  0.8392  0.1688 -1.1117
 7690SOL     OW23464   5.410   5.487   0.138 -0.1734 -0.1263  0.2952
 7690SOL    HW123465   5.414   5.411   0.196 -0.6713  0.2023  0.7690
 7690SOL    HW223466   5.354   5.550   0.184  1.1395  0.9909  0.4285
 7691SOL     OW23467   3.568   4.011   4.064 -0.0001  0.2338  0.4097
 7691SOL    HW123468   3.585   4.042   3.976 -3.3303  0.9623 -0.0925
 7691SOL    HW223469   3.540   4.089   4.113  0.2671 -0.4287  1.6713
 7692SOL     OW23470   3.541   5.549   3.438  0.3313 -0.4348 -0.2881
 7692SOL    HW123471   3.481   5.499   3.383  1.7627 -0.5323 -1.8295
 7692SOL    HW223472   3.607   5.486   3.466 -0.9056 -0.6315  2.4720
 7693SOL     OW23473   6.683   1.398   1.600  0.2527 -0.6063  0.9742
 7693SOL    HW123474   6.771   1.366   1.581  0.2003 -0.2582  0.0652
 7693SOL    HW223475   6.691   1.444   1.683  1.2108  0.4660  0.3178
 7694SOL     OW23476   5.775   1.753   0.193 -0.0181 -0.4091 -0.9483
 7694SOL    HW123477   5.846   1.763   0.256  0.1687 -1.9356 -0.8923
 7694SOL    HW223478   5.783   1.830   0.136  0.0740  0.7657  0.5997
 7695SOL     OW23479   0.729   2.584   4.261 -0.2661  0.2725  0.1653
 7695SOL    HW123480   0.777   2.635   4.196 -0.4837  1.0193  0.5716
 7695SOL    HW223481   0.697   2.649   4.324 -2.5800 -0.0669 -0.5510
 7696SOL     OW23482   3.185   3.482   3.826 -0.4139 -0.3064 -0.1363
 7696SOL    HW123483   3.090   3.488   3.842 -0.1174 -3.1308  4.7447
 7696SOL    HW223484   3.204   3.388   3.828  2.6487  0.2036  1.1513
 7697SOL     OW23485   0.453   0.637   1.133  0.3108  0.4049 -0.4795
 7697SOL    HW123486   0.497   0.707   1.083  0.3926  1.4290  0.9632
 7697SOL    HW223487   0.525   0.581   1.163  0.6373  1.6461  1.2219
 7698SOL     OW23488   2.335   5.589   1.802  0.5591  0.3755 -0.0560
 7698SOL    HW123489   2.262   5.545   1.759  0.8816  0.2955 -0.5290
 7698SOL    HW223490   2.301   5.613   1.888  0.0131  0.2373 -0.2280
 7699SOL     OW23491   1.368   2.708   0.440  0.2211  0.4454  0.0852
 7699SOL    HW123492   1.304   2.652   0.395 -1.5932  1.7006  0.9839
 7699SOL    HW223493   1.385   2.662   0.522  1.0267 -0.2382 -0.4575
 7700SOL     OW23494   5.138   1.819   1.613 -0.7860  0.8514  0.0752
 7700SOL    HW123495   5.137   1.915   1.615 -0.5079  0.8981 -0.9746
 7700SOL    HW223496   5.190   1.794   1.689  0.4742  1.6034 -0.5017
 7701SOL     OW23497   4.710   2.465   0.305 -0.0229 -0.0083  0.2011
 7701SOL    HW123498   4.669   2.383   0.333 -1.5116  1.0303  1.2419
 7701SOL    HW223499   4.691   2.470   0.211  1.7543 -1.7215 -0.3157
 7702SOL     OW23500   6.218   4.604   6.444  0.1639 -0.0255 -0.0909
 7702SOL    HW123501   6.306   4.569   6.456 -0.6810 -2.0877  0.4207
 7702SOL    HW223502   6.171   4.536   6.396 -1.3234  0.7759  0.1661
 7703SOL     OW23503   1.139   1.059   0.502 -0.4329  0.0403  0.0793
 7703SOL    HW123504   1.081   0.984   0.514  0.7744 -1.2360 -1.6479
 7703SOL    HW223505   1.080   1.133   0.485 -1.6550 -0.3821  2.1303
 7704SOL     OW23506   4.342   2.737   0.326 -0.3019  0.6313  0.5968
 7704SOL    HW123507   4.296   2.814   0.362 -0.3815  1.1417 -0.5671
 7704SOL    HW223508   4.272   2.675   0.305 -0.2701  0.4259  1.0689
 7705SOL     OW23509   5.611   5.834   2.175  0.1315 -0.1656  0.4283
 7705SOL    HW123510   5.587   5.884   2.253  0.0356 -0.2712  0.4668
 7705SOL    HW223511   5.690   5.786   2.200 -0.8489 -1.5082  1.0130
 7706SOL     OW23512   5.983   2.302   0.134  1.0226  0.0635  0.1094
 7706SOL    HW123513   6.078   2.292   0.139  0.8316 -1.4861  2.0238
 7706SOL    HW223514   5.950   2.212   0.139 -0.5531  0.6551  0.8743
 7707SOL     OW23515   0.698   4.648   4.251  0.3479 -0.4886  0.1743
 7707SOL    HW123516   0.631   4.640   4.318  0.8136  1.0918  0.8670
 7707SOL    HW223517   0.716   4.558   4.224  0.4813 -1.1936  2.4748
 7708SOL     OW23518   4.527   1.227   0.257  0.0335  0.1750 -0.4123
 7708SOL    HW123519   4.512   1.161   0.324  1.6358 -1.8954 -1.9447
 7708SOL    HW223520   4.616   1.259   0.274  0.2021  0.1106 -1.1403
 7709SOL     OW23521   1.806   4.034   6.538 -0.4676  0.7723 -0.2840
 7709SOL    HW123522   1.805   4.035   6.633  1.8642  0.7953 -0.1990
 7709SOL    HW223523   1.769   3.950   6.513  1.6005 -0.5384  0.8015
 7710SOL     OW23524   5.863   3.413   4.906  0.1629  0.0633 -0.0924
 7710SOL    HW123525   5.890   3.322   4.917  1.2404  0.4110  0.2093
 7710SOL    HW223526   5.898   3.439   4.821 -0.0371  0.2440 -0.1227
 7711SOL     OW23527   5.266   6.531   3.736  0.5328  0.1954  0.4569
 7711SOL    HW123528   5.334   6.580   3.690 -0.4170  0.4872 -0.7093
 7711SOL    HW223529   5.229   6.472   3.670  0.5514 -0.9402  1.4154
 7712SOL     OW23530   3.973   2.331   0.360  0.4240  0.4911 -0.0545
 7712SOL    HW123531   4.030   2.273   0.310 -0.3544  0.7268 -1.2486
 7712SOL    HW223532   3.887   2.323   0.318 -0.0525  1.3251  0.7309
 7713SOL     OW23533   1.171   5.905   0.705  0.7150 -0.6114 -1.1736
 7713SOL    HW123534   1.158   5.851   0.783  1.9189 -0.4379 -0.8284
 7713SOL    HW223535   1.086   5.907   0.662  0.0356 -0.7456  0.1185
 7714SOL     OW23536   5.073   1.351   4.377 -0.6031 -0.4797 -0.3552
 7714SOL    HW123537   5.081   1.435   4.332 -2.2799 -0.0587  0.0788
 7714SOL    HW223538   4.985   1.352   4.415 -0.2070 -1.9276  0.6900
 7715SOL     OW23539   2.724   4.531   3.296 -0.2864  0.1460  0.3830
 7715SOL    HW123540   2.792   4.593   3.320 -1.1170  0.8218  1.0428
 7715SOL    HW223541   2.706   4.482   3.376 -2.2466  1.6131  0.9087
 7716SOL     OW23542   3.897   2.749   4.402 -0.0911  0.7054  0.2449
 7716SOL    HW123543   3.875   2.668   4.357 -1.8140  1.9640 -1.3189
 7716SOL    HW223544   3.820   2.771   4.453  0.2859  1.4306  0.5289
 7717SOL     OW23545   3.812   6.601   3.398  0.3750 -0.6197 -0.5682
 7717SOL    HW123546   3.901   6.584   3.369  0.3020 -2.1608  0.0502
 7717SOL    HW223547   3.822   6.654   3.478  0.7413 -0.8400 -0.4675
 7718SOL     OW23548   0.270   5.886   1.721  0.0608  0.3498  0.1731
 7718SOL    HW123549   0.349   5.848   1.682 -0.1158  0.3537 -0.1915
 7718SOL    HW223550   0.265   5.847   1.808  0.3852  0.2383  0.1444
 7719SOL     OW23551   0.422   6.219   2.712 -0.7801  0.1816  0.0776
 7719SOL    HW123552   0.366   6.159   2.761 -0.7319  1.7341  2.1400
 7719SOL    HW223553   0.509   6.180   2.717 -0.8567  0.0978  0.8783
 7720SOL     OW23554   6.131   0.779   1.299  1.0308  0.2333 -0.5386
 7720SOL    HW123555   6.073   0.790   1.223  1.8985  1.1396 -1.0933
 7720SOL    HW223556   6.083   0.819   1.372  0.5884  0.1988 -0.8085
 7721SOL     OW23557   4.113   0.407   2.348  0.1247  0.6247  0.6876
 7721SOL    HW123558   4.201   0.443   2.339  1.1248 -1.3291  1.9739
 7721SOL    HW223559   4.126   0.318   2.379 -2.2984 -0.1129 -0.1633
 7722SOL     OW23560   6.105   4.924   4.818  1.1127 -0.0359  0.4125
 7722SOL    HW123561   6.038   4.958   4.759  0.5908  0.7464  1.4389
 7722SOL    HW223562   6.188   4.949   4.776  0.7529  1.8104  0.7181
 7723SOL     OW23563   4.475   5.750   1.696  0.2141 -0.2913 -0.0304
 7723SOL    HW123564   4.408   5.715   1.637  1.7268 -1.3917 -1.1855
 7723SOL    HW223565   4.507   5.829   1.651 -0.3058  0.2625  0.5451
 7724SOL     OW23566   5.034   5.469   2.284 -0.0543  1.0014 -0.3337
 7724SOL    HW123567   5.108   5.409   2.280  0.1918  1.3685 -1.3945
 7724SOL    HW223568   4.968   5.422   2.336  0.4634  0.1808 -0.4085
 7725SOL     OW23569   1.573   4.834   4.138  0.1968 -0.4255  0.6116
 7725SOL    HW123570   1.513   4.849   4.211 -0.5052  2.4790 -0.4128
 7725SOL    HW223571   1.659   4.828   4.179 -0.2627  0.3214  1.7488
 7726SOL     OW23572   5.680   6.616   1.509 -0.1282  0.2291  0.2422
 7726SOL    HW123573   5.741   6.582   1.444 -1.6429  1.9341 -2.2220
 7726SOL    HW223574   5.627   6.679   1.462 -0.9555  2.0450  3.3169
 7727SOL     OW23575   4.341   3.254   4.583  0.2704  0.2542  0.5971
 7727SOL    HW123576   4.391   3.326   4.622  0.2242 -0.1760  1.4833
 7727SOL    HW223577   4.406   3.200   4.540  0.3666  0.5582  0.3587
 7728SOL     OW23578   2.936   3.716   3.335  0.3890 -0.3284  0.2751
 7728SOL    HW123579   2.892   3.633   3.318 -1.2122  0.7836 -1.4433
 7728SOL    HW223580   2.917   3.735   3.427  0.9330 -1.9164  0.7391
 7729SOL     OW23581   0.312   3.015   5.720  0.1813  0.2037  0.0441
 7729SOL    HW123582   0.222   2.995   5.748  0.3308  0.2964  0.5843
 7729SOL    HW223583   0.365   2.943   5.755  0.5175  0.8359  0.8510
 7730SOL     OW23584   4.144   3.858   2.147 -0.0520  0.3186  0.2572
 7730SOL    HW123585   4.058   3.816   2.144  0.2913 -0.4777  1.2191
 7730SOL    HW223586   4.128   3.943   2.187 -0.5117  0.5264 -0.3398
 7731SOL     OW23587   5.161   4.213   5.073 -0.5600  0.1108 -0.2608
 7731SOL    HW123588   5.177   4.184   4.983 -1.4624 -1.8718  0.1576
 7731SOL    HW223589   5.110   4.142   5.112 -2.2267  1.9661  1.1304
 7732SOL     OW23590   0.259   0.997   1.399 -0.2192 -0.3511 -0.1631
 7732SOL    HW123591   0.227   1.000   1.490 -1.4206  1.4165 -0.5991
 7732SOL    HW223592   0.304   1.080   1.386  1.9201 -1.4908 -0.5688
 7733SOL     OW23593   4.486   3.141   4.393  0.3123 -0.2039  0.3552
 7733SOL    HW123594   4.561   3.175   4.344 -0.8129  1.1022 -0.5238
 7733SOL    HW223595   4.490   3.046   4.378  1.2620 -0.0664 -0.4293
 7734SOL     OW23596   0.281   1.832   6.381  0.3305  0.5627 -0.0932
 7734SOL    HW123597   0.186   1.842   6.394  0.3528  0.3066  0.2918
 7734SOL    HW223598   0.300   1.744   6.414  0.7158  0.6447 -0.0956
 7735SOL     OW23599   4.968   0.602   2.377  0.2969  0.1853  0.2971
 7735SOL    HW123600   5.058   0.570   2.382 -0.2800 -1.4701  0.4645
 7735SOL    HW223601   4.931   0.558   2.301 -0.8059 -0.3013  1.0916
 7736SOL     OW23602   4.774   3.486   2.758  0.2956 -0.3183 -0.7399
 7736SOL    HW123603   4.756   3.439   2.840  0.9753 -1.2697 -1.1127
 7736SOL    HW223604   4.847   3.543   2.779 -0.9574  1.1295 -0.1026
 7737SOL     OW23605   5.055   2.995   6.557 -0.1305  0.1460  0.1271
 7737SOL    HW123606   4.962   2.977   6.545 -0.1761 -1.0086  1.8208
 7737SOL    HW223607   5.090   2.999   6.468 -2.1092  2.6502 -0.6628
 7738SOL     OW23608   3.471   0.227   4.196 -0.4359 -0.0416  0.1739
 7738SOL    HW123609   3.534   0.174   4.245  0.4856  0.6034 -0.2837
 7738SOL    HW223610   3.444   0.171   4.123 -2.2757 -1.2428  1.6756
 7739SOL     OW23611   1.482   3.606   6.755 -0.2068 -0.4388  0.3358
 7739SOL    HW123612   1.493   3.627   6.848  1.8780  0.8265 -0.1281
 7739SOL    HW223613   1.442   3.685   6.718  0.3853 -0.3311 -0.0852
 7740SOL     OW23614   3.087   4.254   1.547 -0.3325  0.0011  0.0243
 7740SOL    HW123615   3.064   4.166   1.516 -1.8278  0.7288 -1.0454
 7740SOL    HW223616   3.113   4.301   1.468 -0.8624  0.9084  0.3788
 7741SOL     OW23617   2.584   6.374   2.126  0.1647 -0.3911 -0.0211
 7741SOL    HW123618   2.538   6.420   2.197  0.6511  0.3343 -0.1614
 7741SOL    HW223619   2.643   6.314   2.171  1.5470  1.1014  0.2653
 7742SOL     OW23620   5.092   4.251   6.317  0.2446  0.6429  0.0887
 7742SOL    HW123621   5.033   4.178   6.299  1.1622 -0.0619 -0.1304
 7742SOL    HW223622   5.179   4.219   6.292  0.6799  1.7793  0.0771
 7743SOL     OW23623   4.874   2.241   5.780  0.4671 -0.7290 -0.0510
 7743SOL    HW123624   4.841   2.155   5.807 -0.4660  0.1711  1.8744
 7743SOL    HW223625   4.811   2.303   5.816  1.0786  0.7836 -1.4658
 7744SOL     OW23626   6.137   4.209   0.298 -0.2459 -0.0090  0.5285
 7744SOL    HW123627   6.150   4.249   0.384  0.6174 -1.9659  1.3707
 7744SOL    HW223628   6.201   4.252   0.241  0.6898 -0.1913  1.4124
 7745SOL     OW23629   4.947   4.385   4.713 -0.2339  0.3941  0.3249
 7745SOL    HW123630   4.866   4.356   4.670  0.8658 -0.6406 -1.1463
 7745SOL    HW223631   5.013   4.381   4.644  1.5628 -1.0267  2.0319
 7746SOL     OW23632   2.204   4.826   4.435 -0.0600 -0.2901 -0.8104
 7746SOL    HW123633   2.161   4.835   4.350  0.2370  0.1115 -0.9235
 7746SOL    HW223634   2.284   4.878   4.427  0.5130 -1.1283 -0.6505
 7747SOL     OW23635   5.127   4.028   4.826 -0.0213  0.1560  0.3606
 7747SOL    HW123636   5.107   3.956   4.766 -1.3627  0.5237  0.3305
 7747SOL    HW223637   5.219   4.049   4.808 -0.5972  0.8208 -2.2267
 7748SOL     OW23638   6.833   5.299   5.600  0.2902  0.3338 -0.1056
 7748SOL    HW123639   6.764   5.349   5.643  0.4132  0.8927 -0.5601
 7748SOL    HW223640   6.800   5.282   5.512  0.1978 -0.4981  0.0782
 7749SOL     OW23641   2.598   2.860   4.989 -0.0550 -0.0531  0.1277
 7749SOL    HW123642   2.636   2.796   5.050  0.2134  0.4661  0.5150
 7749SOL    HW223643   2.600   2.942   5.038 -0.2393  0.2838 -0.4333
 7750SOL     OW23644   5.168   5.783   1.780 -0.1159 -0.4257  0.0343
 7750SOL    HW123645   5.123   5.699   1.785  1.4752 -1.4269 -1.4340
 7750SOL    HW223646   5.157   5.810   1.688  2.4555 -0.8716 -0.4698
 7751SOL     OW23647   3.735   6.935   2.575  0.0087  0.3909 -0.0632
 7751SOL    HW123648   3.731   7.013   2.629  0.1321  0.0896  0.3867
 7751SOL    HW223649   3.644   6.908   2.564  0.0141  0.1888  0.3827
 7752SOL     OW23650   6.173   4.721   4.164 -0.0508  0.4678 -0.4759
 7752SOL    HW123651   6.161   4.789   4.098 -1.2314  0.8691  0.1279
 7752SOL    HW223652   6.129   4.755   4.241  1.8613  0.3062  0.7609
 7753SOL     OW23653   4.224   5.492   4.400 -0.4526 -0.2300 -0.3566
 7753SOL    HW123654   4.190   5.403   4.389 -2.9204  0.8366 -2.1401
 7753SOL    HW223655   4.149   5.543   4.433  0.6113  1.4190 -0.3703
 7754SOL     OW23656   3.575   5.465   1.453 -0.2571  0.3548 -0.4591
 7754SOL    HW123657   3.563   5.408   1.529  1.5722  1.1577  0.4818
 7754SOL    HW223658   3.669   5.464   1.436 -0.2562  2.4489 -0.8908
 7755SOL     OW23659   0.657   2.980   4.040  0.1399 -0.5545 -0.2374
 7755SOL    HW123660   0.616   2.989   3.954  2.3523  0.7960 -1.2579
 7755SOL    HW223661   0.587   2.997   4.102 -1.4817 -1.3665 -1.7600
 7756SOL     OW23662   3.421   0.002   6.669 -0.0774 -0.6083  0.3279
 7756SOL    HW123663   3.489  -0.057   6.703 -1.2627 -0.5596  3.0646
 7756SOL    HW223664   3.354  -0.057   6.634 -0.1814 -0.8333  0.8815
 7757SOL     OW23665   5.846   4.235   3.525 -0.0743 -0.0982  0.1487
 7757SOL    HW123666   5.811   4.241   3.436  1.1916 -0.2036 -0.3851
 7757SOL    HW223667   5.873   4.143   3.534  2.4780  0.5174 -0.4615
 7758SOL     OW23668   4.096   1.216   4.388  0.5069 -0.0845  0.4630
 7758SOL    HW123669   4.069   1.167   4.466  1.1478  0.9596  1.3643
 7758SOL    HW223670   4.055   1.302   4.399  1.8238  0.5680  0.4260
 7759SOL     OW23671   3.941   5.153   1.415 -0.7862  0.2149 -0.0965
 7759SOL    HW123672   4.033   5.128   1.406 -0.8874  0.2562 -1.4390
 7759SOL    HW223673   3.908   5.098   1.486  0.7473  1.5878  1.7707
 7760SOL     OW23674   6.180   4.376   5.748 -0.1148 -0.3686 -0.0857
 7760SOL    HW123675   6.148   4.338   5.830  0.3096 -0.4996  0.0243
 7760SOL    HW223676   6.273   4.392   5.765 -0.1490  0.1098 -0.3583
 7761SOL     OW23677   6.198   2.269   0.536  0.3766  0.2684  0.1258
 7761SOL    HW123678   6.127   2.327   0.508  0.4963  0.7562  0.8237
 7761SOL    HW223679   6.162   2.224   0.613  0.9144  0.7120  0.6413
 7762SOL     OW23680   5.865   3.444   4.247 -0.0778 -0.0566 -0.1179
 7762SOL    HW123681   5.816   3.524   4.267  0.5115  0.3536 -0.2730
 7762SOL    HW223682   5.842   3.383   4.316 -0.8327  0.1185 -0.2132
 7763SOL     OW23683   2.748   4.069   3.267  0.0802 -0.2239 -0.0633
 7763SOL    HW123684   2.728   3.990   3.317  0.4765  0.2088  0.7935
 7763SOL    HW223685   2.725   4.046   3.177 -0.2066 -1.1716  0.2356
 7764SOL     OW23686   0.641   6.754   6.514 -0.3017 -0.2979  0.0390
 7764SOL    HW123687   0.695   6.775   6.437  0.7298  0.5253  0.9531
 7764SOL    HW223688   0.573   6.820   6.513 -0.5491 -0.5506 -0.3962
 7765SOL     OW23689   5.440   6.294   1.753  0.1859  0.6043 -0.0662
 7765SOL    HW123690   5.433   6.389   1.764  0.5762  0.7766 -1.1690
 7765SOL    HW223691   5.533   6.275   1.765  0.3354  0.5636 -1.2087
 7766SOL     OW23692   2.360   4.696   1.350 -0.1817  0.3413  0.4844
 7766SOL    HW123693   2.449   4.667   1.330 -0.8278 -0.7368 -0.9515
 7766SOL    HW223694   2.352   4.686   1.445  2.1855  3.3313  1.1792
 7767SOL     OW23695   0.591   0.315   6.483  0.0745 -0.2708 -0.8076
 7767SOL    HW123696   0.582   0.393   6.429 -2.0390  1.1484  1.3708
 7767SOL    HW223697   0.685   0.299   6.487  0.7206  2.9824 -0.3251
 7768SOL     OW23698   3.851   0.099   3.348 -0.1955  0.5861  0.1003
 7768SOL    HW123699   3.773   0.046   3.369 -0.0507  0.5401  0.5342
 7768SOL    HW223700   3.863   0.154   3.425 -0.4799  1.4228 -0.4357
 7769SOL     OW23701   0.795   3.752   6.340 -0.1410  0.4902 -0.4148
 7769SOL    HW123702   0.857   3.821   6.361 -0.0137  0.2386  0.0632
 7769SOL    HW223703   0.788   3.753   6.245 -1.1648  2.0505 -0.3665
 7770SOL     OW23704   4.328   2.161   1.321  0.5234 -0.1720 -0.5068
 7770SOL    HW123705   4.250   2.153   1.377  0.8012 -0.0549 -0.0934
 7770SOL    HW223706   4.308   2.234   1.262  0.4532  0.0857 -0.1716
 7771SOL     OW23707   5.519   4.385   2.406 -0.5566  0.4819  0.8592
 7771SOL    HW123708   5.604   4.425   2.389  0.3269 -0.4350  2.7602
 7771SOL    HW223709   5.489   4.424   2.488 -0.9990 -0.6609  1.2711
 7772SOL     OW23710   5.843   4.132   4.622 -0.4122 -0.2103 -0.4741
 7772SOL    HW123711   5.833   4.224   4.647  0.3263 -0.2296 -0.0943
 7772SOL    HW223712   5.842   4.085   4.705 -0.1305 -0.4842 -0.6236
 7773SOL     OW23713   6.328   1.846   1.003  0.0421  0.1961  0.5837
 7773SOL    HW123714   6.295   1.838   0.914  0.0282 -0.9948  0.6729
 7773SOL    HW223715   6.415   1.806   1.000 -0.0805 -0.1267  1.1551
 7774SOL     OW23716   2.792   5.499   2.130 -0.2328 -0.0925 -0.5062
 7774SOL    HW123717   2.785   5.587   2.094  1.2620 -0.0350 -0.7481
 7774SOL    HW223718   2.884   5.492   2.156 -0.8799 -0.6793  1.8902
 7775SOL     OW23719   3.070   1.617   3.518  0.3392 -0.2099  0.8997
 7775SOL    HW123720   3.076   1.585   3.428 -1.6854  0.7577  0.3616
 7775SOL    HW223721   3.124   1.697   3.519  0.9582 -0.6202  0.7622
 7776SOL     OW23722   4.980   3.736   1.861  0.6456  0.5496  0.2693
 7776SOL    HW123723   4.963   3.827   1.886  0.5606  0.2731  1.2800
 7776SOL    HW223724   5.017   3.696   1.940 -1.5189 -0.8884  0.6528
 7777SOL     OW23725   2.440   5.009   4.403  0.0553 -0.0735 -0.2019
 7777SOL    HW123726   2.470   4.982   4.489 -2.0205 -0.8195  0.3609
 7777SOL    HW223727   2.451   5.104   4.402  0.3419 -0.0914  0.7884
 7778SOL     OW23728   6.311   3.812   5.204  0.5572 -0.2092 -0.1772
 7778SOL    HW123729   6.396   3.769   5.214  0.7035  0.5159  2.2779
 7778SOL    HW223730   6.259   3.781   5.278 -1.3478 -0.5863 -1.5815
 7779SOL     OW23731   5.421   1.015   6.105 -0.5371 -0.3269 -0.4555
 7779SOL    HW123732   5.492   0.956   6.081  0.5797  0.3190  1.1353
 7779SOL    HW223733   5.439   1.040   6.196 -1.1096  2.2206 -0.9607
 7780SOL     OW23734   2.718   3.810   6.290 -0.6710 -0.1792 -0.2454
 7780SOL    HW123735   2.778   3.758   6.343  0.5608 -0.3011 -1.7049
 7780SOL    HW223736   2.637   3.813   6.342  0.2834 -0.7622  1.3569
 7781SOL     OW23737   5.162   2.372   0.073  0.8399 -0.4840 -0.1381
 7781SOL    HW123738   5.109   2.379  -0.007  0.2988  0.0651  0.2592
 7781SOL    HW223739   5.108   2.413   0.141  1.7854  0.1111  0.2716
 7782SOL     OW23740   2.257   5.012   3.164 -0.0203 -0.1061 -0.1569
 7782SOL    HW123741   2.187   4.950   3.186  1.1708 -1.2390  0.6350
 7782SOL    HW223742   2.280   4.991   3.073 -0.5112  0.0678 -0.3208
 7783SOL     OW23743   3.737   5.699   6.608  0.0796  0.3403  0.1076
 7783SOL    HW123744   3.788   5.715   6.687 -1.1776  2.6777  0.5339
 7783SOL    HW223745   3.762   5.770   6.548 -0.2174 -0.4173 -0.9535
 7784SOL     OW23746   4.730   2.087   2.480 -0.0426 -0.2653  0.1910
 7784SOL    HW123747   4.811   2.085   2.531 -0.0561  0.7196  0.2736
 7784SOL    HW223748   4.759   2.086   2.389  0.0571 -0.2033  0.2217
 7785SOL     OW23749   6.942   5.785   3.154  0.1734  0.5994  0.5108
 7785SOL    HW123750   6.948   5.822   3.242 -1.3322  1.0439  0.4419
 7785SOL    HW223751   6.875   5.837   3.110 -0.3597 -0.7489 -0.3242
 7786SOL     OW23752   4.728   3.475   2.069 -0.1292 -0.1650 -0.2486
 7786SOL    HW123753   4.767   3.562   2.062 -0.5588 -0.0138 -0.7585
 7786SOL    HW223754   4.645   3.489   2.113 -0.1277 -0.3440 -0.1854
 7787SOL     OW23755   5.867   4.087   6.691  0.5425  0.7603 -0.0710
 7787SOL    HW123756   5.913   4.134   6.761  0.2240  2.1658 -0.7607
 7787SOL    HW223757   5.914   4.004   6.683  1.3446  1.0854  0.9774
 7788SOL     OW23758   6.211   5.212   3.166 -0.0997 -0.9255  0.3472
 7788SOL    HW123759   6.132   5.232   3.215 -0.3363 -0.7229 -0.1051
 7788SOL    HW223760   6.258   5.295   3.161  0.3272 -1.1309  0.9399
 7789SOL     OW23761   4.885   2.168   3.563  0.6952 -0.1523 -0.0305
 7789SOL    HW123762   4.859   2.242   3.508  1.1443  0.9811  1.2367
 7789SOL    HW223763   4.888   2.094   3.503 -2.1157  0.3159 -0.9073
 7790SOL     OW23764   2.120   6.074   6.606 -0.1741  0.2353  0.0266
 7790SOL    HW123765   2.065   6.113   6.537 -1.4479 -4.1636 -1.7707
 7790SOL    HW223766   2.071   6.087   6.686 -2.5367 -1.0629 -1.1221
 7791SOL     OW23767   1.599   0.029   0.268 -0.1516  0.9024  0.4597
 7791SOL    HW123768   1.688   0.063   0.276  0.4909 -0.8500  1.3578
 7791SOL    HW223769   1.593  -0.038   0.336 -1.4074 -0.5441 -1.0062
 7792SOL     OW23770   2.752   1.368   4.173 -0.0226  0.0903  0.3112
 7792SOL    HW123771   2.712   1.379   4.260 -0.4855  0.4979  0.0505
 7792SOL    HW223772   2.818   1.437   4.169  0.0259  0.0464  0.3559
 7793SOL     OW23773   3.128   3.120   2.403  0.3330 -0.2353  0.0015
 7793SOL    HW123774   3.193   3.092   2.469  1.4552  1.9596 -0.0706
 7793SOL    HW223775   3.072   3.181   2.450 -0.1556 -0.2447 -0.5677
 7794SOL     OW23776   5.498   1.608   6.466  0.5037  0.0800 -0.0261
 7794SOL    HW123777   5.513   1.689   6.417 -1.7418 -0.5291 -1.8975
 7794SOL    HW223778   5.474   1.637   6.554 -0.6461  1.4970 -0.7647
 7795SOL     OW23779   3.797   3.867   6.672 -0.4504  1.1165  0.3097
 7795SOL    HW123780   3.730   3.842   6.609 -0.1619  3.2407 -0.9109
 7795SOL    HW223781   3.878   3.828   6.638 -0.5542  1.0124  0.1811
 7796SOL     OW23782   4.781   6.154   3.796 -0.1130  0.9193 -0.0157
 7796SOL    HW123783   4.870   6.179   3.772 -0.2800  2.9998  1.2488
 7796SOL    HW223784   4.791   6.077   3.851  0.7916  0.4141 -0.8657
 7797SOL     OW23785   1.324   3.795   6.266  0.4629 -0.1864  0.4285
 7797SOL    HW123786   1.298   3.857   6.198 -0.7458 -1.5561 -0.4054
 7797SOL    HW223787   1.414   3.771   6.244  0.3191 -0.0880 -0.2950
 7798SOL     OW23788   2.673   3.882   6.012  0.0650  0.4337  0.1202
 7798SOL    HW123789   2.717   3.844   6.088  2.8443 -0.8308 -1.9096
 7798SOL    HW223790   2.585   3.845   6.012  0.9250 -1.7173  1.2252
 7799SOL     OW23791   3.608   2.742   5.526  0.4060 -0.0760 -0.1844
 7799SOL    HW123792   3.624   2.832   5.556 -0.1115  0.0623 -0.3226
 7799SOL    HW223793   3.695   2.703   5.522  0.7745  0.7816 -1.2589
 7800SOL     OW23794   5.771   6.465   4.074  0.9047 -0.1890  0.0521
 7800SOL    HW123795   5.812   6.543   4.110 -0.5889  1.0426 -0.7880
 7800SOL    HW223796   5.721   6.428   4.147  0.6532  0.3290  0.1444
 7801SOL     OW23797   4.679   5.030   5.571 -0.1220 -0.0612  0.5554
 7801SOL    HW123798   4.670   5.079   5.489 -1.1647  1.4642  1.5282
 7801SOL    HW223799   4.772   5.006   5.574  0.4448  1.8129 -0.0194
 7802SOL     OW23800   5.418   6.330   0.346 -0.0314  0.3390 -0.3972
 7802SOL    HW123801   5.498   6.280   0.331  0.8719  1.5421  0.2633
 7802SOL    HW223802   5.426   6.363   0.435 -2.8136 -2.2142  0.9972
 7803SOL     OW23803   6.649   1.572   4.915  0.6774  0.2429 -0.2236
 7803SOL    HW123804   6.656   1.654   4.866 -1.1140  1.2247  1.0593
 7803SOL    HW223805   6.555   1.560   4.930  1.0142 -1.2149  0.9967
 7804SOL     OW23806   3.606   1.796   4.792  0.4787 -0.1833  0.5900
 7804SOL    HW123807   3.527   1.805   4.739  1.3448  1.2267 -0.5308
 7804SOL    HW223808   3.671   1.758   4.732  1.1888  0.4872  0.9119
 7805SOL     OW23809   2.135   5.346   5.724 -0.1653 -0.1620  0.5473
 7805SOL    HW123810   2.178   5.425   5.691 -0.8372 -0.9313 -2.4860
 7805SOL    HW223811   2.041   5.364   5.713 -0.3212 -1.3278 -0.1626
 7806SOL     OW23812   1.872   0.030   1.072 -0.1194 -0.2808 -0.3788
 7806SOL    HW123813   1.832   0.113   1.095  0.8368 -0.2180  1.1941
 7806SOL    HW223814   1.946   0.054   1.016  0.6511  0.0393  0.7329
 7807SOL     OW23815   3.564   6.133   3.179 -0.3380 -0.1560  0.3165
 7807SOL    HW123816   3.539   6.170   3.094 -0.7518  1.4514  1.0909
 7807SOL    HW223817   3.638   6.188   3.207  0.6747 -1.5248  0.4141
 7808SOL     OW23818   6.392   6.537   4.051  0.2596 -0.0299 -0.3580
 7808SOL    HW123819   6.481   6.572   4.060  0.7363 -1.2771 -0.0034
 7808SOL    HW223820   6.404   6.442   4.053 -1.1190 -0.2044 -0.0506
 7809SOL     OW23821   0.624   6.041   4.032 -0.2370 -0.2644 -0.5204
 7809SOL    HW123822   0.555   5.973   4.034  0.1337 -0.6690 -1.1004
 7809SOL    HW223823   0.702   5.994   4.003 -0.0392  0.4694 -1.1938
 7810SOL     OW23824   6.266   3.460   0.422 -0.1165 -0.0967 -0.2317
 7810SOL    HW123825   6.340   3.515   0.448 -0.5921 -0.1272  1.2801
 7810SOL    HW223826   6.288   3.373   0.454 -0.2386 -0.3775 -0.9068
 7811SOL     OW23827   1.751   6.570   5.916 -0.0753  0.0640  0.5045
 7811SOL    HW123828   1.765   6.517   5.838 -1.3065 -1.0481  1.0066
 7811SOL    HW223829   1.713   6.652   5.884  1.9541  0.7678 -0.2882
 7812SOL     OW23830   6.251   0.897   0.222 -0.0995 -0.0276 -0.0867
 7812SOL    HW123831   6.337   0.862   0.244  0.0216 -0.2074 -0.8509
 7812SOL    HW223832   6.265   0.991   0.209  0.1940 -0.2327 -1.3086
 7813SOL     OW23833   4.029   0.801   1.004  0.0081 -0.4476 -0.2379
 7813SOL    HW123834   3.954   0.748   0.980 -1.2043  0.5471  1.2115
 7813SOL    HW223835   4.050   0.775   1.093  0.6052  0.1561 -0.1915
 7814SOL     OW23836   2.472   1.244   1.570  0.1268  0.2041  0.1079
 7814SOL    HW123837   2.406   1.187   1.610  0.8526 -0.1446  0.8197
 7814SOL    HW223838   2.468   1.325   1.621 -0.5196  0.6091 -0.5582
 7815SOL     OW23839   1.990   3.021   3.406  0.0837 -0.3477  0.1037
 7815SOL    HW123840   1.920   3.057   3.459 -0.1649  0.4335 -0.7177
 7815SOL    HW223841   2.032   2.955   3.461 -0.5604 -0.0041  1.0148
 7816SOL     OW23842   3.174   2.959   3.283 -0.0070 -0.1697 -0.4670
 7816SOL    HW123843   3.102   2.938   3.222 -2.0959 -0.0745  1.7997
 7816SOL    HW223844   3.226   3.024   3.237 -1.0408 -0.6669 -2.4525
 7817SOL     OW23845   4.094   4.096   6.076 -0.3458  0.5430 -0.2614
 7817SOL    HW123846   4.184   4.070   6.057 -0.6523  0.1265 -1.2428
 7817SOL    HW223847   4.100   4.147   6.157  0.8206  0.8854 -0.5386
 7818SOL     OW23848   6.829   6.092   1.848 -0.1685  0.5156  0.5769
 7818SOL    HW123849   6.865   6.077   1.761 -1.4025  1.7390 -0.1937
 7818SOL    HW223850   6.876   6.031   1.905  0.7016 -0.2689 -0.9260
 7819SOL     OW23851   0.124   2.798   3.743 -0.2667  0.4910 -0.1615
 7819SOL    HW123852   0.194   2.733   3.749 -1.7000 -1.0308  0.9551
 7819SOL    HW223853   0.065   2.764   3.676 -0.7342  0.9595  0.0020
 7820SOL     OW23854   5.292   5.414   5.757 -0.0677  0.3762 -0.3014
 7820SOL    HW123855   5.344   5.335   5.772 -0.8337  0.0392  0.6579
 7820SOL    HW223856   5.352   5.475   5.715  0.6602 -0.5552 -0.6416
 7821SOL     OW23857   1.227   3.965   1.215  0.0819 -0.3238  0.0475
 7821SOL    HW123858   1.318   3.964   1.245  0.1465  0.6115 -0.0717
 7821SOL    HW223859   1.177   3.992   1.292 -0.0138 -0.1935 -0.0595
 7822SOL     OW23860   2.725   2.601   5.463  0.5661  0.0174 -0.0795
 7822SOL    HW123861   2.709   2.556   5.380 -0.4077 -0.2282  0.2324
 7822SOL    HW223862   2.809   2.567   5.493 -0.9226 -3.0313  1.0354
 7823SOL     OW23863   4.369   4.840   6.943 -0.7452 -0.4759  0.5398
 7823SOL    HW123864   4.307   4.913   6.935  1.3833  1.4730  0.6719
 7823SOL    HW223865   4.397   4.842   7.034  1.6408  0.6588 -0.1309
 7824SOL     OW23866   0.363   1.626   6.658  0.1919 -0.1216  0.7691
 7824SOL    HW123867   0.444   1.676   6.667  0.2838 -0.0602 -0.3079
 7824SOL    HW223868   0.358   1.605   6.565 -1.2605  0.2920  0.7269
 7825SOL     OW23869   6.308   5.629   5.827  0.1272  0.1867  0.0965
 7825SOL    HW123870   6.338   5.623   5.918  1.5625  0.4729 -0.3387
 7825SOL    HW223871   6.313   5.722   5.806 -4.0945  0.8391  0.9333
 7826SOL     OW23872   5.790   1.041   5.242  0.3151  0.1410  0.0173
 7826SOL    HW123873   5.709   1.049   5.291 -0.0168  1.6082 -0.7208
 7826SOL    HW223874   5.840   1.119   5.265  0.1913  0.8153 -1.8573
 7827SOL     OW23875   4.959   2.813   2.965 -0.3866 -0.0727  0.1827
 7827SOL    HW123876   5.020   2.765   3.020 -1.4699 -1.5809  0.1238
 7827SOL    HW223877   4.994   2.802   2.876  0.5355  1.0936  0.3800
 7828SOL     OW23878   4.003   1.571   5.940 -1.0200  0.4497 -0.0721
 7828SOL    HW123879   4.049   1.650   5.966 -1.5821  0.5132  0.7810
 7828SOL    HW223880   4.021   1.508   6.010 -1.8863  0.3476  0.0704
 7829SOL     OW23881   0.727   5.684   1.928 -0.9234 -0.3305 -0.6798
 7829SOL    HW123882   0.675   5.759   1.898 -1.1860 -0.5278 -0.7135
 7829SOL    HW223883   0.791   5.671   1.857 -0.6058  0.1228 -0.4836
 7830SOL     OW23884   0.022   4.959   5.995 -0.7856  0.1830  0.0120
 7830SOL    HW123885   0.008   5.033   5.935  1.0513  0.3969 -0.2272
 7830SOL    HW223886  -0.042   4.894   5.968 -0.4598  0.5414 -1.7660
 7831SOL     OW23887   2.213   1.586   3.606 -0.3711  0.0296 -0.3223
 7831SOL    HW123888   2.280   1.596   3.538  1.8520 -2.6306  1.2275
 7831SOL    HW223889   2.248   1.634   3.681 -3.2520  3.7606 -1.0821
 7832SOL     OW23890   2.410   2.441   0.717 -0.7127  0.2039  0.5021
 7832SOL    HW123891   2.498   2.443   0.678 -0.4534 -1.1408  0.9389
 7832SOL    HW223892   2.421   2.484   0.802 -0.6354  0.6215  0.2846
 7833SOL     OW23893   3.867   2.977   1.098 -0.9906 -0.0792 -0.0880
 7833SOL    HW123894   3.952   2.999   1.136 -0.5705  0.1311 -1.0993
 7833SOL    HW223895   3.836   3.059   1.060 -1.0813 -0.4208 -0.7671
 7834SOL     OW23896   0.585   2.227   4.705  0.1330  0.0444  0.7108
 7834SOL    HW123897   0.679   2.229   4.717  0.3438  0.4759 -0.7316
 7834SOL    HW223898   0.563   2.134   4.701  0.4775 -0.0582  1.1287
 7835SOL     OW23899   5.189   0.828   0.305  0.3468  0.0414  0.0425
 7835SOL    HW123900   5.252   0.824   0.233 -0.4370  1.7570 -0.8062
 7835SOL    HW223901   5.229   0.886   0.369  0.2053  0.0505  0.1234
 7836SOL     OW23902   5.865   6.166   1.560 -0.3696 -0.4790 -0.3181
 7836SOL    HW123903   5.912   6.199   1.483  0.4889  0.0743  0.4159
 7836SOL    HW223904   5.882   6.072   1.560  0.4656 -0.3403 -0.2722
 7837SOL     OW23905   4.200   0.018   2.742  0.4141  0.3235 -0.5658
 7837SOL    HW123906   4.244   0.103   2.733  1.2899  0.1612  1.6014
 7837SOL    HW223907   4.116   0.039   2.784  1.5591 -0.0003  2.0816
 7838SOL     OW23908   3.366   2.268   3.578 -0.1868 -0.2474  0.0406
 7838SOL    HW123909   3.328   2.271   3.491 -0.6512 -0.3623  0.2355
 7838SOL    HW223910   3.330   2.188   3.617 -0.6495  0.2407  0.6322
 7839SOL     OW23911   2.299   2.939   2.258  0.1870 -0.0315  0.0342
 7839SOL    HW123912   2.297   2.881   2.183 -0.1584  0.9166 -0.7070
 7839SOL    HW223913   2.220   2.919   2.307  0.5394 -0.8255  0.2834
 7840SOL     OW23914   5.091   6.164   3.834  0.1980  0.0795  0.2315
 7840SOL    HW123915   5.084   6.244   3.886  0.7994  0.1443  0.2252
 7840SOL    HW223916   5.085   6.093   3.898  3.7109  0.1606  0.8537
 7841SOL     OW23917   0.191   4.667   1.930 -0.2144  0.3772 -0.5878
 7841SOL    HW123918   0.284   4.689   1.940 -0.0178 -1.0295  1.0317
 7841SOL    HW223919   0.191   4.595   1.866 -0.1852  0.2964 -0.4964
 7842SOL     OW23920   3.305   2.223   0.562 -0.0702 -0.1418  0.3698
 7842SOL    HW123921   3.393   2.246   0.532 -0.6818  0.0374 -1.3860
 7842SOL    HW223922   3.301   2.128   0.552 -0.0869 -0.1492  0.4443
 7843SOL     OW23923   2.815   4.463   1.136  0.0570  0.6159  0.0175
 7843SOL    HW123924   2.895   4.514   1.154 -0.4457  1.0771  0.9971
 7843SOL    HW223925   2.776   4.507   1.060 -0.1075  1.3884  0.5429
 7844SOL     OW23926   4.566   4.782   5.362  0.0825 -0.0544  0.6612
 7844SOL    HW123927   4.549   4.845   5.292  0.0346 -0.9251 -0.1211
 7844SOL    HW223928   4.661   4.770   5.360  0.3166  1.3659  2.0265
 7845SOL     OW23929   0.318   1.667   2.717 -0.0938 -0.5539 -0.3099
 7845SOL    HW123930   0.259   1.660   2.642 -0.8468 -1.1051  0.3129
 7845SOL    HW223931   0.291   1.747   2.762  0.3084 -0.2632 -0.5812
 7846SOL     OW23932   1.747   1.986   4.107  0.2890  0.2058  0.0758
 7846SOL    HW123933   1.820   1.987   4.046  0.2578 -0.2355  0.0282
 7846SOL    HW223934   1.675   1.946   4.058 -0.3214  1.6145 -0.2513
 7847SOL     OW23935   6.789   2.518   5.629 -0.0831 -0.2936 -0.0236
 7847SOL    HW123936   6.701   2.555   5.626  0.1900  0.3392 -0.6017
 7847SOL    HW223937   6.816   2.513   5.537  0.8549  0.4323  0.1996
 7848SOL     OW23938   6.665   6.292   1.425 -0.7890 -0.3087  0.1479
 7848SOL    HW123939   6.749   6.306   1.381 -0.9189  1.5771  0.4346
 7848SOL    HW223940   6.611   6.250   1.359 -0.5941  1.3579 -1.1308
 7849SOL     OW23941   2.976   2.045   1.109 -0.0041  0.0344 -0.3577
 7849SOL    HW123942   3.030   2.079   1.180  0.3352 -0.6840 -0.2581
 7849SOL    HW223943   3.027   2.059   1.030 -0.4596  1.0005 -0.4989
 7850SOL     OW23944   3.655   0.305   1.725  0.3730 -0.1348  0.0584
 7850SOL    HW123945   3.663   0.212   1.744 -0.4105 -0.1058  0.5612
 7850SOL    HW223946   3.744   0.332   1.700  0.5810 -1.0281 -0.1931
 7851SOL     OW23947   4.862   0.877   4.055  0.1010  0.2966 -0.2521
 7851SOL    HW123948   4.943   0.826   4.056  0.2799  0.5805  0.4402
 7851SOL    HW223949   4.828   0.867   3.966 -0.2506 -1.6240  0.0542
 7852SOL     OW23950   1.009   5.890   6.311 -0.0599  0.2121  0.5268
 7852SOL    HW123951   1.034   5.981   6.324  0.0995  0.3364 -0.5554
 7852SOL    HW223952   1.083   5.840   6.346  0.1241  0.5048  0.5620
 7853SOL     OW23953   2.241   6.434   1.809  0.9868  0.1444 -0.3688
 7853SOL    HW123954   2.213   6.389   1.729  1.4218  1.2240 -1.1430
 7853SOL    HW223955   2.330   6.463   1.790  0.9955  0.6499  0.4179
 7854SOL     OW23956   5.707   0.874   6.415 -0.2015 -0.3357 -0.2182
 7854SOL    HW123957   5.647   0.865   6.489  0.2153 -0.1363  0.1465
 7854SOL    HW223958   5.661   0.833   6.342  0.2309 -2.3912  0.6094
 7855SOL     OW23959   4.560   2.382   5.088  0.3993  0.2236 -0.5182
 7855SOL    HW123960   4.509   2.462   5.094  0.7332  0.3360  1.3393
 7855SOL    HW223961   4.648   2.406   5.116  1.4886 -0.0396 -3.3757
 7856SOL     OW23962   4.285   5.225   5.337  0.2234 -0.5798  0.4087
 7856SOL    HW123963   4.199   5.184   5.338 -0.9225  1.6842  1.5437
 7856SOL    HW223964   4.297   5.255   5.247  0.0211 -1.2599  0.1519
 7857SOL     OW23965   3.551   3.557   2.335 -0.5564 -0.1873 -0.4689
 7857SOL    HW123966   3.570   3.612   2.259 -1.2076  0.0029 -0.5057
 7857SOL    HW223967   3.559   3.616   2.410 -0.0185 -0.3492 -0.3981
 7858SOL     OW23968   1.672   2.864   2.571 -0.6573  0.2134 -0.7301
 7858SOL    HW123969   1.602   2.923   2.597 -0.9634  0.2099 -1.5148
 7858SOL    HW223970   1.738   2.920   2.531  0.4544  0.4073  1.2388
 7859SOL     OW23971   2.627   3.434   2.769  0.1072 -0.0562 -0.0847
 7859SOL    HW123972   2.557   3.471   2.716  0.1402 -0.2963 -0.2990
 7859SOL    HW223973   2.639   3.345   2.734 -0.4700 -0.5307  0.8904
 7860SOL     OW23974   1.980   6.036   4.692 -0.7813  0.2020  0.2253
 7860SOL    HW123975   1.960   5.961   4.748 -0.3404  0.8655  1.3155
 7860SOL    HW223976   1.899   6.087   4.691 -0.5815  0.5382  0.8350
 7861SOL     OW23977   4.781   5.444   1.561 -0.4832 -0.6015 -0.1574
 7861SOL    HW123978   4.712   5.486   1.510 -0.5294 -1.0781 -0.5026
 7861SOL    HW223979   4.769   5.476   1.650 -1.3636 -0.9331 -0.1469
 7862SOL     OW23980   6.868   1.586   6.725 -0.2622 -0.4634 -0.1749
 7862SOL    HW123981   6.880   1.532   6.646 -0.8534 -1.3659  0.3383
 7862SOL    HW223982   6.918   1.541   6.793  0.4828  0.4678 -0.0818
 7863SOL     OW23983   2.427   4.249   3.217  0.4456 -0.5339  0.0126
 7863SOL    HW123984   2.507   4.216   3.175  0.6629 -0.6832  0.5325
 7863SOL    HW223985   2.375   4.171   3.235  0.7450 -0.5578  0.8084
 7864SOL     OW23986   1.395   5.952   1.980 -0.4127  0.2974  0.5012
 7864SOL    HW123987   1.475   5.906   2.006 -0.5794  0.2066  0.8531
 7864SOL    HW223988   1.426   6.036   1.945 -0.2369  0.8721  1.9575
 7865SOL     OW23989   5.624   2.675   5.136  0.1024 -0.5690  0.0231
 7865SOL    HW123990   5.566   2.710   5.069 -2.2446  1.1610  2.7261
 7865SOL    HW223991   5.677   2.749   5.163  2.2130 -1.6443 -0.9566
 7866SOL     OW23992   4.126   3.134   5.574  0.2222  0.3091  0.1907
 7866SOL    HW123993   4.194   3.072   5.546 -1.1566 -0.2303 -2.2486
 7866SOL    HW223994   4.110   3.188   5.496 -2.1191  0.4351  0.7005
 7867SOL     OW23995   0.898   0.013   5.102  0.1000 -0.2061 -0.6002
 7867SOL    HW123996   0.833  -0.055   5.083 -1.2566  0.6625  0.7014
 7867SOL    HW223997   0.949  -0.023   5.175 -1.5242  0.6439  1.0474
 7868SOL     OW23998   1.951   4.439   3.167  0.0407  0.2205  0.0179
 7868SOL    HW123999   1.962   4.476   3.080  1.6380  1.0782  0.5399
 7868SOL    HW224000   2.035   4.456   3.211 -0.8990  0.2464  1.8872
 7869SOL     OW24001   6.255   5.272   6.009  0.8550  0.2544  0.0504
 7869SOL    HW124002   6.231   5.180   5.994  0.6756  0.3575 -0.3042
 7869SOL    HW224003   6.220   5.318   5.934  0.0148  0.7773  0.7522
 7870SOL     OW24004   5.260   4.769   0.826  0.7965  0.3129 -0.1583
 7870SOL    HW124005   5.200   4.814   0.887  1.5402  1.8184 -0.5068
 7870SOL    HW224006   5.206   4.701   0.786 -0.9934  2.2073 -1.1468
 7871SOL     OW24007   0.016   3.887   4.037 -0.8369  0.6690  0.6786
 7871SOL    HW124008   0.037   3.979   4.021  1.6178  0.2182  0.9000
 7871SOL    HW224009   0.033   3.843   3.954 -0.6734  0.2421  0.9303
 7872SOL     OW24010   2.711   1.841   5.691  0.1568  1.0175  0.3420
 7872SOL    HW124011   2.793   1.798   5.711 -0.4959  0.2174  1.3627
 7872SOL    HW224012   2.734   1.908   5.626  1.4542  0.2584  0.0003
 7873SOL     OW24013   3.460   4.401   1.563 -0.1194 -0.1428 -0.2620
 7873SOL    HW124014   3.412   4.456   1.625 -0.5078  0.1365 -0.7947
 7873SOL    HW224015   3.398   4.387   1.491  0.9215  1.0755 -1.4443
 7874SOL     OW24016   6.700   6.535   0.728  0.0330 -0.5116  0.3653
 7874SOL    HW124017   6.786   6.564   0.695 -1.2389  0.8015 -2.1039
 7874SOL    HW224018   6.680   6.457   0.677 -0.1041 -1.0287  1.1971
 7875SOL     OW24019   0.054   3.599   2.301 -0.3836  0.2222  0.0295
 7875SOL    HW124020   0.143   3.624   2.326 -0.7430  1.9132 -0.2129
 7875SOL    HW224021   0.013   3.571   2.383 -0.0715  0.9166  0.4392
 7876SOL     OW24022   1.205   4.463   5.519 -0.6784 -0.3001  0.1198
 7876SOL    HW124023   1.203   4.526   5.591  0.8439 -0.9669  0.7943
 7876SOL    HW224024   1.225   4.516   5.441 -0.6069  0.2027  0.4737
 7877SOL     OW24025   4.245   2.801   5.175 -0.7166  0.0963 -0.2109
 7877SOL    HW124026   4.249   2.801   5.270  0.3071  1.8975 -0.2128
 7877SOL    HW224027   4.155   2.778   5.155 -0.4051 -2.7485  1.0812
 7878SOL     OW24028   2.030   2.928   3.908  0.0420 -0.1965 -0.2383
 7878SOL    HW124029   2.047   2.843   3.867  0.9774 -0.0736 -0.1262
 7878SOL    HW224030   2.105   2.982   3.883  0.1154  0.1950  0.7924
 7879SOL     OW24031   5.381   0.264   3.510 -0.0288  0.2744  0.2873
 7879SOL    HW124032   5.304   0.318   3.525  0.0586  0.2637  0.7956
 7879SOL    HW224033   5.374   0.193   3.575 -0.4394 -0.6531 -0.7334
 7880SOL     OW24034   5.220   4.206   0.177 -0.2309 -0.1758  0.5514
 7880SOL    HW124035   5.272   4.176   0.252 -0.9715  1.4200  1.7713
 7880SOL    HW224036   5.285   4.223   0.109  0.6470 -0.1085  1.3698
 7881SOL     OW24037   2.246   4.520   1.175 -0.5277  0.6462 -0.3075
 7881SOL    HW124038   2.306   4.557   1.110  0.5172  0.3152  0.4593
 7881SOL    HW224039   2.261   4.570   1.254 -2.4418  1.6512 -0.5103
 7882SOL     OW24040   2.031   4.258   0.411 -0.1309 -0.1091  0.7327
 7882SOL    HW124041   2.103   4.250   0.348  0.2805  0.7660  1.0805
 7882SOL    HW224042   2.047   4.187   0.473 -0.6082 -1.0536 -0.1951
 7883SOL     OW24043   6.446   0.469   5.104 -0.0377 -0.0837  0.6351
 7883SOL    HW124044   6.403   0.384   5.092 -2.3188  0.7804  2.0106
 7883SOL    HW224045   6.478   0.493   5.017 -2.0373 -0.9963 -0.4070
 7884SOL     OW24046   4.008   0.579   2.528  0.2247  0.3066 -0.6011
 7884SOL    HW124047   4.078   0.566   2.592 -0.0621  0.0519 -0.3334
 7884SOL    HW224048   4.025   0.514   2.460 -1.2592 -1.6713  0.7790
 7885SOL     OW24049   5.520   3.700   6.590 -0.4740  0.1335  0.3763
 7885SOL    HW124050   5.437   3.656   6.608  0.3946 -1.4012  0.8465
 7885SOL    HW224051   5.516   3.782   6.639 -1.5940 -0.0357  0.5879
 7886SOL     OW24052   1.515   1.795   5.757  0.3837 -0.6701  0.2105
 7886SOL    HW124053   1.486   1.860   5.821 -1.2468 -2.1926  1.1328
 7886SOL    HW224054   1.565   1.732   5.808  0.0301 -1.3084 -0.2155
 7887SOL     OW24055   3.378   1.097   2.157  0.6485  0.1804  0.1145
 7887SOL    HW124056   3.423   1.157   2.216  2.5772 -0.6201 -0.4439
 7887SOL    HW224057   3.329   1.039   2.215  0.0265  1.2995  0.7344
 7888SOL     OW24058   4.470   0.554   0.636 -0.1315 -0.7003 -0.4973
 7888SOL    HW124059   4.435   0.568   0.724 -0.5796 -0.1172 -0.7572
 7888SOL    HW224060   4.400   0.585   0.578  0.9183  0.8006 -1.0345
 7889SOL     OW24061   2.588   2.598   2.934  0.2524 -0.7526  0.2534
 7889SOL    HW124062   2.651   2.607   2.862 -1.1612  0.0808 -0.9564
 7889SOL    HW224063   2.506   2.631   2.897 -0.7988 -1.4118  1.9038
 7890SOL     OW24064   0.794   6.676   3.960 -0.1901 -0.2490  0.0246
 7890SOL    HW124065   0.775   6.600   4.014  1.4059  0.0583  1.1233
 7890SOL    HW224066   0.862   6.723   4.010  0.6898  0.5326 -1.8287
 7891SOL     OW24067   4.377   4.271   4.873 -0.6688 -0.3070  0.1076
 7891SOL    HW124068   4.472   4.270   4.880 -0.6923 -1.6154  0.5949
 7891SOL    HW224069   4.350   4.181   4.896 -2.0602  0.2345  0.7493
 7892SOL     OW24070   3.888   0.881   0.639 -0.7441 -0.0460  0.4330
 7892SOL    HW124071   3.804   0.886   0.685 -0.7154 -1.0745  0.6266
 7892SOL    HW224072   3.953   0.903   0.706 -0.9174  2.0906 -0.0463
 7893SOL     OW24073   1.585   1.199   3.920  0.1391  0.2436 -0.0668
 7893SOL    HW124074   1.673   1.223   3.949 -0.5882  0.5741  2.0943
 7893SOL    HW224075   1.527   1.258   3.968 -1.3276 -0.9112 -0.3291
 7894SOL     OW24076   4.331   6.769   6.491  0.3678  0.2615  0.0361
 7894SOL    HW124077   4.402   6.832   6.480  0.7075 -0.2361 -0.7106
 7894SOL    HW224078   4.283   6.774   6.408  0.4607 -0.5316 -0.0696
 7895SOL     OW24079   3.018   4.898   1.230  0.5214  0.2924 -0.0546
 7895SOL    HW124080   3.016   4.807   1.260 -0.9031  1.1285  2.6743
 7895SOL    HW224081   3.111   4.922   1.234  0.8359 -0.8282 -0.1732
 7896SOL     OW24082   3.181   3.159   6.135  0.2946  0.5163  0.5643
 7896SOL    HW124083   3.105   3.145   6.192 -0.4485  0.6661 -0.3692
 7896SOL    HW224084   3.145   3.159   6.047  1.2921  1.2736  0.1420
 7897SOL     OW24085   5.395   3.237   4.263 -0.3298  0.4928 -0.5568
 7897SOL    HW124086   5.444   3.294   4.203 -0.7879  0.8078 -0.6389
 7897SOL    HW224087   5.316   3.214   4.214  0.5713 -1.5310 -1.1627
 7898SOL     OW24088   0.101   6.919   4.065 -0.3600 -0.1663  0.2360
 7898SOL    HW124089   0.145   6.992   4.107  0.6286  0.1630 -1.3007
 7898SOL    HW224090   0.117   6.845   4.123  3.7446 -0.4612 -0.9723
 7899SOL     OW24091   4.667   4.801   2.861  0.3031 -0.1921  0.0902
 7899SOL    HW124092   4.716   4.723   2.839  0.0525 -0.0535 -1.0428
 7899SOL    HW224093   4.649   4.793   2.955 -0.3169 -1.8363 -0.1333
 7900SOL     OW24094   5.888   3.409   5.662  0.3183  0.2707  0.3134
 7900SOL    HW124095   5.850   3.427   5.748  0.4775 -0.1232  0.4654
 7900SOL    HW224096   5.846   3.328   5.634 -0.1517  0.6929 -0.2296
 7901SOL     OW24097   6.444   2.888   6.941  0.2322  0.1105  0.0391
 7901SOL    HW124098   6.503   2.954   6.977  0.5692 -0.0138 -0.2949
 7901SOL    HW224099   6.431   2.913   6.850 -0.3892  0.2522  0.1616
 7902SOL     OW24100   2.763   2.679   5.974 -0.5034 -0.5264  0.0166
 7902SOL    HW124101   2.849   2.638   5.963  1.2217  2.9738 -0.9418
 7902SOL    HW224102   2.711   2.646   5.900  1.0164 -0.4657 -1.1210
 7903SOL     OW24103   5.163   1.244   3.139  0.1460 -0.3800 -0.0908
 7903SOL    HW124104   5.144   1.311   3.073  1.3221 -0.0027 -0.0752
 7903SOL    HW224105   5.174   1.163   3.089  1.3473 -0.0355 -0.4078
 7904SOL     OW24106   0.957   5.501   2.819  0.0385 -0.5119 -0.6079
 7904SOL    HW124107   0.929   5.506   2.728 -2.1578  2.9614  0.0835
 7904SOL    HW224108   1.029   5.564   2.826 -0.3375 -0.1553  0.1991
 7905SOL     OW24109   2.401   3.436   4.587 -0.4119 -0.2585 -0.4824
 7905SOL    HW124110   2.399   3.366   4.652 -0.5476 -1.4441 -1.7127
 7905SOL    HW224111   2.310   3.445   4.559 -0.3175  0.0579 -0.6896
 7906SOL     OW24112   6.005   1.211   6.397 -0.3590 -0.3290  0.0696
 7906SOL    HW124113   6.031   1.119   6.399 -0.2043 -0.3153 -0.9712
 7906SOL    HW224114   5.928   1.216   6.454 -0.9492 -1.2810 -0.6281
 7907SOL     OW24115   2.202   4.563   2.143 -0.3821  0.1193 -0.3884
 7907SOL    HW124116   2.293   4.591   2.132  0.3000 -2.0125 -0.6816
 7907SOL    HW224117   2.186   4.568   2.237 -0.2134  1.2114 -0.4103
 7908SOL     OW24118   2.934   1.884   4.696  0.1305 -0.3025 -0.5061
 7908SOL    HW124119   2.865   1.940   4.660 -0.4004  0.3369  1.3949
 7908SOL    HW224120   2.911   1.796   4.666 -1.3762 -0.0546 -0.1814
 7909SOL     OW24121   2.801   3.124   3.390 -0.5071 -0.6501 -0.4752
 7909SOL    HW124122   2.822   3.045   3.440  0.5147  0.3497  0.7606
 7909SOL    HW224123   2.770   3.186   3.456  0.8272  0.6949 -1.0651
 7910SOL     OW24124   3.482   6.370   1.837  0.0304 -0.4268  0.3648
 7910SOL    HW124125   3.485   6.462   1.865 -0.4098  0.2104 -1.5282
 7910SOL    HW224126   3.528   6.369   1.753 -0.2498 -1.8930  0.2011
 7911SOL     OW24127   5.595   5.390   0.755 -0.1620  0.1296  0.0337
 7911SOL    HW124128   5.500   5.393   0.755 -0.2133  0.3835 -2.0739
 7911SOL    HW224129   5.616   5.297   0.763 -0.5071  0.1895  2.0052
 7912SOL     OW24130   1.941   2.267   4.954  0.1406  0.2756 -0.6385
 7912SOL    HW124131   1.942   2.305   4.866  0.0028  0.1922 -0.6765
 7912SOL    HW224132   2.019   2.213   4.958 -0.4689 -0.6623 -1.1268
 7913SOL     OW24133   0.936   3.948   1.703 -0.2829 -0.3815  0.0700
 7913SOL    HW124134   1.006   3.898   1.660  0.4409  1.0288 -0.4342
 7913SOL    HW224135   0.903   3.889   1.770  2.4183 -0.5739  1.3562
 7914SOL     OW24136   4.591   1.680   1.918  0.1870  0.1529 -0.1119
 7914SOL    HW124137   4.499   1.659   1.899  0.1172 -0.5162  0.9003
 7914SOL    HW224138   4.639   1.641   1.845 -0.1832 -1.1788  0.3190
 7915SOL     OW24139   5.030   2.096   0.139  0.3139  0.1546  0.0070
 7915SOL    HW124140   5.077   2.015   0.120 -0.2357 -0.0944 -0.3168
 7915SOL    HW224141   5.098   2.164   0.138  0.5040 -0.0230 -1.6082
 7916SOL     OW24142   5.777   1.146   6.549  0.3272  0.1500  0.3390
 7916SOL    HW124143   5.719   1.074   6.525 -0.7789  1.5897 -1.5943
 7916SOL    HW224144   5.837   1.108   6.614 -1.1575 -2.0646  0.5230
 7917SOL     OW24145   1.122   1.612   3.688 -0.0271 -0.1106  0.0378
 7917SOL    HW124146   1.215   1.600   3.706  0.2119  0.2998 -0.8765
 7917SOL    HW224147   1.079   1.542   3.738  0.7893 -0.4750  0.2470
 7918SOL     OW24148   4.580   1.292   4.323 -0.4239  0.2415 -0.2945
 7918SOL    HW124149   4.529   1.212   4.313  1.2485 -1.3536  2.7141
 7918SOL    HW224150   4.517   1.362   4.304 -3.4234 -1.6161  1.8917
 7919SOL     OW24151   2.152   3.980   5.760  0.2886  0.0778  0.1892
 7919SOL    HW124152   2.230   3.932   5.733  0.1929  1.0187 -2.0204
 7919SOL    HW224153   2.143   3.961   5.853  1.9745 -1.6775  0.0633
 7920SOL     OW24154   0.972   4.640   6.286  0.0421 -0.0623  0.2169
 7920SOL    HW124155   0.973   4.731   6.256  1.6377  0.3149  1.2458
 7920SOL    HW224156   0.882   4.625   6.314 -0.2546  1.2012  0.0094
 7921SOL     OW24157   0.340   1.789   0.747  0.0068 -0.3099  0.0885
 7921SOL    HW124158   0.407   1.814   0.684  2.5233 -0.2611  2.5775
 7921SOL    HW224159   0.341   1.693   0.745 -0.4931 -0.3082 -0.4772
 7922SOL     OW24160   1.069   1.755   6.630  0.1430 -0.5039 -0.4248
 7922SOL    HW124161   0.987   1.730   6.673  0.3717 -1.9204 -0.7710
 7922SOL    HW224162   1.056   1.732   6.538  0.9426 -0.8071 -0.4716
 7923SOL     OW24163   3.220   6.686   4.081 -0.7189 -0.1598  0.3024
 7923SOL    HW124164   3.224   6.605   4.132  0.3422 -0.0197  0.4560
 7923SOL    HW224165   3.281   6.672   4.009  0.8234  1.1640  1.3122
 7924SOL     OW24166   1.757   2.236   2.591 -0.0737  0.0329 -0.1911
 7924SOL    HW124167   1.738   2.233   2.498  0.1346  1.8027 -0.3238
 7924SOL    HW224168   1.686   2.186   2.632  0.5567 -1.9321 -1.3465
 7925SOL     OW24169   3.952   5.986   4.024 -0.6889  0.4629 -0.5020
 7925SOL    HW124170   3.945   6.081   4.019 -1.9757  0.3478 -1.2141
 7925SOL    HW224171   3.972   5.968   4.116  0.7058  1.4678 -0.5852
 7926SOL     OW24172   5.256   2.618   3.726  0.6003  0.1175 -0.3283
 7926SOL    HW124173   5.335   2.609   3.672  1.5641  0.8980  0.8852
 7926SOL    HW224174   5.192   2.560   3.685  1.4573  0.2708 -1.9729
 7927SOL     OW24175   3.515   2.465   0.326  0.2839  0.7790  0.1787
 7927SOL    HW124176   3.537   2.379   0.362 -2.5675  0.1109  0.5285
 7927SOL    HW224177   3.492   2.518   0.402 -1.9878  0.5303 -0.2572
 7928SOL     OW24178   6.255   5.905   6.079  0.2132 -0.1534  0.4326
 7928SOL    HW124179   6.343   5.905   6.117 -0.5096  0.0382  2.1832
 7928SOL    HW224180   6.226   5.996   6.084 -0.4715 -0.3855  0.8194
 7929SOL     OW24181   1.619   6.742   2.181 -0.0045 -0.3419  0.4935
 7929SOL    HW124182   1.586   6.735   2.091  1.4235  0.5499 -0.1391
 7929SOL    HW224183   1.701   6.693   2.180  0.5383  0.5411  1.0321
 7930SOL     OW24184   4.834   2.572   5.522 -0.2551 -0.8578 -0.2883
 7930SOL    HW124185   4.819   2.583   5.616 -0.7297 -0.4693 -0.4039
 7930SOL    HW224186   4.855   2.479   5.511 -0.7799 -1.0289  0.1247
 7931SOL     OW24187   4.247   5.583   4.766  0.3267  0.2692  0.5541
 7931SOL    HW124188   4.161   5.587   4.726 -0.3110 -1.8591  1.5559
 7931SOL    HW224189   4.308   5.607   4.696 -0.9857  0.9373 -0.4066
 7932SOL     OW24190   6.063   3.813   5.687 -0.0562 -0.1991  0.2993
 7932SOL    HW124191   6.054   3.849   5.775 -2.0208  3.2826 -1.1329
 7932SOL    HW224192   5.987   3.756   5.677  0.1866 -0.6277  0.8311
 7933SOL     OW24193   5.631   3.203   3.911  0.0235  0.6543 -0.5610
 7933SOL    HW124194   5.587   3.286   3.932  1.1476  1.5902 -1.7094
 7933SOL    HW224195   5.721   3.229   3.890  0.9837 -1.1194  1.0719
 7934SOL     OW24196   2.344   2.473   4.175  0.2091 -0.6698  0.0394
 7934SOL    HW124197   2.370   2.524   4.252  2.3548 -3.0501  1.0291
 7934SOL    HW224198   2.414   2.488   4.112 -1.6164  1.4085 -1.6870
 7935SOL     OW24199   0.735   1.932   1.504  0.7043 -0.2152  0.7635
 7935SOL    HW124200   0.725   1.982   1.585  1.3769 -1.1801  1.4484
 7935SOL    HW224201   0.724   1.841   1.530  0.0970 -0.4885 -0.3826
 7936SOL     OW24202   5.642   2.456   1.377 -0.5309 -0.0389 -0.8233
 7936SOL    HW124203   5.642   2.546   1.409 -1.8208  0.5034 -2.2028
 7936SOL    HW224204   5.638   2.465   1.282  1.6677 -1.5753 -1.1349
 7937SOL     OW24205   3.616   4.053   3.143 -0.0779 -0.4904 -0.0919
 7937SOL    HW124206   3.661   4.094   3.069 -1.2097 -1.3813 -1.3203
 7937SOL    HW224207   3.525   4.042   3.114 -0.2048 -2.2998  0.8081
 7938SOL     OW24208   5.012   4.720   3.193  0.2059  0.7125 -0.6606
 7938SOL    HW124209   4.969   4.699   3.276  0.5073  2.0233 -0.1536
 7938SOL    HW224210   5.029   4.635   3.153  1.6997 -0.0507  1.4458
 7939SOL     OW24211   6.108   6.870   0.303  0.0604 -0.3257  0.4582
 7939SOL    HW124212   6.026   6.892   0.259 -0.0854 -0.6417  0.5670
 7939SOL    HW224213   6.081   6.820   0.381  0.3956 -1.1181  0.0748
 7940SOL     OW24214   4.395   6.578   4.100  0.4894  0.4539  0.6809
 7940SOL    HW124215   4.368   6.668   4.116 -2.0318 -0.2394  0.7972
 7940SOL    HW224216   4.362   6.558   4.012  3.3778  0.3933 -0.5106
 7941SOL     OW24217   2.098   0.305   6.186 -0.1623  0.7106 -0.2933
 7941SOL    HW124218   2.191   0.293   6.169 -0.3306 -0.3914 -0.5438
 7941SOL    HW224219   2.056   0.229   6.146 -0.9619  0.0515  1.6415
 7942SOL     OW24220   6.149   5.642   4.859  0.3540  0.7118 -0.0337
 7942SOL    HW124221   6.176   5.729   4.887  0.0889  0.5636  0.7097
 7942SOL    HW224222   6.135   5.650   4.765  0.1797  1.5066  0.0563
 7943SOL     OW24223   4.875   0.902   4.890 -0.0397  0.3972 -0.0511
 7943SOL    HW124224   4.952   0.959   4.883 -0.4517  1.1418  1.1736
 7943SOL    HW224225   4.888   0.835   4.823  1.2165  1.0539 -0.4829
 7944SOL     OW24226   6.300   1.913   1.448  0.0628 -0.0747 -0.0190
 7944SOL    HW124227   6.242   1.859   1.395 -1.5919  1.3389  0.2482
 7944SOL    HW224228   6.370   1.854   1.476 -1.3809 -1.9231 -0.1323
 7945SOL     OW24229   1.687   6.378   0.702  0.1730 -0.2073  0.4202
 7945SOL    HW124230   1.676   6.393   0.796 -0.0379 -1.5539  0.6244
 7945SOL    HW224231   1.682   6.283   0.691  1.1196 -0.1456 -0.8364
 7946SOL     OW24232   1.537   4.242   2.532  0.2061 -0.2165  0.2961
 7946SOL    HW124233   1.442   4.229   2.531  0.2730 -0.7416  0.6206
 7946SOL    HW224234   1.567   4.210   2.447 -0.0466  1.0943 -0.3095
 7947SOL     OW24235   2.022   2.112   2.949  0.2416  0.3279 -0.4931
 7947SOL    HW124236   1.984   2.043   2.894 -0.8246  1.6338 -1.4952
 7947SOL    HW224237   2.042   2.183   2.887  2.1235  0.6127  0.3750
 7948SOL     OW24238   2.976   1.611   1.930  0.1312  0.8407  0.6110
 7948SOL    HW124239   3.018   1.660   1.859 -0.9417  1.8280  0.6271
 7948SOL    HW224240   3.015   1.646   2.010  0.2882  0.7557  0.5724
 7949SOL     OW24241   5.701   2.111   4.751  0.3468  0.2479  0.5995
 7949SOL    HW124242   5.661   2.196   4.732  0.5550  0.4117  0.8806
 7949SOL    HW224243   5.795   2.128   4.748  0.4060 -0.2045 -0.3686
 7950SOL     OW24244   2.798   6.057   4.267 -0.2237 -0.7381  0.9116
 7950SOL    HW124245   2.739   6.095   4.202  0.2328 -1.4052  0.0697
 7950SOL    HW224246   2.751   5.981   4.302  0.6410 -2.2091 -0.8774
 7951SOL     OW24247   3.203   0.416   0.299 -0.3219 -0.3640  0.3494
 7951SOL    HW124248   3.222   0.328   0.265 -0.9429 -0.3690  0.0108
 7951SOL    HW224249   3.155   0.459   0.229  0.2884  0.3781  0.3741
 7952SOL     OW24250   6.535   2.579   6.187 -0.2465  0.5823 -0.0843
 7952SOL    HW124251   6.595   2.522   6.236 -0.5837 -0.6785 -1.0785
 7952SOL    HW224252   6.584   2.659   6.173  0.2783  0.5414  1.2939
 7953SOL     OW24253   5.640   0.271   6.900 -0.5317 -0.0205 -0.0232
 7953SOL    HW124254   5.610   0.320   6.824 -1.1118 -0.7012 -0.2450
 7953SOL    HW224255   5.643   0.335   6.971 -2.5992  0.0938  0.0227
 7954SOL     OW24256   3.584   5.526   1.101  0.2319 -0.0836  0.0454
 7954SOL    HW124257   3.573   5.586   1.027  0.4327 -0.5501 -0.3688
 7954SOL    HW224258   3.666   5.480   1.082 -1.0749 -2.1607 -0.8480
 7955SOL     OW24259   3.333   1.463   5.408 -0.2751 -0.3547  0.4701
 7955SOL    HW124260   3.406   1.452   5.347 -0.0810 -2.1205  0.9848
 7955SOL    HW224261   3.259   1.423   5.363 -0.2233 -1.3035  1.2105
 7956SOL     OW24262   0.297   6.645   0.565  0.7631  1.4011 -0.2889
 7956SOL    HW124263   0.356   6.645   0.641  2.4301  0.3955 -1.5079
 7956SOL    HW224264   0.349   6.685   0.495  0.9858 -1.6326 -2.0362
 7957SOL     OW24265   0.090   5.009   2.544 -0.0807  0.2264 -0.1482
 7957SOL    HW124266   0.052   5.089   2.508  1.7250  0.9720 -0.5308
 7957SOL    HW224267   0.051   4.938   2.493 -0.7404  0.9586 -0.6806
 7958SOL     OW24268   1.131   3.965   0.256 -0.2849  0.2196  0.7526
 7958SOL    HW124269   1.124   3.885   0.308 -0.6982 -0.8673 -0.9025
 7958SOL    HW224270   1.051   4.014   0.277  0.5376  0.8168  2.6908
 7959SOL     OW24271   0.319   2.465   3.967 -0.1325  0.3586  0.0601
 7959SOL    HW124272   0.415   2.473   3.966 -0.1251  0.3647  0.4404
 7959SOL    HW224273   0.299   2.439   4.057 -0.5256  0.8806  0.1317
 7960SOL     OW24274   2.233   3.539   0.696 -0.0049 -0.3391  0.8141
 7960SOL    HW124275   2.264   3.625   0.666 -0.4268 -0.3547  0.3253
 7960SOL    HW224276   2.182   3.559   0.775 -1.7161  0.1026 -0.3474
 7961SOL     OW24277   5.998   4.779   3.751 -0.2898  0.0007  0.1312
 7961SOL    HW124278   5.973   4.793   3.842  0.8545  2.5735  0.1589
 7961SOL    HW224279   5.935   4.715   3.718 -0.7489 -0.9894  2.6837
 7962SOL     OW24280   1.439   2.953   0.451 -0.1222 -0.2294 -0.0930
 7962SOL    HW124281   1.516   2.947   0.508  0.3735  0.9872 -0.5985
 7962SOL    HW224282   1.406   2.863   0.444 -0.0754 -0.4490  1.9299
 7963SOL     OW24283   3.442   1.351   0.489  0.0235  0.0548  0.1736
 7963SOL    HW124284   3.386   1.306   0.426 -0.9554  1.0196  0.3309
 7963SOL    HW224285   3.504   1.401   0.435  0.8145 -1.0782 -0.0003
 7964SOL     OW24286   5.506   6.620   2.830  0.7077  0.2316 -0.2480
 7964SOL    HW124287   5.531   6.631   2.738 -1.6560 -0.4316 -1.0630
 7964SOL    HW224288   5.474   6.530   2.835 -1.6852  1.0371  0.5201
 7965SOL     OW24289   0.893   2.015   0.316  0.4963  0.3552  0.1363
 7965SOL    HW124290   0.940   2.006   0.399 -0.7909  1.9023  1.0888
 7965SOL    HW224291   0.813   1.964   0.329 -0.3039  1.6399  0.3540
 7966SOL     OW24292   4.458   4.973   6.641 -0.1794 -0.0834  0.0136
 7966SOL    HW124293   4.483   4.964   6.733  2.1637 -0.6060 -0.6018
 7966SOL    HW224294   4.541   4.967   6.593 -1.4748 -1.3497 -2.2481
 7967SOL     OW24295   3.528   3.771   5.101 -0.0937  0.0970 -0.4309
 7967SOL    HW124296   3.582   3.783   5.179  1.0547  1.7057 -1.4047
 7967SOL    HW224297   3.567   3.829   5.036 -2.7569  1.0587 -1.3155
 7968SOL     OW24298   3.414   3.777   2.767  0.2189  1.1860  0.7575
 7968SOL    HW124299   3.423   3.741   2.855  1.0510 -0.8187 -0.0937
 7968SOL    HW224300   3.322   3.760   2.743  1.0462 -2.4296 -0.3812
 7969SOL     OW24301   0.087   1.408   0.409  0.7943  0.2117 -0.0063
 7969SOL    HW124302   0.032   1.392   0.332  1.7985  1.7504 -1.0968
 7969SOL    HW224303   0.038   1.473   0.460  1.6829  1.8638 -1.1627
 7970SOL     OW24304   5.418   5.970   5.431 -0.1363  0.2687 -0.0598
 7970SOL    HW124305   5.445   5.919   5.354  1.1872  0.1702  0.4436
 7970SOL    HW224306   5.440   6.060   5.409  2.2628  0.0091  0.9782
 7971SOL     OW24307   3.605   3.926   3.403  0.1062 -0.2705 -0.3267
 7971SOL    HW124308   3.599   3.974   3.320  1.1207 -0.3986 -0.4896
 7971SOL    HW224309   3.646   3.843   3.380  0.0703 -0.4509  0.2457
 7972SOL     OW24310   0.216   1.546   1.042  0.0862 -0.5206  0.0161
 7972SOL    HW124311   0.256   1.459   1.048  0.4071 -0.5811 -2.1938
 7972SOL    HW224312   0.207   1.562   0.948 -0.9981  1.3828  0.3912
 7973SOL     OW24313   4.567   0.252   2.114  0.7205  0.2877  0.1700
 7973SOL    HW124314   4.561   0.347   2.122  1.2951  0.2590  1.1495
 7973SOL    HW224315   4.523   0.218   2.191  3.6138 -0.1168  1.8111
 7974SOL     OW24316   0.571   2.564   2.734  0.3306  0.0899  0.0679
 7974SOL    HW124317   0.479   2.590   2.724 -0.3245 -1.2983  1.8929
 7974SOL    HW224318   0.599   2.606   2.815  1.0088 -0.2375  0.0080
 7975SOL     OW24319   6.419   5.145   2.748  0.2274  0.5653 -0.2467
 7975SOL    HW124320   6.414   5.226   2.799 -1.8299  0.2634  0.1091
 7975SOL    HW224321   6.372   5.081   2.801  0.9593 -0.6129 -0.9975
 7976SOL     OW24322   2.432   4.505   3.135  0.1957  0.0625  0.1641
 7976SOL    HW124323   2.518   4.529   3.171 -0.2180  0.0075  1.2217
 7976SOL    HW224324   2.420   4.414   3.162 -0.4911  0.2834  0.6145
 7977SOL     OW24325   5.649   4.120   0.091  0.1402 -0.4351 -0.3581
 7977SOL    HW124326   5.647   4.076   0.176  0.4816  1.0054  0.4323
 7977SOL    HW224327   5.558   4.146   0.075  0.0773 -0.7013 -0.4435
 7978SOL     OW24328   0.664   4.074   5.308  0.5951  0.4174 -0.0827
 7978SOL    HW124329   0.602   4.146   5.322  1.2976  0.9719  0.2650
 7978SOL    HW224330   0.609   3.997   5.296 -0.1562  0.7145  1.1962
 7979SOL     OW24331   2.187   3.087   4.380 -0.5228 -0.0391 -0.4862
 7979SOL    HW124332   2.215   3.095   4.471  0.6771  0.5124 -0.8822
 7979SOL    HW224333   2.235   3.156   4.334 -1.9392  0.4009 -1.3592
 7980SOL     OW24334   3.998   6.365   6.753  0.2528  0.2536  0.5420
 7980SOL    HW124335   3.948   6.286   6.734 -1.7918  1.3830  0.9398
 7980SOL    HW224336   4.047   6.384   6.673  0.7458 -1.3582  0.4377
 7981SOL     OW24337   0.776   5.845   3.786 -0.1044 -0.5716  0.2770
 7981SOL    HW124338   0.868   5.868   3.800 -0.5122  2.3671 -1.0772
 7981SOL    HW224339   0.768   5.836   3.691 -1.0281 -1.9127  0.4587
 7982SOL     OW24340   4.624   1.121   6.333 -0.3851 -0.0470  0.0660
 7982SOL    HW124341   4.712   1.083   6.329 -0.0239  0.4837  1.8568
 7982SOL    HW224342   4.576   1.063   6.392 -1.4184 -0.6317 -1.3140
 7983SOL     OW24343   3.502   4.549   3.419  0.4766  0.7968 -0.0406
 7983SOL    HW124344   3.567   4.548   3.489 -2.5426  1.8384  3.0542
 7983SOL    HW224345   3.453   4.467   3.431  1.2712 -0.1155 -2.4875
 7984SOL     OW24346   4.194   4.975   5.772 -0.6335 -0.0226 -0.8196
 7984SOL    HW124347   4.267   5.024   5.733  0.0957 -1.3478 -1.1664
 7984SOL    HW224348   4.235   4.919   5.837 -0.7996 -3.2265 -3.2474
 7985SOL     OW24349   6.918   5.101   0.401 -0.0286 -0.2265 -0.4318
 7985SOL    HW124350   7.013   5.110   0.395  0.0172 -0.2746  0.1279
 7985SOL    HW224351   6.903   5.008   0.418 -0.1373 -0.1228  0.0647
 7986SOL     OW24352   4.719   5.410   6.366  0.8583  0.4291 -0.0877
 7986SOL    HW124353   4.729   5.497   6.329 -0.7074  0.4639 -0.4876
 7986SOL    HW224354   4.729   5.350   6.292  2.5489  0.2014  0.2862
 7987SOL     OW24355   1.296   4.799   6.878 -0.0390 -0.3764 -0.5597
 7987SOL    HW124356   1.353   4.798   6.955  1.0617 -0.6868 -1.3513
 7987SOL    HW224357   1.207   4.795   6.914  0.4756 -1.6972  0.6758
 7988SOL     OW24358   0.264   0.591   2.414 -0.1300 -0.0000  0.0678
 7988SOL    HW124359   0.249   0.682   2.389 -1.8989 -0.0431  0.8026
 7988SOL    HW224360   0.193   0.543   2.371  1.0199 -1.1302 -0.6523
 7989SOL     OW24361   6.471   3.896   1.508  0.4156  0.4105  0.1554
 7989SOL    HW124362   6.493   3.804   1.519 -1.5716 -0.0747  0.4812
 7989SOL    HW224363   6.510   3.921   1.424 -0.6290 -1.2653 -0.8657
 7990SOL     OW24364   2.337   5.718   0.313  0.3920  0.1648 -0.3030
 7990SOL    HW124365   2.428   5.737   0.287  0.3437  0.0535 -0.5518
 7990SOL    HW224366   2.292   5.802   0.300  0.3292  0.0647 -0.7528
 7991SOL     OW24367   0.837   4.689   0.286  0.2895 -0.1912  0.1960
 7991SOL    HW124368   0.888   4.608   0.279 -1.1606 -1.2468  1.2106
 7991SOL    HW224369   0.870   4.732   0.364  2.4901  1.3237 -1.4438
 7992SOL     OW24370   5.735   3.495   0.752 -0.0357  0.1421  0.3358
 7992SOL    HW124371   5.811   3.530   0.798  0.3449  0.9784 -0.8870
 7992SOL    HW224372   5.673   3.568   0.748  0.4318  0.4949 -1.4983
 7993SOL     OW24373   0.791   5.075   4.469  0.0207 -0.4373 -0.4009
 7993SOL    HW124374   0.786   5.165   4.503 -2.0567 -0.4590 -0.5375
 7993SOL    HW224375   0.834   5.085   4.384 -0.3615  0.4727 -0.5077
 7994SOL     OW24376   6.072   6.710   3.463  0.0117 -0.4322 -0.0821
 7994SOL    HW124377   6.151   6.657   3.477 -0.8067 -1.4633  0.7594
 7994SOL    HW224378   6.057   6.753   3.547 -0.9455 -1.1237  0.1131
 7995SOL     OW24379   2.956   0.439   5.761 -0.0346  0.1892  0.4851
 7995SOL    HW124380   3.044   0.439   5.799 -0.0263  0.5907  0.4643
 7995SOL    HW224381   2.901   0.400   5.829  0.2261 -0.4590  0.3370
 7996SOL     OW24382   3.692   3.365   0.010 -0.4879  0.7514 -0.0751
 7996SOL    HW124383   3.672   3.399   0.097 -1.1940  0.0822  0.0330
 7996SOL    HW224384   3.708   3.444  -0.043  1.7153  1.1254  1.0385
 7997SOL     OW24385   4.994   0.608   3.738  0.4452  0.1073  0.1851
 7997SOL    HW124386   4.942   0.677   3.699 -0.2978 -0.6901 -0.2720
 7997SOL    HW224387   5.032   0.647   3.817  0.1083  1.0456 -0.1147
 7998SOL     OW24388   5.731   4.651   2.864 -0.0349  0.3195 -0.7868
 7998SOL    HW124389   5.647   4.690   2.887 -0.5329 -0.8618 -0.5161
 7998SOL    HW224390   5.769   4.626   2.949  0.2675  0.2153 -0.9528
 7999SOL     OW24391   5.871   0.137   5.863 -0.1347 -0.2633 -0.5713
 7999SOL    HW124392   5.891   0.122   5.955 -0.1035 -0.9305 -0.6830
 7999SOL    HW224393   5.952   0.171   5.826  0.4248 -1.6953 -0.7309
 8000SOL     OW24394   0.694   2.253   6.073  0.5298 -0.6007 -0.3040
 8000SOL    HW124395   0.617   2.196   6.065 -1.5590  1.8516  0.8687
 8000SOL    HW224396   0.739   2.222   6.152  0.7449 -1.9729 -0.9265
 8001SOL     OW24397   1.214   2.199   6.844 -0.2604 -0.7540 -0.0184
 8001SOL    HW124398   1.211   2.132   6.776 -0.8371 -0.7926  0.0444
 8001SOL    HW224399   1.123   2.218   6.864 -0.1083  0.3402 -0.3151
 8002SOL     OW24400   4.236   3.611   5.721 -0.2020 -0.3957 -0.1824
 8002SOL    HW124401   4.307   3.596   5.659 -0.4719  1.4986 -1.0348
 8002SOL    HW224402   4.173   3.542   5.703  0.5812 -0.9908 -0.6966
 8003SOL     OW24403   4.096   1.023   0.497 -0.0849  0.4079  0.3164
 8003SOL    HW124404   4.115   0.959   0.428 -1.8695  0.9315 -0.7470
 8003SOL    HW224405   4.017   0.989   0.540  0.5749  0.4785  1.6355
 8004SOL     OW24406   3.844   2.978   2.047 -0.2616 -0.3324 -0.0769
 8004SOL    HW124407   3.872   3.020   1.966  0.1075 -0.4211 -0.0000
 8004SOL    HW224408   3.898   2.899   2.052 -1.2240 -1.0421 -0.4289
 8005SOL     OW24409   1.297   1.960   6.237 -0.0757  0.1698  0.0141
 8005SOL    HW124410   1.371   1.906   6.266  0.2438  1.4827  1.8476
 8005SOL    HW224411   1.290   2.029   6.304 -1.7562  1.1983 -1.1407
 8006SOL     OW24412   6.007   1.069   0.438 -0.2899  0.0510  0.1809
 8006SOL    HW124413   5.966   1.056   0.524 -2.6595 -1.1831 -1.0418
 8006SOL    HW224414   6.099   1.046   0.452 -1.0019 -2.0602  1.9718
 8007SOL     OW24415   6.413   0.428   5.630 -0.2753  0.1609 -0.5888
 8007SOL    HW124416   6.328   0.418   5.587 -1.2144  0.2365  1.1467
 8007SOL    HW224417   6.435   0.520   5.619 -0.3504  0.1210 -1.1244
 8008SOL     OW24418   0.783   4.829   0.801  0.5915 -0.3903  0.4260
 8008SOL    HW124419   0.870   4.830   0.842  1.1028 -1.5180 -0.5985
 8008SOL    HW224420   0.799   4.812   0.709 -0.6096  1.3600 -0.1716
 8009SOL     OW24421   0.951   4.123   4.948  0.0703  0.1074 -0.4030
 8009SOL    HW124422   0.989   4.133   4.861 -0.7469 -2.1023 -1.0802
 8009SOL    HW224423   0.864   4.087   4.933  0.6224 -2.2536  1.2994
 8010SOL     OW24424   2.482   4.770   5.438 -0.1305 -0.3523 -0.0006
 8010SOL    HW124425   2.516   4.850   5.478 -1.6070  1.7727 -2.6555
 8010SOL    HW224426   2.541   4.753   5.365  0.2345 -1.8164  0.6079
 8011SOL     OW24427   4.362   3.655   3.888 -0.0405 -0.4237 -0.1476
 8011SOL    HW124428   4.373   3.736   3.837 -0.1276 -0.6927 -0.5949
 8011SOL    HW224429   4.288   3.674   3.946 -2.0095 -1.1655 -2.2638
 8012SOL     OW24430   0.237   6.198   5.205  0.2964 -0.5793  0.1748
 8012SOL    HW124431   0.151   6.215   5.167 -0.7114 -1.3378  1.9810
 8012SOL    HW224432   0.236   6.105   5.225  1.5935 -0.6158  0.1604
 8013SOL     OW24433   5.993   2.653   1.752 -0.6492  0.3741  0.2616
 8013SOL    HW124434   5.929   2.618   1.815  0.8907  0.4916  1.9918
 8013SOL    HW224435   5.976   2.747   1.750  1.0385  0.8378  2.7820
 8014SOL     OW24436   4.555   1.697   4.628 -0.2209  0.3520 -0.2195
 8014SOL    HW124437   4.494   1.624   4.616 -1.2134  0.8281  1.6257
 8014SOL    HW224438   4.625   1.679   4.565 -1.0665 -1.4992 -0.7205
 8015SOL     OW24439   1.776   3.284   2.501  0.4006 -0.2155  0.6980
 8015SOL    HW124440   1.801   3.235   2.422  0.4356  0.7223  0.1210
 8015SOL    HW224441   1.836   3.359   2.503 -1.2457  1.1681  0.2113
 8016SOL     OW24442   3.577   6.238   6.173 -0.2057 -0.5207  0.1727
 8016SOL    HW124443   3.510   6.201   6.115  0.8431  1.3757 -2.4168
 8016SOL    HW224444   3.530   6.303   6.226 -0.8081 -0.8693  0.0797
 8017SOL     OW24445   0.746   2.324   3.375  0.2368  0.4147  0.2120
 8017SOL    HW124446   0.768   2.291   3.461  1.5904 -0.1688 -0.3389
 8017SOL    HW224447   0.718   2.247   3.326 -0.0393  0.6621 -0.0277
 8018SOL     OW24448   4.060   5.864   6.695  0.0489  0.2387 -0.1960
 8018SOL    HW124449   4.148   5.826   6.686 -0.4246 -0.6439 -1.2034
 8018SOL    HW224450   4.024   5.823   6.773 -0.1239 -0.7484 -0.7801
 8019SOL     OW24451   2.762   1.727   4.914 -0.2366 -0.2723 -0.0978
 8019SOL    HW124452   2.713   1.707   4.834  0.0784 -0.3155 -0.2814
 8019SOL    HW224453   2.848   1.686   4.901 -0.6442 -1.4967  0.8563
 8020SOL     OW24454   6.640   1.813   4.808 -0.5027  0.4679  0.8269
 8020SOL    HW124455   6.667   1.842   4.721 -1.7247 -0.7026  0.0104
 8020SOL    HW224456   6.547   1.794   4.799 -0.0940 -2.3799  1.6202
 8021SOL     OW24457   0.624   1.166   1.826  0.5322  0.2485 -0.0754
 8021SOL    HW124458   0.649   1.248   1.869  0.1859  0.5527 -0.4465
 8021SOL    HW224459   0.575   1.193   1.749  2.5790 -0.2235 -1.6361
 8022SOL     OW24460   0.189   6.806   2.804  0.3243 -0.0619  0.0539
 8022SOL    HW124461   0.198   6.897   2.776  0.3276 -0.0669  0.0401
 8022SOL    HW224462   0.095   6.797   2.824  0.7219  0.7186  2.6821
 8023SOL     OW24463   0.238   5.291   0.541 -0.5718  0.4717 -0.4733
 8023SOL    HW124464   0.146   5.305   0.518 -1.7792 -1.6494  2.3886
 8023SOL    HW224465   0.261   5.209   0.497 -0.6865  0.0543  0.2160
 8024SOL     OW24466   0.570   4.123   1.894  0.5255  0.1270  0.2559
 8024SOL    HW124467   0.518   4.069   1.834  0.2758 -1.8478  2.1624
 8024SOL    HW224468   0.624   4.060   1.942 -0.2001  1.4812  2.9960
 8025SOL     OW24469   2.762   4.641   4.090  0.2556  0.0245  0.0250
 8025SOL    HW124470   2.732   4.710   4.149  2.1532  1.1870 -0.2812
 8025SOL    HW224471   2.802   4.688   4.016 -1.7538 -1.3694 -2.1136
 8026SOL     OW24472   3.653   0.737   6.663 -0.0498  0.8247 -0.1994
 8026SOL    HW124473   3.679   0.684   6.738  1.1728  0.1125 -1.0877
 8026SOL    HW224474   3.701   0.819   6.674  0.5693  0.5057 -0.4829
 8027SOL     OW24475   1.772   5.991   6.405  0.8857  1.0014  0.4276
 8027SOL    HW124476   1.717   6.031   6.338  0.5717 -0.7977 -0.4565
 8027SOL    HW224477   1.782   5.900   6.376  2.3790  0.6826  1.8077
 8028SOL     OW24478   5.247   6.562   0.751 -0.6595 -0.0089 -0.3331
 8028SOL    HW124479   5.278   6.651   0.734  0.0782 -0.2063 -0.0506
 8028SOL    HW224480   5.238   6.557   0.846 -2.1642  0.2323 -0.4403
 8029SOL     OW24481   4.919   0.334   1.863  0.5931 -0.2427 -0.0538
 8029SOL    HW124482   4.908   0.247   1.900  0.0611 -0.5718 -0.9521
 8029SOL    HW224483   4.941   0.319   1.771 -0.5631  0.5749 -0.4843
 8030SOL     OW24484   4.089   3.702   6.116 -0.3888 -0.1700 -0.4284
 8030SOL    HW124485   4.135   3.716   6.199 -0.2148  0.7199 -0.6585
 8030SOL    HW224486   4.148   3.739   6.050 -0.6045 -0.7065 -0.9346
 8031SOL     OW24487   2.543   4.229   1.595 -0.1711 -0.7540  0.1035
 8031SOL    HW124488   2.535   4.324   1.607 -1.1687 -0.8859  0.5026
 8031SOL    HW224489   2.564   4.195   1.681 -0.2821 -0.9466  0.0557
 8032SOL     OW24490   3.831   0.701   0.433 -0.7259 -0.2753 -0.1692
 8032SOL    HW124491   3.782   0.634   0.480 -1.4071  0.9616  0.9606
 8032SOL    HW224492   3.870   0.755   0.502  0.2462  0.1801 -1.0464
 8033SOL     OW24493   2.600   0.041   5.830  0.1285 -0.2020  0.4892
 8033SOL    HW124494   2.549   0.122   5.833 -0.5592 -0.6354  2.1723
 8033SOL    HW224495   2.592   0.005   5.919  3.1259 -0.4626  0.7671
 8034SOL     OW24496   5.921   0.649   3.971  1.0917  0.0461 -0.2480
 8034SOL    HW124497   5.846   0.630   3.915  0.5235 -0.1410  0.5683
 8034SOL    HW224498   5.942   0.741   3.953  1.7434 -0.3626 -1.7270
 8035SOL     OW24499   3.459   2.027   2.967  0.1642  0.2156 -0.3866
 8035SOL    HW124500   3.405   2.036   2.889  1.4781  1.2372 -1.2230
 8035SOL    HW224501   3.527   1.964   2.942  0.3009  0.1529  0.1141
 8036SOL     OW24502   4.456   1.079   6.768 -0.0587 -0.1037  0.4277
 8036SOL    HW124503   4.365   1.102   6.748  0.4848 -0.6151 -3.5268
 8036SOL    HW224504   4.505   1.160   6.751  0.4200 -0.3820  0.4721
 8037SOL     OW24505   0.569   0.561   6.374 -0.5650 -0.0277  0.4949
 8037SOL    HW124506   0.557   0.623   6.447  0.9344 -1.8454  2.4241
 8037SOL    HW224507   0.664   0.544   6.373 -0.5196  0.0215 -2.0197
 8038SOL     OW24508   2.069   6.297   1.251 -0.0431 -0.2436  0.1277
 8038SOL    HW124509   2.141   6.235   1.240  0.3477 -0.1018  1.6335
 8038SOL    HW224510   2.101   6.359   1.316 -0.5717  1.3424 -1.0702
 8039SOL     OW24511   5.815   3.444   3.654 -0.2663 -0.4884 -0.6524
 8039SOL    HW124512   5.833   3.358   3.615  0.9250 -0.4154 -0.3006
 8039SOL    HW224513   5.892   3.496   3.632 -1.1928  0.6697 -1.3103
 8040SOL     OW24514   5.604   4.865   1.576 -0.3953 -0.5657 -0.1482
 8040SOL    HW124515   5.613   4.875   1.481 -0.0651 -0.9850 -0.1658
 8040SOL    HW224516   5.520   4.822   1.588 -0.5178 -0.3551 -0.2378
 8041SOL     OW24517   2.682   2.729   4.248 -0.4924 -0.7905 -0.6954
 8041SOL    HW124518   2.709   2.762   4.333  0.3059  0.2974 -1.3371
 8041SOL    HW224519   2.677   2.807   4.193  0.5226 -1.6250 -2.0339
 8042SOL     OW24520   3.312   0.512   4.576  0.1276 -0.0950 -0.4322
 8042SOL    HW124521   3.251   0.582   4.552  0.6849  0.5875  0.0873
 8042SOL    HW224522   3.394   0.558   4.596  0.6692 -0.9507 -0.6349
 8043SOL     OW24523   0.063   6.858   0.197 -0.6057 -0.3699 -0.2890
 8043SOL    HW124524   0.148   6.888   0.164 -0.7873  4.0506  2.4702
 8043SOL    HW224525   0.012   6.840   0.118  1.6777  0.5712 -2.1158
 8044SOL     OW24526   1.604   4.216   1.593  0.1221 -0.5519 -0.3496
 8044SOL    HW124527   1.536   4.255   1.648 -0.4055 -1.6995 -0.1598
 8044SOL    HW224528   1.644   4.290   1.549  0.0119  0.3309  0.9664
 8045SOL     OW24529   4.907   1.754   3.237  0.2462 -0.3378 -0.2058
 8045SOL    HW124530   4.917   1.681   3.176  1.2099 -2.2872  2.1147
 8045SOL    HW224531   4.995   1.768   3.272 -0.0124  1.6903 -0.2740
 8046SOL     OW24532   0.085   6.896   0.568  0.5122 -0.1220 -0.1466
 8046SOL    HW124533   0.170   6.868   0.534  0.0119  1.3731 -2.9381
 8046SOL    HW224534   0.096   6.990   0.583 -0.5424  0.0064 -0.1302
 8047SOL     OW24535   4.595   2.191   4.155 -0.5881 -0.0121 -1.1350
 8047SOL    HW124536   4.541   2.270   4.148 -0.6006 -0.0033 -0.9474
 8047SOL    HW224537   4.534   2.120   4.137 -0.2529  0.0955 -2.8400
 8048SOL     OW24538   3.990   5.176   5.693  0.1855 -0.7262  0.0028
 8048SOL    HW124539   4.040   5.096   5.675 -0.0500 -1.0171  0.6023
 8048SOL    HW224540   3.910   5.166   5.642  0.8177 -0.1495 -1.1493
 8049SOL     OW24541   0.028   5.279   6.080 -0.3928  0.2048 -0.6844
 8049SOL    HW124542   0.071   5.245   6.001 -0.3617  0.2086 -0.6692
 8049SOL    HW224543  -0.031   5.346   6.048 -0.3713  0.2145 -0.7034
 8050SOL     OW24544   1.343   4.284   1.653 -0.1143  0.1451 -0.3796
 8050SOL    HW124545   1.310   4.369   1.681 -0.1822 -0.4385  1.4349
 8050SOL    HW224546   1.281   4.221   1.688  0.7324 -0.7370 -0.4215
 8051SOL     OW24547   0.746   6.822   0.219  0.4171  0.6097  0.1303
 8051SOL    HW124548   0.820   6.792   0.271 -0.4315 -0.9905  0.4738
 8051SOL    HW224549   0.693   6.873   0.280 -0.5705 -1.2531  0.9244
 8052SOL     OW24550   1.062   3.739   1.177  0.2063  0.1386 -0.0391
 8052SOL    HW124551   1.133   3.799   1.200 -1.2060  1.8853 -0.0035
 8052SOL    HW224552   1.000   3.793   1.127 -1.4019 -1.1413  0.4677
 8053SOL     OW24553   6.795   5.617   5.024 -0.3086  0.8728 -0.1312
 8053SOL    HW124554   6.711   5.621   4.978 -1.2158 -1.3053  1.1493
 8053SOL    HW224555   6.781   5.666   5.105  0.0602  1.5438 -0.4716
 8054SOL     OW24556   3.607   4.426   2.069 -0.4093  0.4076  0.4279
 8054SOL    HW124557   3.602   4.512   2.027  0.4633 -0.3046 -1.2344
 8054SOL    HW224558   3.693   4.393   2.046 -0.7120 -0.9154  1.0726
 8055SOL     OW24559   3.413   1.508   4.141 -0.3501 -0.3257 -0.0683
 8055SOL    HW124560   3.450   1.589   4.175 -0.4078 -0.6656  0.8569
 8055SOL    HW224561   3.335   1.535   4.094 -0.7562  0.1133  0.8221
 8056SOL     OW24562   1.341   5.706   1.055 -0.0268  0.7068  0.1332
 8056SOL    HW124563   1.252   5.671   1.042  1.1539 -2.0908 -1.1044
 8056SOL    HW224564   1.394   5.630   1.077  2.2906  2.1229 -0.2306
 8057SOL     OW24565   5.076   6.545   2.216  0.6247  0.4214  0.6143
 8057SOL    HW124566   5.163   6.506   2.206 -0.3807 -2.5359  2.1269
 8057SOL    HW224567   5.048   6.566   2.127  1.8133 -1.1757 -0.1870
 8058SOL     OW24568   0.531   3.469   3.317  0.1444 -0.2290  0.7758
 8058SOL    HW124569   0.520   3.563   3.305 -0.4279 -0.2713  0.9456
 8058SOL    HW224570   0.565   3.438   3.232 -0.4953  0.0010  0.4315
 8059SOL     OW24571   2.144   6.434   2.726  0.2127  0.6220 -0.1643
 8059SOL    HW124572   2.062   6.482   2.714  0.1208  0.3365 -0.7328
 8059SOL    HW224573   2.130   6.382   2.805 -0.4401  0.0190 -0.6560
 8060SOL     OW24574   3.849   3.016   4.523 -0.6738  0.1923  0.0963
 8060SOL    HW124575   3.877   2.926   4.543  0.3243  0.5068  0.1554
 8060SOL    HW224576   3.928   3.068   4.532 -0.9439  0.8761 -1.3371
 8061SOL     OW24577   4.287   3.312   1.736 -0.4405 -0.5114  0.3384
 8061SOL    HW124578   4.228   3.312   1.661  0.1559 -1.4917 -0.1400
 8061SOL    HW224579   4.236   3.354   1.806 -1.2154 -0.1377 -0.4307
 8062SOL     OW24580   5.472   6.498   6.204  0.3847  0.2605  0.0432
 8062SOL    HW124581   5.439   6.443   6.133 -0.1956  1.6829 -0.8317
 8062SOL    HW224582   5.567   6.490   6.198  0.3263 -2.3043  1.3231
 8063SOL     OW24583   5.152   6.651   3.073  0.0802  0.4252 -0.4701
 8063SOL    HW124584   5.243   6.682   3.075  1.1642 -2.5416  0.5516
 8063SOL    HW224585   5.146   6.597   2.994 -0.8757  0.7404 -0.6287
 8064SOL     OW24586   4.391   1.455   2.804  0.3428 -0.4378 -0.4908
 8064SOL    HW124587   4.440   1.504   2.870  0.3416 -1.0275 -0.0435
 8064SOL    HW224588   4.304   1.494   2.805  0.8058  0.6992 -1.3753
 8065SOL     OW24589   1.454   4.845   0.668 -0.1053  0.0904  0.0287
 8065SOL    HW124590   1.506   4.770   0.641  1.1967  0.9728 -0.0411
 8065SOL    HW224591   1.476   4.913   0.604 -0.7291  0.7299  0.4763
 8066SOL     OW24592   4.117   5.580   1.653 -0.2114 -0.2879 -0.2463
 8066SOL    HW124593   4.144   5.583   1.745  0.2394  0.5611 -0.4001
 8066SOL    HW224594   4.071   5.496   1.644 -0.8223 -0.0861  0.9000
 8067SOL     OW24595   1.620   2.308   4.413 -0.2114  0.1876 -0.1747
 8067SOL    HW124596   1.542   2.308   4.468 -0.5343 -0.5607 -0.6075
 8067SOL    HW224597   1.687   2.266   4.467 -0.1782  0.5819  0.0963
 8068SOL     OW24598   5.178   2.442   6.408 -0.1443  0.0345  0.4884
 8068SOL    HW124599   5.228   2.501   6.351  0.3766 -0.1782  0.7224
 8068SOL    HW224600   5.172   2.488   6.491  0.6024 -0.4074  0.7922
 8069SOL     OW24601   4.262   6.324   6.538  0.6079 -0.1989  0.1514
 8069SOL    HW124602   4.345   6.277   6.529  0.9903  0.3475  0.6937
 8069SOL    HW224603   4.232   6.339   6.449  1.2240 -0.1717 -0.0504
 8070SOL     OW24604   4.984   4.082   0.279  0.3325 -0.6811 -0.2718
 8070SOL    HW124605   5.064   4.111   0.235  2.0731 -1.6554  2.0504
 8070SOL    HW224606   4.984   3.987   0.269 -0.9245 -0.6391 -0.8125
 8071SOL     OW24607   0.659   3.549   0.378 -0.2220 -0.3641  0.1718
 8071SOL    HW124608   0.723   3.486   0.346  0.0537  0.7353 -1.6271
 8071SOL    HW224609   0.575   3.516   0.347 -0.0320  0.3134 -1.1633
 8072SOL     OW24610   2.765   1.115   3.198  0.1379  0.6553 -0.0414
 8072SOL    HW124611   2.809   1.191   3.161 -0.2214  0.0655 -1.8003
 8072SOL    HW224612   2.834   1.050   3.211  0.3328  1.0165  0.7661
 8073SOL     OW24613   4.020   2.772   2.035  0.0834  0.3931 -0.0282
 8073SOL    HW124614   4.060   2.817   2.110  0.5519 -1.3008  0.7850
 8073SOL    HW224615   4.064   2.687   2.032 -2.2961 -0.9175 -0.0834
 8074SOL     OW24616   0.163   6.435   6.773 -0.1130  0.7195  0.2708
 8074SOL    HW124617   0.099   6.424   6.702 -0.8751 -0.7346  1.1333
 8074SOL    HW224618   0.243   6.394   6.739 -0.3736  0.3280  0.1214
 8075SOL     OW24619   4.442   2.030   3.386  0.0416  0.4417 -0.0408
 8075SOL    HW124620   4.509   2.012   3.451 -0.6654 -0.2743  0.5054
 8075SOL    HW224621   4.487   2.083   3.320  0.8543  0.9102  0.8528
 8076SOL     OW24622   0.638   3.014   6.198 -0.5391  0.2555 -0.9601
 8076SOL    HW124623   0.709   2.963   6.237 -1.1431 -2.3083 -2.9665
 8076SOL    HW224624   0.681   3.064   6.129 -0.1142  1.8220  0.3701
 8077SOL     OW24625   2.376   4.478   3.509 -0.2191 -0.4534 -0.0341
 8077SOL    HW124626   2.407   4.491   3.598  0.0025 -2.4922  0.2247
 8077SOL    HW224627   2.451   4.441   3.462 -0.2940  0.7052 -1.1192
 8078SOL     OW24628   3.195   4.940   2.989  0.0494  0.2844 -0.0304
 8078SOL    HW124629   3.193   5.033   3.010 -0.9732  0.2422  0.1243
 8078SOL    HW224630   3.160   4.897   3.067 -0.9073 -0.0994 -0.6433
 8079SOL     OW24631   0.799   3.919   4.188 -0.3646 -0.6002  0.2257
 8079SOL    HW124632   0.755   3.922   4.274 -0.8612 -0.2999 -0.0309
 8079SOL    HW224633   0.735   3.878   4.130 -0.0898 -0.6587 -0.0373
 8080SOL     OW24634   6.283   5.916   2.985  0.7463 -0.8603  0.3777
 8080SOL    HW124635   6.357   5.904   2.925  2.3758 -0.5032  2.2301
 8080SOL    HW224636   6.217   5.854   2.953  1.2984 -0.3110 -2.0804
 8081SOL     OW24637   5.060   6.255   0.353  0.0158 -0.6451 -0.0070
 8081SOL    HW124638   5.094   6.320   0.414  0.6467 -0.8564 -0.1264
 8081SOL    HW224639   4.973   6.287   0.329 -0.3076 -0.6485  1.1267
 8082SOL     OW24640   1.639   3.101   1.265  0.4321 -0.1895  0.2009
 8082SOL    HW124641   1.669   3.161   1.196 -0.5687 -0.0952 -0.1688
 8082SOL    HW224642   1.544   3.108   1.263  0.2220 -2.3135 -0.3589
 8083SOL     OW24643   1.769   0.730   5.405  0.1029  0.0255  0.2065
 8083SOL    HW124644   1.676   0.725   5.384  0.1011  1.0211 -0.0516
 8083SOL    HW224645   1.802   0.642   5.387 -0.6149 -0.1027 -0.5238
 8084SOL     OW24646   1.547   5.283   1.276  0.0192 -0.6178  0.5403
 8084SOL    HW124647   1.493   5.330   1.339 -0.6215 -0.5605 -0.0397
 8084SOL    HW224648   1.540   5.191   1.301  0.8131 -0.4759  1.3292
 8085SOL     OW24649   1.666   4.322   3.742 -0.0218  0.3012 -0.4640
 8085SOL    HW124650   1.691   4.386   3.676 -1.4315 -0.4152 -1.7632
 8085SOL    HW224651   1.745   4.309   3.794  0.7921  1.7554 -1.2720
 8086SOL     OW24652   4.982   4.994   1.822  0.0848 -0.0532  0.0319
 8086SOL    HW124653   4.895   5.008   1.785  1.0843 -0.3177 -2.6141
 8086SOL    HW224654   5.007   5.079   1.858 -1.5779 -0.1987  1.7192
 8087SOL     OW24655   1.866   4.113   2.942 -0.4568  0.5937  0.4798
 8087SOL    HW124656   1.785   4.162   2.958 -1.0004  0.3036 -1.2679
 8087SOL    HW224657   1.908   4.159   2.870  0.1992 -0.1549  0.3788
 8088SOL     OW24658   6.908   3.265   0.552 -0.4767  0.2763 -0.3204
 8088SOL    HW124659   6.967   3.333   0.584  0.3605 -0.7316  0.3640
 8088SOL    HW224660   6.822   3.291   0.583  0.1029  0.0776  1.5905
 8089SOL     OW24661   2.334   4.828   0.775  0.0840 -0.8783 -0.4047
 8089SOL    HW124662   2.251   4.863   0.744 -0.8069 -1.1948  1.4977
 8089SOL    HW224663   2.399   4.894   0.750 -0.9216  0.0082 -0.7412
 8090SOL     OW24664   5.064   0.704   5.262 -0.5394  0.2914  0.1140
 8090SOL    HW124665   5.029   0.791   5.243 -1.0689  0.1941  0.6156
 8090SOL    HW224666   5.018   0.677   5.342  1.0940  0.4038  1.1348
 8091SOL     OW24667   2.053   2.831   6.737  0.0809  0.4553 -0.2719
 8091SOL    HW124668   2.100   2.870   6.811 -0.1224  1.1896 -0.5185
 8091SOL    HW224669   2.079   2.884   6.661 -1.4595  1.1454 -0.3447
 8092SOL     OW24670   5.180   6.479   2.817  0.2512 -0.2188 -0.6131
 8092SOL    HW124671   5.132   6.516   2.743  0.0969 -0.0027 -0.4069
 8092SOL    HW224672   5.229   6.406   2.780  1.5931  0.9785 -1.3115
 8093SOL     OW24673   5.404   3.246   1.885 -0.0706  0.2960 -0.1122
 8093SOL    HW124674   5.365   3.330   1.863  1.4975  1.5269  1.5799
 8093SOL    HW224675   5.341   3.204   1.943  0.3027  1.5093  1.2053
 8094SOL     OW24676   2.156   1.738   2.412 -0.3201  0.8653  0.3730
 8094SOL    HW124677   2.066   1.751   2.443 -0.5638 -2.3006  1.3371
 8094SOL    HW224678   2.153   1.762   2.320 -2.0522  1.2884  0.5018
 8095SOL     OW24679   4.195   0.415   1.927 -0.1334 -0.0569  0.2165
 8095SOL    HW124680   4.154   0.491   1.886 -1.9382  0.7726  3.3031
 8095SOL    HW224681   4.281   0.447   1.955 -0.3905  0.4937  0.3934
 8096SOL     OW24682   1.799   5.078   2.119  0.3157  0.4314 -0.1669
 8096SOL    HW124683   1.710   5.057   2.089  0.7078  0.1810 -1.1755
 8096SOL    HW224684   1.801   5.174   2.120  0.1935  0.4415 -0.6241
 8097SOL     OW24685   4.733   5.922   3.925  0.8512  0.4453 -0.3709
 8097SOL    HW124686   4.720   5.836   3.964  0.3768  0.9408  0.5910
 8097SOL    HW224687   4.645   5.958   3.917  1.1306  1.3907  0.5348
 8098SOL     OW24688   3.994   6.057   5.526 -0.2279 -0.5763  0.4807
 8098SOL    HW124689   4.035   6.120   5.585 -1.4233 -0.6032  1.3670
 8098SOL    HW224690   4.011   5.972   5.567  0.4507 -0.7577 -0.1512
 8099SOL     OW24691   6.847   6.257   6.184  1.1010  0.0005  0.4134
 8099SOL    HW124692   6.943   6.254   6.191  1.0358 -2.4096  0.8253
 8099SOL    HW224693   6.831   6.330   6.124  3.2851 -0.5593 -0.9874
 8100SOL     OW24694   4.376   0.524   2.346  0.0758 -0.3529  0.0403
 8100SOL    HW124695   4.424   0.575   2.411 -0.2135  1.6399 -1.2048
 8100SOL    HW224696   4.413   0.552   2.262 -0.9496 -1.2873 -0.7565
 8101SOL     OW24697   1.959   1.566   5.567 -0.7510 -0.0348  0.3439
 8101SOL    HW124698   2.043   1.534   5.535 -0.0771  1.4242  0.5784
 8101SOL    HW224699   1.973   1.659   5.584 -2.5616  0.3837 -0.1512
 8102SOL     OW24700   2.663   3.350   3.750 -0.1869  0.5969  0.0583
 8102SOL    HW124701   2.699   3.360   3.838 -0.0650  0.8453 -0.0184
 8102SOL    HW224702   2.709   3.415   3.698  1.5720 -1.1949 -0.7590
 8103SOL     OW24703   4.002   0.227   6.273 -0.0890  0.2958 -0.3914
 8103SOL    HW124704   3.948   0.303   6.249  0.5345  0.6606 -0.6724
 8103SOL    HW224705   4.050   0.206   6.193 -0.3855 -0.5100 -0.3609
 8104SOL     OW24706   1.497   6.505   4.950 -0.2419  0.1114  0.2892
 8104SOL    HW124707   1.520   6.590   4.913 -1.0237  0.4194  0.4759
 8104SOL    HW224708   1.561   6.444   4.913 -0.1341  0.6507 -0.4408
 8105SOL     OW24709   1.281   1.055   3.183 -0.5880 -0.5723 -0.0610
 8105SOL    HW124710   1.307   1.115   3.253 -0.1826 -1.2462  0.3810
 8105SOL    HW224711   1.315   0.970   3.211 -1.5708 -1.1028 -0.4417
 8106SOL     OW24712   1.888   4.276   0.143 -0.0911  0.4448  0.5555
 8106SOL    HW124713   1.973   4.235   0.126  1.3350  3.3880 -0.0158
 8106SOL    HW224714   1.895   4.311   0.232  0.6500  3.4785 -0.5792
 8107SOL     OW24715   2.246   0.315   6.529 -0.2301 -0.2994  0.0940
 8107SOL    HW124716   2.187   0.302   6.603  0.3252 -0.2744  0.5426
 8107SOL    HW224717   2.260   0.410   6.526 -0.7204 -0.2339 -0.4166
 8108SOL     OW24718   0.663   2.026   3.920  0.1217  0.7347 -0.4754
 8108SOL    HW124719   0.719   2.012   3.997 -0.2188 -0.0962 -0.3715
 8108SOL    HW224720   0.631   2.115   3.930 -0.2194  0.5114  0.5508
 8109SOL     OW24721   2.687   2.449   3.817 -0.4224 -0.2819 -0.2964
 8109SOL    HW124722   2.725   2.413   3.737 -1.3129  0.5003 -1.0932
 8109SOL    HW224723   2.718   2.540   3.819 -2.4259  0.4840 -1.1410
 8110SOL     OW24724   2.184   3.826   4.168  0.3314  0.0248  0.0369
 8110SOL    HW124725   2.174   3.741   4.125  1.3533  0.3586 -0.8938
 8110SOL    HW224726   2.100   3.841   4.211  0.3950 -1.8336  0.9107
 8111SOL     OW24727   0.114   5.977   6.068  0.1184  0.1553 -0.0435
 8111SOL    HW124728   0.135   5.943   5.981  1.1943  0.2838  0.1616
 8111SOL    HW224729   0.182   6.041   6.087 -0.0043  0.0013  0.9725
 8112SOL     OW24730   5.254   6.833   5.581 -0.1225 -0.7718 -0.0579
 8112SOL    HW124731   5.158   6.832   5.584 -0.2635  1.4268 -1.6810
 8112SOL    HW224732   5.280   6.894   5.649  0.1408 -1.2510  0.2792
 8113SOL     OW24733   6.872   5.370   1.822 -0.1824 -0.3571 -0.1983
 8113SOL    HW124734   6.837   5.457   1.799 -1.1979 -0.1315  1.9804
 8113SOL    HW224735   6.841   5.355   1.911  1.4362 -2.2381  0.0919
 8114SOL     OW24736   0.736   2.774   5.556 -0.1258  0.3411  0.8104
 8114SOL    HW124737   0.765   2.775   5.465 -2.2592  2.5921  0.0630
 8114SOL    HW224738   0.682   2.695   5.563  1.5091 -0.8549  0.7207
 8115SOL     OW24739   1.967   1.842   1.298  0.2130  0.1949 -0.5937
 8115SOL    HW124740   2.040   1.877   1.349  1.1664  0.3002 -1.9644
 8115SOL    HW224741   1.992   1.751   1.281  0.6965  0.5842 -2.1618
 8116SOL     OW24742   1.564   3.695   2.308  0.8672 -0.1504  0.4384
 8116SOL    HW124743   1.563   3.773   2.363 -0.8787 -0.7011  1.2932
 8116SOL    HW224744   1.494   3.640   2.344  0.7017 -1.2228 -1.3826
 8117SOL     OW24745   1.857   2.901   3.216 -0.1864  0.3692  0.0922
 8117SOL    HW124746   1.799   2.976   3.208  1.6600  1.7773 -0.8708
 8117SOL    HW224747   1.927   2.930   3.275  1.5964  0.1873 -1.8033
 8118SOL     OW24748   6.727   2.261   2.445 -0.9117  0.3834  0.4344
 8118SOL    HW124749   6.686   2.316   2.512 -2.9468  0.2424 -0.6259
 8118SOL    HW224750   6.657   2.201   2.418 -0.1562  0.4549 -1.8196
 8119SOL     OW24751   6.727   5.347   4.897  0.0338 -0.1042 -0.0274
 8119SOL    HW124752   6.726   5.381   4.807 -2.4444  0.5659  0.1951
 8119SOL    HW224753   6.740   5.424   4.952 -1.1025 -0.1134  0.2784
 8120SOL     OW24754   2.206   4.331   5.308  0.2537 -0.4307  0.3799
 8120SOL    HW124755   2.216   4.324   5.213 -1.4443  1.2710 -0.0013
 8120SOL    HW224756   2.267   4.401   5.333 -0.4994  0.2931  0.2446
 8121SOL     OW24757   6.162   6.170   2.871 -0.0494 -0.1172  0.6166
 8121SOL    HW124758   6.143   6.188   2.963 -2.5189 -0.5457  0.2705
 8121SOL    HW224759   6.141   6.077   2.860 -0.2436  0.0405 -0.4633
 8122SOL     OW24760   5.790   2.582   1.150 -0.0630 -0.7767  0.1166
 8122SOL    HW124761   5.752   2.550   1.068  0.9495  1.0936 -1.1527
 8122SOL    HW224762   5.884   2.565   1.141  0.5634  2.5688 -0.7427
 8123SOL     OW24763   4.871   0.311   3.694  0.4542  0.0568  0.4241
 8123SOL    HW124764   4.856   0.265   3.777 -0.9188  1.3582  0.9560
 8123SOL    HW224765   4.795   0.288   3.640  1.4774 -1.0068 -0.6175
 8124SOL     OW24766   0.804   6.177   0.717  0.0565 -0.1025  0.0216
 8124SOL    HW124767   0.825   6.093   0.757 -3.4413 -0.3073  1.8964
 8124SOL    HW224768   0.882   6.231   0.730  0.9605 -1.8395  2.4800
 8125SOL     OW24769   6.538   3.126   1.993 -0.4643  0.1374  0.0599
 8125SOL    HW124770   6.451   3.157   1.967  0.0693  1.4902 -0.2094
 8125SOL    HW224771   6.570   3.193   2.054  0.6571  0.0253 -0.3772
 8126SOL     OW24772   1.825   6.431   5.670 -0.1370  0.3741  0.1342
 8126SOL    HW124773   1.847   6.357   5.614 -0.2036  0.3850  0.0930
 8126SOL    HW224774   1.731   6.445   5.654  0.1057  1.1703 -0.6829
 8127SOL     OW24775   0.127   4.435   3.577 -0.4364 -0.3689 -0.1620
 8127SOL    HW124776   0.186   4.507   3.554 -0.7400 -0.4205 -1.1880
 8127SOL    HW224777   0.071   4.470   3.646 -0.0123  0.0871 -0.0468
 8128SOL     OW24778   6.223   0.027   4.067 -0.0925 -0.2391 -0.4003
 8128SOL    HW124779   6.258  -0.009   3.986 -1.5221 -0.5489 -0.9041
 8128SOL    HW224780   6.238   0.121   4.061  0.2275 -0.3176 -0.8133
 8129SOL     OW24781   3.985   6.895   1.514 -1.1574  0.6275 -0.2441
 8129SOL    HW124782   3.976   6.869   1.422 -0.6058 -0.5496  0.0158
 8129SOL    HW224783   4.034   6.977   1.510  1.2231 -0.7306 -0.9369
 8130SOL     OW24784   2.268   5.604   5.686 -0.0677 -0.3357  0.0249
 8130SOL    HW124785   2.214   5.671   5.645 -1.4700 -1.0403  0.6512
 8130SOL    HW224786   2.311   5.649   5.759 -0.8262 -0.0551  0.3104
 8131SOL     OW24787   3.584   3.710   2.557  0.3529  0.2898 -0.3962
 8131SOL    HW124788   3.649   3.778   2.538  0.5891  0.5550  1.2439
 8131SOL    HW224789   3.535   3.744   2.631  0.7390 -1.4958  0.7350
 8132SOL     OW24790   6.780   3.006   3.120 -0.3850  0.3459 -0.4382
 8132SOL    HW124791   6.787   3.068   3.193  1.6324  1.4157 -1.4627
 8132SOL    HW224792   6.867   2.968   3.112 -0.7243 -0.1788 -1.9419
 8133SOL     OW24793   5.550   2.366   6.335  0.1090  0.0117  0.1860
 8133SOL    HW124794   5.493   2.396   6.405  0.3974 -0.0511  0.4480
 8133SOL    HW224795   5.628   2.421   6.341  1.4275 -1.8964  1.8028
 8134SOL     OW24796   5.055   0.643   1.570 -0.7539 -0.0147 -0.3471
 8134SOL    HW124797   5.043   0.738   1.570 -1.2440 -0.0601 -1.5562
 8134SOL    HW224798   4.986   0.610   1.627 -1.7909  0.2437 -1.4156
 8135SOL     OW24799   4.955   0.786   0.071 -0.6410 -0.1297  0.4534
 8135SOL    HW124800   4.980   0.711   0.017 -1.3027 -1.0235  1.3502
 8135SOL    HW224801   4.867   0.764   0.102 -1.1043  1.3293  0.2063
 8136SOL     OW24802   0.783   1.000   3.819 -0.2498  0.0415 -0.3255
 8136SOL    HW124803   0.802   0.964   3.905 -0.0931 -1.7243 -1.0517
 8136SOL    HW224804   0.693   1.030   3.824 -0.1479  0.2273  0.5216
 8137SOL     OW24805   6.115   4.019   5.182 -0.4406 -0.0841 -0.5606
 8137SOL    HW124806   6.172   3.942   5.186  0.1041  0.3414  0.4647
 8137SOL    HW224807   6.143   4.072   5.256 -3.4042 -0.6962  1.1492
 8138SOL     OW24808   6.286   5.116   0.761  0.0747  0.5998  0.0129
 8138SOL    HW124809   6.258   5.092   0.849  0.1792  0.9725  0.1481
 8138SOL    HW224810   6.276   5.211   0.757  1.2318  0.7387  0.0412
 8139SOL     OW24811   0.030   2.632   6.618 -0.1205 -0.1879  0.4453
 8139SOL    HW124812  -0.048   2.678   6.651  1.5178  1.1064  2.8469
 8139SOL    HW224813   0.104   2.679   6.657  1.9542 -0.8405 -2.4091
 8140SOL     OW24814   6.012   0.230   4.271  0.0373  0.1671 -0.2428
 8140SOL    HW124815   6.038   0.281   4.195  0.8804 -1.0992 -0.8368
 8140SOL    HW224816   5.918   0.215   4.259 -0.0172  0.7200 -0.5557
 8141SOL     OW24817   2.871   2.669   1.015 -0.0980  0.0927  0.2456
 8141SOL    HW124818   2.907   2.750   0.978 -1.0819 -0.5194 -2.2694
 8141SOL    HW224819   2.946   2.609   1.017  0.0248  0.1904 -0.7223
 8142SOL     OW24820   4.050   6.463   2.697 -0.1809 -0.7553 -0.4119
 8142SOL    HW124821   3.998   6.542   2.687  0.0161 -0.6340 -0.4886
 8142SOL    HW224822   4.124   6.490   2.752 -0.7100 -1.1612  0.5215
 8143SOL     OW24823   5.594   0.131   0.776 -0.5244  0.6159 -0.4995
 8143SOL    HW124824   5.502   0.105   0.770 -0.3004 -0.4084  0.3081
 8143SOL    HW224825   5.642   0.054   0.746  0.1169  0.5531  0.6472
 8144SOL     OW24826   3.458   6.224   2.091  0.3266 -0.1771  0.0164
 8144SOL    HW124827   3.465   6.297   2.030  0.4316  0.5374  0.8674
 8144SOL    HW224828   3.537   6.172   2.074 -0.0510 -0.4324 -1.0113
 8145SOL     OW24829   1.843   6.817   5.455 -0.0392  0.4333  0.1453
 8145SOL    HW124830   1.859   6.724   5.472 -3.3869 -0.1763  0.6545
 8145SOL    HW224831   1.850   6.860   5.540 -0.3783  0.2837  0.2515
 8146SOL     OW24832   4.081   6.330   4.478 -0.0406  0.6871 -0.0142
 8146SOL    HW124833   4.020   6.311   4.406 -0.2239 -0.2893  0.3778
 8146SOL    HW224834   4.166   6.305   4.443  0.0141  1.2045 -0.2528
 8147SOL     OW24835   3.203   3.737   3.352  0.1178  0.5146 -0.1718
 8147SOL    HW124836   3.109   3.731   3.367  0.1684 -0.0325 -0.0497
 8147SOL    HW224837   3.241   3.673   3.413  0.4298 -0.6423 -1.5195
 8148SOL     OW24838   5.067   2.483   5.203 -0.3105 -0.4821 -0.0478
 8148SOL    HW124839   5.140   2.475   5.265 -1.5341  0.0451  1.5331
 8148SOL    HW224840   5.089   2.422   5.133  1.2046 -1.0213  0.8358
 8149SOL     OW24841   2.945   0.070   4.985 -0.0210  0.4130 -0.1073
 8149SOL    HW124842   3.005   0.083   5.059  0.6500 -0.2485 -0.5150
 8149SOL    HW224843   2.923   0.158   4.957  0.3209  0.6724  0.4107
 8150SOL     OW24844   1.615   6.363   4.230 -0.1456  0.1296 -0.2843
 8150SOL    HW124845   1.539   6.416   4.254  0.7788  1.3500  0.0904
 8150SOL    HW224846   1.663   6.352   4.312  1.0113  0.9647 -0.8166
 8151SOL     OW24847   4.634   0.066   6.621 -0.3773 -0.0947  0.1557
 8151SOL    HW124848   4.617  -0.027   6.612  1.8522 -0.4300 -1.4587
 8151SOL    HW224849   4.568   0.108   6.565 -0.7135 -0.7616  0.0404
 8152SOL     OW24850   0.972   6.117   2.374 -0.0707  0.4544  0.7002
 8152SOL    HW124851   0.971   6.066   2.455 -0.8416  1.9201  1.6420
 8152SOL    HW224852   1.053   6.168   2.378  1.3469 -1.4868 -0.8233
 8153SOL     OW24853   5.438   5.567   3.571  0.3723 -0.0159  0.0348
 8153SOL    HW124854   5.425   5.642   3.512 -1.4108  0.7415  1.2795
 8153SOL    HW224855   5.531   5.548   3.566  0.4017  0.4803 -2.4350
 8154SOL     OW24856   3.524   1.781   2.850 -0.5657  0.2039 -0.4891
 8154SOL    HW124857   3.570   1.770   2.767 -0.7080 -1.5435 -0.3678
 8154SOL    HW224858   3.440   1.820   2.825 -0.5449 -0.1611 -1.1567
 8155SOL     OW24859   0.832   1.670   1.563 -0.4158  0.0793  0.2161
 8155SOL    HW124860   0.892   1.676   1.637  1.2167  0.0347 -1.0641
 8155SOL    HW224861   0.754   1.628   1.600  0.5457 -0.4358  1.7879
 8156SOL     OW24862   5.471   1.144   4.609 -0.3377 -0.2128 -0.0560
 8156SOL    HW124863   5.381   1.114   4.602 -0.7379  1.3067 -2.2165
 8156SOL    HW224864   5.475   1.189   4.694 -1.3053 -1.1272  0.4953
 8157SOL     OW24865   2.377   3.554   6.533  0.6703 -0.1265  0.5861
 8157SOL    HW124866   2.288   3.565   6.499  1.0404 -0.3793 -0.5191
 8157SOL    HW224867   2.365   3.543   6.627 -0.6698 -2.2934  0.2423
 8158SOL     OW24868   5.477   3.958   1.412 -0.0029 -0.2798 -0.9065
 8158SOL    HW124869   5.478   3.871   1.453  2.2738 -0.3027 -0.8887
 8158SOL    HW224870   5.557   4.000   1.443 -1.4480  2.2038 -0.2329
 8159SOL     OW24871   6.767   2.719   4.642  0.0494  0.4622  0.5215
 8159SOL    HW124872   6.822   2.668   4.581  1.8838  3.5445 -0.6160
 8159SOL    HW224873   6.796   2.691   4.729  1.5795  0.0989 -0.0646
 8160SOL     OW24874   1.926   0.538   6.269  0.0815  0.1854  0.2428
 8160SOL    HW124875   1.847   0.486   6.256  0.0553  0.8914 -3.3797
 8160SOL    HW224876   1.996   0.474   6.274 -0.4244 -0.3359  1.0330
 8161SOL     OW24877   1.795   2.121   5.402  0.7036  0.0465 -0.0960
 8161SOL    HW124878   1.701   2.109   5.411  0.6219  0.3350 -0.5149
 8161SOL    HW224879   1.826   2.145   5.489  0.4620 -0.5176  0.1464
 8162SOL     OW24880   4.702   5.664   0.712 -0.0361 -0.6406  0.0919
 8162SOL    HW124881   4.766   5.674   0.642  0.3261 -0.1424  0.4895
 8162SOL    HW224882   4.631   5.612   0.673 -0.3229  0.5001 -0.9459
 8163SOL     OW24883   4.917   6.406   3.627  0.3963  0.4139  0.6851
 8163SOL    HW124884   4.889   6.445   3.710  1.6265  3.3423 -0.1273
 8163SOL    HW224885   4.914   6.478   3.565  0.5563 -1.4315 -1.5935
 8164SOL     OW24886   3.755   1.776   0.269  0.7680  0.2983 -0.4106
 8164SOL    HW124887   3.840   1.777   0.314  1.0453 -0.6258 -0.9083
 8164SOL    HW224888   3.773   1.737   0.184 -0.2557 -0.3892 -0.3262
 8165SOL     OW24889   1.719   4.641   0.705 -0.7877  0.4093 -0.6683
 8165SOL    HW124890   1.814   4.636   0.701 -0.7016  1.6347 -0.5394
 8165SOL    HW224891   1.699   4.642   0.799 -0.9619 -0.1411 -0.6911
 8166SOL     OW24892   3.441   5.353   5.950  0.0876  0.4478 -0.0065
 8166SOL    HW124893   3.440   5.258   5.947  1.1942  0.4439 -0.3702
 8166SOL    HW224894   3.393   5.380   5.871 -1.5549  0.2122  0.8662
 8167SOL     OW24895   2.194   5.201   3.478  0.6924  0.5978 -0.0990
 8167SOL    HW124896   2.139   5.250   3.539  1.3883  0.7248  0.4381
 8167SOL    HW224897   2.162   5.111   3.484  2.0744  0.1917  2.0210
 8168SOL     OW24898   5.671   2.103   4.370 -0.3328  0.2692  0.1225
 8168SOL    HW124899   5.724   2.152   4.308  0.0815  1.3252  1.2602
 8168SOL    HW224900   5.722   2.025   4.391  0.2194  0.6666  0.2718
 8169SOL     OW24901   3.617   3.903   6.911 -0.3390  0.0522  0.0731
 8169SOL    HW124902   3.572   3.988   6.905 -0.6015 -0.0939 -0.0260
 8169SOL    HW224903   3.697   3.914   6.858  1.0955  1.1683  2.3066
 8170SOL     OW24904   2.206   0.719   5.812 -0.3259 -0.1388 -0.1664
 8170SOL    HW124905   2.206   0.668   5.731 -1.1503  0.5489 -0.6069
 8170SOL    HW224906   2.157   0.666   5.874  0.4332 -0.7363 -0.0618
 8171SOL     OW24907   5.130   6.034   4.081 -0.2402 -0.4603 -0.6586
 8171SOL    HW124908   5.144   6.026   4.175 -0.8240  0.3225 -0.5005
 8171SOL    HW224909   5.207   5.991   4.042  1.3682  1.5214  0.1672
 8172SOL     OW24910   0.652   0.989   2.337  0.2426  0.0547  0.0617
 8172SOL    HW124911   0.602   1.067   2.361  1.3186  0.4777  1.0279
 8172SOL    HW224912   0.587   0.930   2.297 -0.7449  1.1030  0.0612
 8173SOL     OW24913   4.118   2.373   0.864 -0.2894 -0.0454  0.2347
 8173SOL    HW124914   4.054   2.333   0.804  1.3807 -1.1608 -0.8904
 8173SOL    HW224915   4.203   2.341   0.833  0.7410  0.3693  2.4658
 8174SOL     OW24916   0.879   3.859   3.668 -0.0686 -0.2614  0.5050
 8174SOL    HW124917   0.821   3.892   3.736 -0.2330  0.1531  0.1626
 8174SOL    HW224918   0.832   3.872   3.586 -0.2395 -1.5657  0.3750
 8175SOL     OW24919   1.469   3.728   5.585  0.4549  0.2331 -0.2535
 8175SOL    HW124920   1.446   3.635   5.583  0.9225  0.1153 -0.1400
 8175SOL    HW224921   1.562   3.731   5.562  0.2984  0.7234 -0.8757
 8176SOL     OW24922   3.650   4.638   5.945 -0.0342  0.1009 -0.4981
 8176SOL    HW124923   3.657   4.552   5.987 -1.3679 -0.0989 -0.6412
 8176SOL    HW224924   3.556   4.650   5.931  0.0925  1.8209 -0.0325
 8177SOL     OW24925   5.938   0.007   6.159 -0.0269  0.0972 -0.1944
 8177SOL    HW124926   5.988   0.088   6.158 -1.0635  0.7566 -0.7217
 8177SOL    HW224927   6.000  -0.060   6.188  0.4848  1.3013  1.6380
 8178SOL     OW24928   5.918   5.105   3.857  0.8491 -0.5843  0.3601
 8178SOL    HW124929   5.911   5.017   3.892  0.5627 -0.2045  1.3082
 8178SOL    HW224930   5.859   5.157   3.911  0.3141  0.0248 -0.7678
 8179SOL     OW24931   2.012   6.210   0.197 -0.2949 -0.2602 -0.8800
 8179SOL    HW124932   2.064   6.283   0.228 -0.3791 -0.6658  0.2475
 8179SOL    HW224933   2.040   6.197   0.106  1.4840 -0.3881 -0.3535
 8180SOL     OW24934   4.747   3.323   5.211 -0.0364 -0.7438  0.1952
 8180SOL    HW124935   4.725   3.316   5.118  0.9873 -1.0617 -0.0457
 8180SOL    HW224936   4.664   3.311   5.257 -0.8600  1.0892 -0.7021
 8181SOL     OW24937   2.283   5.259   1.272 -0.1731 -0.6158  0.4692
 8181SOL    HW124938   2.226   5.335   1.282 -1.7285 -1.5771 -0.4766
 8181SOL    HW224939   2.236   5.188   1.316  0.1842 -1.4876 -0.5065
 8182SOL     OW24940   5.586   4.799   3.949  0.1564  0.3789 -0.1926
 8182SOL    HW124941   5.501   4.791   3.905  1.0039 -1.3249 -1.6298
 8182SOL    HW224942   5.569   4.770   4.039 -0.4378 -1.7907 -0.9416
 8183SOL     OW24943   4.776   3.609   4.989  1.1727 -1.0251 -0.0576
 8183SOL    HW124944   4.717   3.617   5.064  0.2312  0.0161 -0.8625
 8183SOL    HW224945   4.757   3.522   4.953 -1.8981  0.2127 -1.8413
 8184SOL     OW24946   3.907   6.430   3.037 -0.0283 -0.1962  0.2363
 8184SOL    HW124947   3.825   6.436   2.988  0.2426 -1.8406 -0.4686
 8184SOL    HW224948   3.963   6.498   2.998 -0.6483  0.1516 -0.0664
 8185SOL     OW24949   3.374   0.278   4.440 -0.1131  0.0102 -0.0673
 8185SOL    HW124950   3.407   0.290   4.351  1.4843  0.2942  0.5284
 8185SOL    HW224951   3.364   0.367   4.474 -0.8680 -0.0945 -0.0051
 8186SOL     OW24952   2.425   3.714   2.848  0.0948 -0.1144  0.1233
 8186SOL    HW124953   2.505   3.706   2.900 -0.8360 -2.5048  1.3301
 8186SOL    HW224954   2.446   3.673   2.765  0.7209  1.1342 -0.3522
 8187SOL     OW24955   1.450   4.057   1.005 -0.3741  0.5881  0.1249
 8187SOL    HW124956   1.419   4.121   0.941 -1.3817  0.4234  0.4219
 8187SOL    HW224957   1.381   4.055   1.072 -0.9477 -1.6523 -0.4570
 8188SOL     OW24958   3.079   1.933   6.187  0.1063 -0.7707 -0.1746
 8188SOL    HW124959   3.030   1.937   6.269  1.0789  1.9095  0.3854
 8188SOL    HW224960   3.140   1.861   6.198  0.7759  0.0447  1.8332
 8189SOL     OW24961   5.493   2.656   1.906 -0.3988  0.2547  0.5899
 8189SOL    HW124962   5.506   2.651   1.812  0.7612 -0.0279  0.7489
 8189SOL    HW224963   5.463   2.569   1.932  0.4440 -0.0283  0.6368
 8190SOL     OW24964   6.546   6.003   6.868 -0.3509  0.3998 -0.3610
 8190SOL    HW124965   6.521   6.012   6.960 -0.8332  0.9709 -0.5420
 8190SOL    HW224966   6.641   5.990   6.870 -0.4032  0.0781  0.2348
 8191SOL     OW24967   5.157   5.741   0.856 -0.3714 -0.3987  0.0074
 8191SOL    HW124968   5.247   5.709   0.854 -0.3344 -0.3364  0.5313
 8191SOL    HW224969   5.149   5.795   0.777  0.0731 -0.3426 -0.0030
 8192SOL     OW24970   0.289   5.722   3.601 -0.5470 -0.3947  0.2752
 8192SOL    HW124971   0.219   5.671   3.643 -0.6097 -0.4447  0.1143
 8192SOL    HW224972   0.296   5.801   3.654 -2.7863  1.0392 -1.3436
 8193SOL     OW24973   6.509   0.273   2.446 -0.6895  0.0641  0.4392
 8193SOL    HW124974   6.505   0.254   2.353  0.2505  0.1527  0.3690
 8193SOL    HW224975   6.490   0.190   2.490 -0.1754 -0.1946  0.1652
 8194SOL     OW24976   5.585   3.894   1.877  0.7101  0.0015  0.0482
 8194SOL    HW124977   5.631   3.958   1.931 -0.5320  1.5322 -0.6156
 8194SOL    HW224978   5.647   3.871   1.808  1.5099 -0.2519  0.8354
 8195SOL     OW24979   0.137   4.647   0.177 -0.7801 -0.3021 -0.2777
 8195SOL    HW124980   0.199   4.642   0.250 -0.5851  0.2359 -0.4055
 8195SOL    HW224981   0.191   4.659   0.099 -1.0399  0.1295 -0.3945
 8196SOL     OW24982   0.698   6.599   3.449 -0.0610  0.3808 -0.1100
 8196SOL    HW124983   0.792   6.585   3.455 -0.0629  0.1046 -0.6676
 8196SOL    HW224984   0.688   6.694   3.453  0.2999  0.4515 -0.7129
 8197SOL     OW24985   1.579   1.470   5.162  0.4265  0.5263  0.0427
 8197SOL    HW124986   1.672   1.477   5.183 -0.0943  3.4009  1.9407
 8197SOL    HW224987   1.559   1.552   5.117 -0.8132 -1.0065 -2.4124
 8198SOL     OW24988   1.407   5.782   3.971  0.0821  0.4452  0.2537
 8198SOL    HW124989   1.469   5.854   3.984  2.2260 -1.5638  2.1417
 8198SOL    HW224990   1.340   5.797   4.037  0.9009  0.3780  1.1282
 8199SOL     OW24991   3.740   1.127   4.885 -0.0430 -0.8184  0.6589
 8199SOL    HW124992   3.655   1.143   4.926 -1.2785 -4.2340 -0.2784
 8199SOL    HW224993   3.800   1.114   4.958  0.3267  3.4571  1.4056
 8200SOL     OW24994   4.667   4.815   0.068  0.1987 -0.9622 -0.5370
 8200SOL    HW124995   4.762   4.817   0.055  0.3334  2.7217 -0.1153
 8200SOL    HW224996   4.644   4.722   0.069  3.7168 -1.9600 -1.0603
 8201SOL     OW24997   2.097   4.843   0.635  0.0532 -0.3395  0.1906
 8201SOL    HW124998   2.007   4.871   0.619 -0.3674 -1.5486  0.2835
 8201SOL    HW224999   2.113   4.774   0.570  1.0935  0.1979 -0.1532
 8202SOL     OW25000   4.197   6.250   2.942  0.4531  0.2209  0.1668
 8202SOL    HW125001   4.109   6.288   2.941  0.3577  0.1269  1.9110
 8202SOL    HW225002   4.208   6.217   3.031  2.0369 -0.3104 -0.1899
 8203SOL     OW25003   4.093   4.374   2.202 -0.1284 -0.3152  0.0945
 8203SOL    HW125004   4.125   4.455   2.241 -0.3902  1.0356 -2.2900
 8203SOL    HW225005   4.164   4.344   2.145 -0.0701 -1.7522  0.8776
 8204SOL     OW25006   0.870   3.750   2.342  0.4264  0.1062  0.2669
 8204SOL    HW125007   0.792   3.742   2.287  0.4242  1.8668 -0.0326
 8204SOL    HW225008   0.942   3.719   2.286  0.0532 -0.8336  0.2932
 8205SOL     OW25009   2.358   5.747   6.234  0.0028  0.6916 -0.4531
 8205SOL    HW125010   2.383   5.699   6.155  0.2590 -0.1313  0.1198
 8205SOL    HW225011   2.281   5.797   6.207  0.6013  1.1100 -1.4625
 8206SOL     OW25012   5.014   6.005   1.244 -0.0378  0.1609 -0.4292
 8206SOL    HW125013   4.942   5.962   1.198 -0.5559  1.0400 -0.4605
 8206SOL    HW225014   5.056   6.059   1.176  0.3199  0.0556 -0.2905
 8207SOL     OW25015   5.171   1.439   5.887  0.3528 -0.1838  0.0765
 8207SOL    HW125016   5.240   1.386   5.847 -0.1147 -0.7975  0.0642
 8207SOL    HW225017   5.093   1.419   5.835  0.1743  0.5311  0.0688
 8208SOL     OW25018   1.354   4.216   3.031 -0.1217 -0.1276  0.3465
 8208SOL    HW125019   1.281   4.155   3.046 -0.4127  0.2802  0.6001
 8208SOL    HW225020   1.360   4.265   3.113 -0.5508  0.8888 -0.2198
 8209SOL     OW25021   6.045   4.846   2.006 -0.0729  0.0595  0.2463
 8209SOL    HW125022   6.081   4.898   2.078  2.2311 -0.4525 -0.4378
 8209SOL    HW225023   6.009   4.910   1.945  0.8956  0.7247  0.3566
 8210SOL     OW25024   5.990   2.832   3.471  0.5830 -0.1842  0.3419
 8210SOL    HW125025   5.990   2.926   3.453  2.1828 -0.3273 -0.5822
 8210SOL    HW225026   5.972   2.791   3.386  0.6513 -0.7329  0.5839
 8211SOL     OW25027   2.767   5.733   1.524 -0.4611  0.0426 -0.4272
 8211SOL    HW125028   2.853   5.717   1.484  0.5691  0.5933  1.4496
 8211SOL    HW225029   2.778   5.814   1.573 -2.0532  0.0868 -0.0971
 8212SOL     OW25030   1.048   6.399   2.915  0.1779 -0.1194 -0.3505
 8212SOL    HW125031   1.016   6.353   2.838 -0.5185  1.2729 -0.9173
 8212SOL    HW225032   0.980   6.386   2.982 -2.3425  3.6250 -1.8273
 8213SOL     OW25033   1.132   4.089   2.088  0.4452 -0.0643 -0.2320
 8213SOL    HW125034   1.121   4.160   2.150 -0.8183  0.9030 -1.4781
 8213SOL    HW225035   1.197   4.031   2.127 -0.8749  0.0669  2.3474
 8214SOL     OW25036   4.917   6.338   6.681 -0.0592 -0.3059 -0.3541
 8214SOL    HW125037   4.982   6.270   6.661  0.5145  0.3291 -0.6836
 8214SOL    HW225038   4.863   6.343   6.602  2.0581  2.0328 -1.7983
 8215SOL     OW25039   6.877   5.784   6.175 -0.2673  0.1381  0.4062
 8215SOL    HW125040   6.815   5.850   6.205 -1.1445  0.2724 -1.5455
 8215SOL    HW225041   6.955   5.833   6.148 -1.1563  0.5392 -1.6558
 8216SOL     OW25042   4.121   4.727   6.060 -0.3770 -0.0153  0.5143
 8216SOL    HW125043   4.168   4.713   6.142 -0.0306 -0.5779  0.2280
 8216SOL    HW225044   4.029   4.732   6.085 -0.2652 -0.0790  0.9442
 8217SOL     OW25045   4.942   4.997   2.713  0.3226 -0.1015 -0.8964
 8217SOL    HW125046   4.978   5.036   2.793  1.1416  1.0162 -1.7705
 8217SOL    HW225047   4.980   4.910   2.709 -0.2743 -0.4309  0.2806
 8218SOL     OW25048   4.856   0.035   3.884 -0.0997  0.4714  0.0205
 8218SOL    HW125049   4.822  -0.035   3.941  1.6846 -0.4369  0.0137
 8218SOL    HW225050   4.817   0.115   3.920 -2.0434 -0.4703  0.1451
 8219SOL     OW25051   5.359   4.772   0.396 -0.0282 -0.1928  0.0912
 8219SOL    HW125052   5.325   4.860   0.381  1.3683  0.5421  1.0346
 8219SOL    HW225053   5.402   4.777   0.481 -0.2614 -1.9088  0.3481
 8220SOL     OW25054   2.891   4.841   4.805  0.3350  0.5517 -0.0915
 8220SOL    HW125055   2.865   4.815   4.893 -1.5905  1.3765 -0.3708
 8220SOL    HW225056   2.928   4.761   4.767  0.4604 -0.0313  1.1764
 8221SOL     OW25057   4.315   1.788   2.803  0.2802  0.1293 -0.0683
 8221SOL    HW125058   4.259   1.710   2.792 -0.6215  0.7904 -0.3046
 8221SOL    HW225059   4.330   1.794   2.897  2.1336 -1.5229 -0.1928
 8222SOL     OW25060   3.226   6.062   3.810 -0.0586  0.2970 -0.6044
 8222SOL    HW125061   3.275   6.132   3.767  2.0925  0.3165  1.6458
 8222SOL    HW225062   3.246   5.984   3.758  3.1521  0.1492  0.5872
 8223SOL     OW25063   5.411   3.568   5.062 -0.0138  0.4166  0.0975
 8223SOL    HW125064   5.367   3.508   5.122 -1.2926  1.2187 -0.0034
 8223SOL    HW225065   5.342   3.597   5.002  0.9242  0.7527 -0.8630
 8224SOL     OW25066   0.151   6.791   5.300 -0.4770 -0.0626 -0.1045
 8224SOL    HW125067   0.070   6.816   5.255  0.6775  1.0473 -1.6799
 8224SOL    HW225068   0.193   6.874   5.322  0.1534 -0.6202  0.8823
 8225SOL     OW25069   2.952   6.871   4.440  0.0209  0.5268  0.0037
 8225SOL    HW125070   2.934   6.957   4.478 -1.0439  0.1559  0.3762
 8225SOL    HW225071   3.047   6.869   4.429  0.3992  0.6590  2.6510
 8226SOL     OW25072   1.725   4.072   2.042 -0.5498  0.2287  0.1619
 8226SOL    HW125073   1.803   4.086   1.988 -1.7060 -0.4280 -1.7843
 8226SOL    HW225074   1.655   4.117   1.995 -2.1130 -2.5145 -0.3593
 8227SOL     OW25075   2.957   6.821   2.972  0.9729  0.7607 -0.7647
 8227SOL    HW125076   3.014   6.800   2.898 -0.8349  0.3103 -2.0967
 8227SOL    HW225077   2.996   6.775   3.046  2.3845  0.5608 -1.5979
 8228SOL     OW25078   1.440   2.820   6.742 -0.1572 -0.0984  0.1746
 8228SOL    HW125079   1.396   2.736   6.731  0.1990 -0.3015  0.3074
 8228SOL    HW225080   1.477   2.817   6.830  1.6479 -0.6499 -0.5636
 8229SOL     OW25081   0.620   6.229   1.477  0.2112  0.2186 -0.1264
 8229SOL    HW125082   0.683   6.274   1.420 -0.5959  2.1029  0.3981
 8229SOL    HW225083   0.547   6.290   1.485  0.2093 -0.0351  2.7506
 8230SOL     OW25084   2.979   6.794   0.784 -0.0401 -0.2963 -0.2292
 8230SOL    HW125085   3.024   6.735   0.725 -0.4187  0.2125 -1.0438
 8230SOL    HW225086   3.046   6.825   0.844  0.3013 -0.9873 -0.2466
 8231SOL     OW25087   6.743   0.643   3.374 -0.5265  0.2303  0.7638
 8231SOL    HW125088   6.790   0.572   3.331  1.3625  1.8039  0.1330
 8231SOL    HW225089   6.808   0.687   3.429 -0.8831  3.1149 -0.9168
 8232SOL     OW25090   2.319   3.112   1.805  0.0754 -0.4022 -0.2055
 8232SOL    HW125091   2.360   3.029   1.780  0.1445 -0.9801  1.6658
 8232SOL    HW225092   2.225   3.091   1.811  0.3679 -1.3793  3.5635
 8233SOL     OW25093   2.190   6.814   2.673  0.1335 -0.4899 -0.2114
 8233SOL    HW125094   2.246   6.738   2.687 -0.2089 -0.5926  0.7003
 8233SOL    HW225095   2.156   6.803   2.585 -1.1085 -2.2271  0.4293
 8234SOL     OW25096   2.173   2.985   6.529 -0.4830  0.3172  0.5843
 8234SOL    HW125097   2.265   2.961   6.537 -0.3658 -0.2784 -1.8162
 8234SOL    HW225098   2.175   3.080   6.515 -0.3623  0.5357  1.9892
 8235SOL     OW25099   5.775   3.311   5.901 -0.2209 -0.2132  0.5590
 8235SOL    HW125100   5.797   3.243   5.964  1.9257  0.6386  0.8195
 8235SOL    HW225101   5.733   3.264   5.829  1.5533 -1.9279  0.5358
 8236SOL     OW25102   0.477   6.791   5.609 -0.7460  0.3500  0.0363
 8236SOL    HW125103   0.404   6.853   5.614 -1.4319 -0.4678  0.4022
 8236SOL    HW225104   0.439   6.707   5.636  0.5941  0.1263  1.3630
 8237SOL     OW25105   3.902   1.315   2.167  0.2566 -0.5401  0.3752
 8237SOL    HW125106   3.895   1.324   2.262 -0.2582  0.1236  0.2800
 8237SOL    HW225107   3.920   1.403   2.135  2.2263 -1.0499 -0.0156
 8238SOL     OW25108   5.046   2.463   3.569 -0.1406 -0.4649  0.4513
 8238SOL    HW125109   4.990   2.510   3.630  0.5014  0.1996  0.5441
 8238SOL    HW225110   4.989   2.439   3.496 -0.5148  0.2976  0.4907
 8239SOL     OW25111   0.109   3.960   0.142  0.0034 -0.0023  0.0615
 8239SOL    HW125112   0.139   4.049   0.126 -0.8179 -0.1002 -2.3569
 8239SOL    HW225113   0.017   3.969   0.167  0.0851 -0.1539  0.4342
 8240SOL     OW25114   6.278   1.795   2.870 -0.1608  0.0882  0.2830
 8240SOL    HW125115   6.276   1.708   2.829  0.0084  0.0097  0.4417
 8240SOL    HW225116   6.370   1.822   2.866  0.1372 -0.5689  1.9708
 8241SOL     OW25117   0.091   6.676   2.078  0.2059 -0.1891  0.7593
 8241SOL    HW125118   0.057   6.747   2.023  0.6159 -0.6128 -0.0477
 8241SOL    HW225119   0.059   6.697   2.166 -0.9983  0.1538  0.2578
 8242SOL     OW25120   2.974   4.925   3.159  0.3894  0.4155 -0.0991
 8242SOL    HW125121   2.936   4.911   3.072  0.1545  2.2401 -0.3203
 8242SOL    HW225122   2.917   4.989   3.201  1.5807  1.0291  0.6606
 8243SOL     OW25123   5.101   0.029   3.787  0.2021 -0.4355  0.5969
 8243SOL    HW125124   5.017   0.040   3.832  0.5520  3.4827  0.6904
 8243SOL    HW225125   5.150  -0.033   3.840 -2.3664 -2.3629  0.8642
 8244SOL     OW25126   5.481   1.620   4.259 -0.4035  0.5849 -0.1009
 8244SOL    HW125127   5.412   1.683   4.281 -1.5962 -0.2631 -1.3262
 8244SOL    HW225128   5.473   1.552   4.326 -2.7859 -1.0252 -1.8555
 8245SOL     OW25129   3.582   0.372   6.286  0.3430 -0.0346 -0.8870
 8245SOL    HW125130   3.553   0.281   6.275  1.0332 -0.4413  0.4491
 8245SOL    HW225131   3.664   0.377   6.238  0.9123 -0.4624  0.0244
 8246SOL     OW25132   4.823   5.047   1.297 -0.2852 -0.9180  0.1311
 8246SOL    HW125133   4.789   5.101   1.225  0.6026 -0.9297 -0.3224
 8246SOL    HW225134   4.881   5.106   1.345 -0.5915 -1.0137  0.6210
 8247SOL     OW25135   4.518   3.217   6.239  0.0875  0.4393 -0.2795
 8247SOL    HW125136   4.465   3.296   6.227  0.4090  0.7361  0.1896
 8247SOL    HW225137   4.462   3.157   6.287 -0.5365 -0.0323 -1.5835
 8248SOL     OW25138   6.075   4.014   5.497  0.0331 -0.0424 -0.8687
 8248SOL    HW125139   6.040   3.982   5.414  0.2648  0.6490 -1.2381
 8248SOL    HW225140   6.049   3.948   5.561  0.4108 -0.9202 -1.6014
 8249SOL     OW25141   2.937   2.053   2.658  0.0227 -0.1805 -0.0531
 8249SOL    HW125142   2.885   1.990   2.609 -0.9541  0.3567  0.2698
 8249SOL    HW225143   2.978   2.107   2.590 -0.4637 -0.1215 -0.3086
 8250SOL     OW25144   2.919   6.514   1.793 -0.0103 -0.1782  0.4122
 8250SOL    HW125145   2.884   6.498   1.881  0.8338 -1.3693  0.5552
 8250SOL    HW225146   2.967   6.434   1.772  3.3233  1.6184  0.5694
 8251SOL     OW25147   3.897   5.915   2.204  0.3308 -0.0548  0.3406
 8251SOL    HW125148   3.875   5.877   2.119 -0.4065  2.6482 -0.7694
 8251SOL    HW225149   3.992   5.906   2.211  0.2219 -1.6913 -0.0296
 8252SOL     OW25150   2.946   0.825   4.284 -0.0929  0.4389  0.7962
 8252SOL    HW125151   2.907   0.912   4.295  1.8485  1.3111  1.0882
 8252SOL    HW225152   2.926   0.801   4.194 -0.4479  1.2819  0.6409
 8253SOL     OW25153   2.955   0.163   1.310 -0.2705 -0.1904 -0.7242
 8253SOL    HW125154   2.965   0.206   1.395  1.4351  0.0859 -1.0271
 8253SOL    HW225155   2.965   0.070   1.330  3.6696  0.0105 -0.9439
 8254SOL     OW25156   3.300   5.512   2.223  0.1769 -0.2940  0.7767
 8254SOL    HW125157   3.389   5.482   2.206  0.0896 -0.5258  0.7346
 8254SOL    HW225158   3.301   5.604   2.197 -0.0696 -0.7336 -0.9017
 8255SOL     OW25159   3.604   2.460   3.510  0.4591 -0.4940 -0.4507
 8255SOL    HW125160   3.694   2.472   3.481  0.2293  1.0162 -0.6196
 8255SOL    HW225161   3.597   2.367   3.529  1.7739 -0.7982 -1.3518
 8256SOL     OW25162   5.512   6.636   3.621  0.3493 -0.1342  0.8532
 8256SOL    HW125163   5.552   6.549   3.614  0.4668 -0.0602  0.5887
 8256SOL    HW225164   5.499   6.664   3.530 -0.6581 -0.3140  0.9350
 8257SOL     OW25165   0.347   2.388   6.268  0.4112 -0.1426 -0.0516
 8257SOL    HW125166   0.299   2.448   6.326 -1.5891 -1.3286 -0.3786
 8257SOL    HW225167   0.387   2.325   6.328  0.3018 -0.0099  0.1643
 8258SOL     OW25168   5.298   6.167   5.215  0.0125  0.4260  0.1137
 8258SOL    HW125169   5.384   6.194   5.247  0.0403  0.3804  0.0785
 8258SOL    HW225170   5.236   6.216   5.268  0.0745  1.3202 -0.6151
 8259SOL     OW25171   4.852   1.707   1.135  0.2691  0.2218  0.0241
 8259SOL    HW125172   4.835   1.727   1.043 -1.2133  0.8900  0.4209
 8259SOL    HW225173   4.931   1.757   1.156 -1.2238  2.7290 -0.0357
 8260SOL     OW25174   0.723   3.582   0.646  0.2741 -0.0089 -0.2718
 8260SOL    HW125175   0.698   3.584   0.553 -0.1206  0.8786 -0.1623
 8260SOL    HW225176   0.813   3.550   0.646 -0.2368 -1.5033 -0.8270
 8261SOL     OW25177   2.700   4.539   0.638  0.0658  0.4927 -0.2417
 8261SOL    HW125178   2.655   4.455   0.639 -1.4455  1.2494  0.8530
 8261SOL    HW225179   2.676   4.578   0.553 -2.3253  1.3029  0.7114
 8262SOL     OW25180   3.497   5.344   0.531 -0.6053  0.2543 -0.0661
 8262SOL    HW125181   3.455   5.389   0.604 -0.1960  1.9117 -0.7967
 8262SOL    HW225182   3.502   5.253   0.558 -1.4487  0.6421  1.5050
 8263SOL     OW25183   6.035   6.410   4.728  0.4282  0.1123  1.0812
 8263SOL    HW125184   6.020   6.498   4.693 -2.6512 -0.6806  0.1105
 8263SOL    HW225185   6.035   6.353   4.651 -2.2244 -1.1907  1.9408
 8264SOL     OW25186   5.469   3.487   0.381 -0.4274 -0.2350  0.1767
 8264SOL    HW125187   5.508   3.423   0.321  0.2370 -1.4899  1.8627
 8264SOL    HW225188   5.509   3.571   0.356  0.5941 -0.9036 -0.4801
 8265SOL     OW25189   5.214   2.522   0.445  0.4643  0.1015 -0.1440
 8265SOL    HW125190   5.153   2.551   0.513 -0.1392 -1.5076  0.0425
 8265SOL    HW225191   5.158   2.501   0.370  0.7164 -1.7572  0.1580
 8266SOL     OW25192   0.356   5.448   3.511 -0.8777  0.5338  0.4616
 8266SOL    HW125193   0.334   5.540   3.527 -0.5621  0.9127 -1.0597
 8266SOL    HW225194   0.347   5.437   3.416 -0.6898 -0.9523  0.5841
 8267SOL     OW25195   1.867   5.842   1.416  0.3119  0.5055 -0.4893
 8267SOL    HW125196   1.907   5.833   1.329 -1.7685 -0.4223 -1.4263
 8267SOL    HW225197   1.787   5.893   1.401  0.9052  2.0593  1.2582
 8268SOL     OW25198   0.526   4.387   3.558 -0.1062 -0.6114 -0.6448
 8268SOL    HW125199   0.460   4.457   3.563  0.3699 -0.1443 -0.7721
 8268SOL    HW225200   0.587   4.417   3.491  1.1217 -0.2649  0.5886
 8269SOL     OW25201   6.078   3.494   6.116 -0.2329  0.0847 -0.1515
 8269SOL    HW125202   5.983   3.498   6.103 -0.2238 -1.3765 -0.8548
 8269SOL    HW225203   6.095   3.403   6.139  0.9645  0.4288  0.4094
 8270SOL     OW25204   1.254   6.155   0.649 -0.1204  0.3173  0.3081
 8270SOL    HW125205   1.183   6.211   0.682 -0.3309 -1.1317  2.5457
 8270SOL    HW225206   1.222   6.066   0.664  0.7030 -0.4428 -2.0479
 8271SOL     OW25207   5.302   2.799   2.402  0.0479 -0.3838  0.5985
 8271SOL    HW125208   5.242   2.866   2.368 -0.8640 -0.6380  1.6616
 8271SOL    HW225209   5.308   2.817   2.496  1.7149 -0.3227  0.5119
 8272SOL     OW25210   6.696   5.329   1.507 -0.0181  0.1311  0.3550
 8272SOL    HW125211   6.746   5.281   1.573 -1.8321 -0.6684  1.2334
 8272SOL    HW225212   6.626   5.269   1.482 -0.6149  1.2339 -0.7279
 8273SOL     OW25213   2.478   5.429   3.809 -0.1514  0.5836  0.0195
 8273SOL    HW125214   2.439   5.410   3.895  1.5563  0.2784  0.7765
 8273SOL    HW225215   2.499   5.523   3.813 -0.0147  0.5552 -0.0385
 8274SOL     OW25216   4.302   6.290   0.986  0.5108 -0.0713 -0.1860
 8274SOL    HW125217   4.265   6.245   0.910  0.3285  1.3694 -0.9654
 8274SOL    HW225218   4.396   6.287   0.973  0.6296 -1.7725  0.6864
 8275SOL     OW25219   5.163   2.495   4.532 -0.4209  0.1292 -0.8725
 8275SOL    HW125220   5.209   2.516   4.613  0.1811 -0.1551 -1.1349
 8275SOL    HW225221   5.178   2.570   4.475  0.7085 -0.4488 -1.3721
 8276SOL     OW25222   4.147   1.946   6.170  0.5312  0.5401  0.8628
 8276SOL    HW125223   4.213   2.011   6.147  0.7090  0.0378 -0.0779
 8276SOL    HW225224   4.092   1.990   6.235  1.0368  1.3975  0.7202
 8277SOL     OW25225   4.139   4.867   5.232 -0.6417  0.0067 -0.2978
 8277SOL    HW125226   4.169   4.851   5.322 -0.7523  0.0733 -0.2487
 8277SOL    HW225227   4.122   4.780   5.197  3.1699 -0.4240 -1.6041
 8278SOL     OW25228   3.507   4.797   5.455 -0.7307  0.3171 -0.4813
 8278SOL    HW125229   3.525   4.842   5.538 -0.9146  1.9158 -1.2690
 8278SOL    HW225230   3.415   4.772   5.461 -0.1781 -1.6394  0.6995
 8279SOL     OW25231   6.752   3.634   5.589  0.2965  0.2899 -0.0938
 8279SOL    HW125232   6.747   3.554   5.642 -1.1870  0.4331  0.0451
 8279SOL    HW225233   6.763   3.704   5.653  1.3456  0.2308 -0.1982
 8280SOL     OW25234   6.931   3.849   5.478 -0.1568 -0.0416 -0.1985
 8280SOL    HW125235   6.847   3.839   5.523 -0.2894  0.1190 -0.4100
 8280SOL    HW225236   6.925   3.791   5.402 -0.9883  1.6904 -1.5144
 8281SOL     OW25237   0.398   6.777   5.121 -0.1998  0.2420 -0.0167
 8281SOL    HW125238   0.409   6.682   5.127 -1.7411  0.0905  0.9265
 8281SOL    HW225239   0.320   6.795   5.173  1.2844  2.2925  1.6299
 8282SOL     OW25240   0.138   1.439   6.403 -0.1469  0.3422  0.2349
 8282SOL    HW125241   0.045   1.457   6.389 -0.0082  0.0449 -1.2681
 8282SOL    HW225242   0.140   1.374   6.473 -1.0951  0.1924  0.1343
 8283SOL     OW25243   4.351   0.991   1.548 -0.4699  0.1191 -0.9816
 8283SOL    HW125244   4.398   0.960   1.626  0.9623  0.6805 -1.5924
 8283SOL    HW225245   4.385   0.937   1.477  0.2754  1.4412 -1.6567
 8284SOL     OW25246   0.464   6.247   3.121 -0.3039 -0.0673 -0.0154
 8284SOL    HW125247   0.508   6.282   3.199 -0.0577  1.6107 -0.8706
 8284SOL    HW225248   0.508   6.290   3.048 -0.6229 -1.5105 -1.1040
 8285SOL     OW25249   3.140   4.889   2.721  0.6750 -0.5295 -0.0314
 8285SOL    HW125250   3.231   4.896   2.694  0.7497 -1.1523  0.0550
 8285SOL    HW225251   3.141   4.912   2.814  1.0908 -2.6706  0.5348
 8286SOL     OW25252   4.812   2.226   1.848  0.5761  0.2984 -0.1407
 8286SOL    HW125253   4.819   2.243   1.942  2.0095 -2.8493  0.4538
 8286SOL    HW225254   4.718   2.223   1.832  0.2885  2.3127  0.8361
 8287SOL     OW25255   5.999   4.606   4.573 -0.2880 -0.4492 -0.0319
 8287SOL    HW125256   6.039   4.519   4.581 -0.9085 -0.7178  0.2229
 8287SOL    HW225257   5.938   4.611   4.647 -0.3336  0.1636 -0.1080
 8288SOL     OW25258   0.023   6.584   6.400  0.2810 -0.7694  0.8589
 8288SOL    HW125259   0.095   6.586   6.463  1.5182  1.5280 -0.4672
 8288SOL    HW225260  -0.029   6.662   6.421  0.0893 -0.5802 -0.2515
 8289SOL     OW25261   1.319   6.493   4.294  0.5253  0.0332 -0.3347
 8289SOL    HW125262   1.323   6.588   4.304 -1.0933  0.2194 -1.1071
 8289SOL    HW225263   1.246   6.478   4.233  1.6380 -1.6300 -1.3487
 8290SOL     OW25264   0.332   3.872   6.278 -0.4163 -0.5722  0.5943
 8290SOL    HW125265   0.325   3.847   6.370  1.2540  1.0625  1.2147
 8290SOL    HW225266   0.417   3.914   6.271 -1.1152  0.6270 -1.4075
 8291SOL     OW25267   2.425   0.882   1.356  0.3998 -0.3410  0.2323
 8291SOL    HW125268   2.507   0.920   1.324 -0.4504  1.3894 -0.0051
 8291SOL    HW225269   2.429   0.791   1.328  2.4382 -0.4207  0.6281
 8292SOL     OW25270   3.222   2.849   4.483  0.3305 -0.0776  0.2821
 8292SOL    HW125271   3.303   2.883   4.522 -0.1618 -0.8673  2.1183
 8292SOL    HW225272   3.178   2.926   4.448  0.9340  0.6742  1.1169
 8293SOL     OW25273   6.923   6.659   3.918  0.0397 -0.2733 -0.6532
 8293SOL    HW125274   6.955   6.579   3.876  1.3635  0.3160 -0.8099
 8293SOL    HW225275   7.001   6.699   3.956 -1.1528 -1.0742  2.9478
 8294SOL     OW25276   0.178   1.858   6.717  1.0408 -0.0687  0.5833
 8294SOL    HW125277   0.201   1.771   6.687 -0.9302  0.2277 -2.0940
 8294SOL    HW225278   0.124   1.843   6.795 -2.0685 -1.5686 -1.6599
 8295SOL     OW25279   2.999   5.636   4.322  0.3316  0.0948 -0.0494
 8295SOL    HW125280   3.069   5.687   4.364  0.4018 -1.0963  1.3533
 8295SOL    HW225281   2.994   5.671   4.233  0.1252  2.7996  0.9172
 8296SOL     OW25282   3.628   4.691   1.984  0.2141 -0.1643  0.1415
 8296SOL    HW125283   3.693   4.728   1.925 -0.6394  2.2256  0.6150
 8296SOL    HW225284   3.546   4.692   1.934 -0.5342  1.9629  1.2833
 8297SOL     OW25285   3.988   1.547   5.199 -1.0808 -0.0155 -0.3788
 8297SOL    HW125286   4.026   1.535   5.285 -0.8344  0.3229 -0.4422
 8297SOL    HW225287   3.895   1.524   5.210 -1.0886  0.2090  0.0150
 8298SOL     OW25288   5.770   1.767   3.937 -0.1559 -0.1424  0.0625
 8298SOL    HW125289   5.792   1.837   3.999 -2.0708  0.7459 -0.1968
 8298SOL    HW225290   5.754   1.691   3.993  2.2475 -0.5561  0.3308
 8299SOL     OW25291   2.221   5.304   0.277 -0.0720 -0.3247  0.9870
 8299SOL    HW125292   2.251   5.216   0.251 -1.4946 -0.6044  0.2058
 8299SOL    HW225293   2.154   5.288   0.344  0.3840  0.2274  1.5924
 8300SOL     OW25294   2.677   6.345   1.252  0.1340  0.1049 -0.1483
 8300SOL    HW125295   2.757   6.347   1.199  0.5776  1.3118  0.5213
 8300SOL    HW225296   2.706   6.315   1.338  0.0161  1.1947  0.2926
 8301SOL     OW25297   1.111   5.096   1.424 -0.2792  0.2377 -0.0584
 8301SOL    HW125298   1.099   5.191   1.427  0.2483  0.3133 -0.0911
 8301SOL    HW225299   1.027   5.062   1.396 -0.2839  0.7534 -0.7192
 8302SOL     OW25300   3.247   3.373   6.264  0.0757  0.4060 -0.2758
 8302SOL    HW125301   3.216   3.308   6.200 -1.1803  1.0630 -0.3714
 8302SOL    HW225302   3.312   3.326   6.316 -1.7938 -1.3965  0.5729
 8303SOL     OW25303   6.027   0.504   6.835 -0.4525 -0.3905  0.1146
 8303SOL    HW125304   5.984   0.457   6.907 -2.2236 -0.7714 -1.1209
 8303SOL    HW225305   6.068   0.435   6.782 -1.6332 -0.4331 -0.7877
 8304SOL     OW25306   0.965   3.626   2.600  0.1280  0.2773 -0.5579
 8304SOL    HW125307   0.939   3.665   2.516  0.3888 -0.8804 -1.2000
 8304SOL    HW225308   0.945   3.694   2.665 -0.3928  1.0719 -1.5126
 8305SOL     OW25309   0.436   5.555   6.730  0.0436  0.1531 -0.0926
 8305SOL    HW125310   0.421   5.649   6.738 -1.9057 -0.1413  0.1407
 8305SOL    HW225311   0.353   5.515   6.756  0.6237 -1.6099 -0.8119
 8306SOL     OW25312   6.832   1.502   6.258  0.0743  0.6393  0.2954
 8306SOL    HW125313   6.817   1.410   6.236 -1.4795  1.1044 -0.8007
 8306SOL    HW225314   6.884   1.535   6.184 -0.5150  0.9323  0.0015
 8307SOL     OW25315   6.735   2.017   3.474  0.3156 -0.3840 -0.3382
 8307SOL    HW125316   6.798   2.088   3.490  1.8163 -0.1819 -5.4173
 8307SOL    HW225317   6.649   2.061   3.475  0.9710  0.9549 -0.6334
 8308SOL     OW25318   4.192   0.925   0.775 -0.1490  0.6481 -0.0307
 8308SOL    HW125319   4.154   0.884   0.853  0.4637  0.6035  0.2512
 8308SOL    HW225320   4.217   1.013   0.804  1.0732  0.2660  0.1363
 8309SOL     OW25321   0.720   0.463   3.125  0.2683 -0.3019 -0.2909
 8309SOL    HW125322   0.664   0.418   3.061  0.3614  0.2489 -0.7787
 8309SOL    HW225323   0.754   0.538   3.076  1.2612 -0.5102  0.0660
 8310SOL     OW25324   5.761   2.937   1.535 -0.4288 -0.2274  0.7368
 8310SOL    HW125325   5.780   2.872   1.467  1.5401  0.4775  0.5409
 8310SOL    HW225326   5.671   2.964   1.519 -0.2283 -0.5787 -1.1576
 8311SOL     OW25327   0.020   2.580   1.486 -0.2219  0.1537 -0.1477
 8311SOL    HW125328  -0.007   2.636   1.414  1.0063  1.2878  0.2356
 8311SOL    HW225329  -0.054   2.584   1.548 -1.0767 -0.4531 -1.0931
 8312SOL     OW25330   6.668   3.114   1.249  0.6075  0.7123  0.1186
 8312SOL    HW125331   6.603   3.107   1.318  0.0001 -0.9378 -0.5837
 8312SOL    HW225332   6.732   3.177   1.283 -1.1853  2.1985  0.9257
 8313SOL     OW25333   3.630   2.139   3.543 -0.7056 -0.2266 -0.0743
 8313SOL    HW125334   3.545   2.133   3.587 -1.6403  0.4881 -1.6831
 8313SOL    HW225335   3.613   2.107   3.455  0.8941 -0.7438 -0.2253
 8314SOL     OW25336   1.854   2.987   4.625  0.3875 -0.0111  0.5752
 8314SOL    HW125337   1.913   2.935   4.679  0.5261 -1.3215 -0.7823
 8314SOL    HW225338   1.878   3.078   4.644  2.4466 -0.4958  0.4985
 8315SOL     OW25339   5.676   2.162   3.997 -0.4131 -0.3506 -0.3930
 8315SOL    HW125340   5.707   2.083   4.041 -0.5826 -0.6275 -0.7775
 8315SOL    HW225341   5.581   2.154   3.997 -0.3872 -0.8707 -1.7676
 8316SOL     OW25342   2.647   5.362   3.368 -0.1928 -0.7205 -0.0041
 8316SOL    HW125343   2.584   5.419   3.413 -0.0222 -1.8894  1.7760
 8316SOL    HW225344   2.600   5.279   3.356  0.2218 -0.8495 -0.8391
 8317SOL     OW25345   2.859   4.202   5.420 -0.0837 -0.0282 -0.3874
 8317SOL    HW125346   2.799   4.248   5.363 -1.1979 -0.8758  0.0740
 8317SOL    HW225347   2.842   4.109   5.404 -0.2943 -0.2819  1.1788
 8318SOL     OW25348   4.340   0.403   3.999  0.1735  0.3061  0.4257
 8318SOL    HW125349   4.326   0.424   3.907 -0.2809  1.4308  0.7293
 8318SOL    HW225350   4.385   0.480   4.034  0.5241 -0.1968  1.0989
 8319SOL     OW25351   0.958   2.709   0.943  0.3424  0.7339  0.1414
 8319SOL    HW125352   0.999   2.623   0.946  0.8600  0.9271 -0.8460
 8319SOL    HW225353   0.977   2.741   0.855 -1.6317  1.0003 -0.2255
 8320SOL     OW25354   4.967   2.984   5.264 -1.0332 -0.5951 -0.1562
 8320SOL    HW125355   4.979   2.905   5.212 -0.6881 -0.7469  0.1505
 8320SOL    HW225356   4.933   2.952   5.348  0.1894 -0.5397  0.3836
 8321SOL     OW25357   1.312   3.224   5.470 -0.1756 -0.0896 -0.1268
 8321SOL    HW125358   1.255   3.161   5.514 -0.5337 -0.1322 -0.6526
 8321SOL    HW225359   1.254   3.296   5.445  0.1193  0.1657 -0.0809
 8322SOL     OW25360   4.250   5.311   3.023 -0.2614  0.3546  0.7716
 8322SOL    HW125361   4.175   5.370   3.029 -0.6258  0.1271 -0.9408
 8322SOL    HW225362   4.238   5.248   3.094 -2.5115 -0.5598 -0.3405
 8323SOL     OW25363   1.193   1.273   1.960  0.5259 -0.2280  0.3679
 8323SOL    HW125364   1.155   1.348   1.916  0.6680 -0.6432 -0.4826
 8323SOL    HW225365   1.153   1.273   2.047 -2.4498 -1.3688 -0.8733
 8324SOL     OW25366   0.934   0.136   0.068  0.1281  0.1135  0.1435
 8324SOL    HW125367   1.015   0.094   0.098 -0.7510 -2.1429 -0.4724
 8324SOL    HW225368   0.922   0.105  -0.022 -0.6611  1.6084 -0.3007
 8325SOL     OW25369   4.786   2.444   5.206  0.2576 -0.0174  0.4448
 8325SOL    HW125370   4.776   2.380   5.276  0.2156 -0.1504  0.3186
 8325SOL    HW225371   4.880   2.461   5.202  0.2825 -0.1597  0.4032
 8326SOL     OW25372   3.420   3.869   0.460  0.6566 -0.2374 -0.0553
 8326SOL    HW125373   3.416   3.964   0.470  2.3284 -0.1018 -0.4196
 8326SOL    HW225374   3.423   3.854   0.366 -1.2215 -0.7783 -0.0789
 8327SOL     OW25375   0.511   1.170   6.347  0.5063  0.0963  0.3015
 8327SOL    HW125376   0.581   1.126   6.397  0.1284 -1.2861 -0.3349
 8327SOL    HW225377   0.547   1.178   6.258 -0.3492 -1.1761 -0.1784
 8328SOL     OW25378   3.060   2.847   2.171  0.3935  0.1880  0.4763
 8328SOL    HW125379   3.018   2.843   2.256 -2.3445 -1.8673 -0.7952
 8328SOL    HW225380   3.131   2.783   2.176  0.6782  0.5636  1.3884
 8329SOL     OW25381   3.338   3.903   0.734  0.1999  0.2458  0.4253
 8329SOL    HW125382   3.381   3.988   0.727 -1.0829  0.7684 -2.1560
 8329SOL    HW225383   3.343   3.866   0.646 -2.9077 -0.4687  0.4297
 8330SOL     OW25384   4.394   2.773   6.601 -0.3507 -0.6910 -0.1289
 8330SOL    HW125385   4.381   2.808   6.689 -0.5907 -4.1200  1.3662
 8330SOL    HW225386   4.379   2.848   6.543 -0.8686  1.5602  2.6579
 8331SOL     OW25387   2.055   6.755   3.642  0.0831  0.2946  0.1895
 8331SOL    HW125388   2.070   6.827   3.580 -1.8768  1.4039  0.9124
 8331SOL    HW225389   2.081   6.676   3.594 -0.8077  1.1634 -1.8298
 8332SOL     OW25390   4.339   0.617   1.526  0.3997  0.5618 -0.2611
 8332SOL    HW125391   4.353   0.523   1.540  0.4649  0.6748  0.4780
 8332SOL    HW225392   4.321   0.652   1.614 -2.6980  0.7567 -0.8567
 8333SOL     OW25393   6.137   4.653   0.775 -0.1931  0.3900  0.3046
 8333SOL    HW125394   6.144   4.726   0.714  0.9586  0.0549 -0.0022
 8333SOL    HW225395   6.052   4.664   0.817  0.0938  2.0872  0.5103
 8334SOL     OW25396   6.421   0.759   4.372 -0.3673  0.1463  0.5904
 8334SOL    HW125397   6.360   0.707   4.423 -0.6804  0.5152  0.5980
 8334SOL    HW225398   6.375   0.776   4.289 -0.7971  1.4784  1.0708
 8335SOL     OW25399   0.245   0.133   4.269 -0.1729 -0.2640  0.6423
 8335SOL    HW125400   0.247   0.195   4.342  1.2138 -0.0237  0.4235
 8335SOL    HW225401   0.231   0.048   4.311  2.5157 -0.4098  1.4647
 8336SOL     OW25402   6.743   0.788   5.928  0.2154 -0.3350  0.6590
 8336SOL    HW125403   6.684   0.843   5.876  0.1515 -1.8096 -0.9204
 8336SOL    HW225404   6.823   0.783   5.876  0.8411 -0.3431  1.6090
 8337SOL     OW25405   3.092   3.142   5.508  0.0069  0.3352  0.9246
 8337SOL    HW125406   3.082   3.164   5.600 -0.4220 -1.1030  1.2338
 8337SOL    HW225407   3.178   3.102   5.501 -1.1647 -2.4255  1.3211
 8338SOL     OW25408   6.317   0.326   6.589 -0.2200 -0.0606 -0.5111
 8338SOL    HW125409   6.312   0.334   6.494 -1.1874  0.6801 -0.4178
 8338SOL    HW225410   6.411   0.327   6.608 -0.0155 -0.2167 -1.4530
 8339SOL     OW25411   1.175   5.023   4.867 -0.0326 -0.4216  0.1054
 8339SOL    HW125412   1.156   4.930   4.861 -0.2555 -0.3434 -0.5786
 8339SOL    HW225413   1.093   5.066   4.841  0.8891 -0.0782 -2.6310
 8340SOL     OW25414   1.865   0.485   4.936  0.2619 -0.4134  0.0004
 8340SOL    HW125415   1.874   0.411   4.996 -1.3936 -1.8218 -1.3783
 8340SOL    HW225416   1.798   0.457   4.874 -0.6277  2.3861 -0.4275
 8341SOL     OW25417   1.025   3.526   6.004 -0.7043  0.4992  0.5751
 8341SOL    HW125418   1.045   3.490   6.090  1.2039 -0.9503 -0.3945
 8341SOL    HW225419   0.937   3.563   6.013  0.1957  2.1810  3.6334
 8342SOL     OW25420   3.970   1.337   0.862 -0.5120  0.4488 -0.0570
 8342SOL    HW125421   3.981   1.242   0.868  1.1618  0.4795 -1.6341
 8342SOL    HW225422   4.059   1.371   0.868 -0.9088  1.7766 -1.1865
 8343SOL     OW25423   5.456   3.794   5.639  0.1805  0.0196  0.4518
 8343SOL    HW125424   5.399   3.807   5.563  1.1821  0.2465 -0.2805
 8343SOL    HW225425   5.508   3.874   5.644  0.3706 -0.1450  1.1675
 8344SOL     OW25426   6.468   6.515   1.429  0.3627  0.3399  0.3102
 8344SOL    HW125427   6.532   6.444   1.430  0.5901  0.5415  0.2052
 8344SOL    HW225428   6.473   6.550   1.340 -0.1172  0.1529  0.2116
 8345SOL     OW25429   3.376   2.182   0.909 -0.1144  0.4434  0.4995
 8345SOL    HW125430   3.347   2.272   0.896 -0.7413  0.0953 -0.6104
 8345SOL    HW225431   3.336   2.133   0.837 -1.5675 -1.1263  2.2810
 8346SOL     OW25432   1.029   0.744   0.734  0.1942 -0.6058 -0.2885
 8346SOL    HW125433   1.010   0.777   0.646  1.0954  0.3901 -0.1389
 8346SOL    HW225434   1.018   0.649   0.728 -1.0892 -0.4286 -1.1144
 8347SOL     OW25435   0.479   6.645   4.345  0.1177 -0.1082  0.3421
 8347SOL    HW125436   0.519   6.705   4.282  0.8326 -1.9180 -1.0264
 8347SOL    HW225437   0.550   6.622   4.405  0.0031 -0.0767  0.4922
 8348SOL     OW25438   4.841   4.028   1.824 -0.4755 -0.2231  0.2751
 8348SOL    HW125439   4.776   4.056   1.889  0.0856  2.0406 -0.0750
 8348SOL    HW225440   4.790   3.978   1.760 -1.9554  1.6267 -0.0794
 8349SOL     OW25441   0.261   0.705   1.328 -0.3705 -0.2645 -0.2155
 8349SOL    HW125442   0.331   0.705   1.262  0.4297 -2.1914  0.5411
 8349SOL    HW225443   0.282   0.778   1.386  0.5857 -0.3407 -0.4463
 8350SOL     OW25444   5.719   2.813   5.743 -0.3140 -0.8571 -0.2622
 8350SOL    HW125445   5.698   2.849   5.657 -0.4363  2.1311  0.8924
 8350SOL    HW225446   5.644   2.759   5.765 -0.7001 -0.9287 -1.6260
 8351SOL     OW25447   1.937   2.341   4.673  0.0414  0.0850  0.0661
 8351SOL    HW125448   1.946   2.252   4.639  2.4068 -0.1798  1.1612
 8351SOL    HW225449   2.021   2.383   4.653 -0.2192  1.3630  1.4594
 8352SOL     OW25450   5.845   3.119   4.922 -0.1658 -0.4252  0.0848
 8352SOL    HW125451   5.930   3.094   4.959  0.2946  0.3425 -0.4278
 8352SOL    HW225452   5.782   3.062   4.966  0.1407  1.3902  3.1487
 8353SOL     OW25453   2.042   6.330   0.970 -0.0934  0.7818  0.1672
 8353SOL    HW125454   1.967   6.274   0.952 -0.9030  1.1753  2.0573
 8353SOL    HW225455   2.044   6.338   1.066  4.0604 -1.5646  0.5392
 8354SOL     OW25456   5.626   5.514   1.730 -0.0305 -0.5199 -0.1187
 8354SOL    HW125457   5.594   5.425   1.714 -0.2022 -0.5715  0.4744
 8354SOL    HW225458   5.613   5.527   1.824 -2.3671  1.0596 -0.5908
 8355SOL     OW25459   3.361   4.311   3.415  0.1342  0.9703 -0.5195
 8355SOL    HW125460   3.313   4.331   3.335  1.0634 -0.9630 -1.6084
 8355SOL    HW225461   3.312   4.240   3.455 -0.8559  2.5223  1.1953
 8356SOL     OW25462   0.030   3.871   4.359  0.2982 -0.5779  0.0070
 8356SOL    HW125463   0.031   3.967   4.357  0.4247 -0.5703  0.3866
 8356SOL    HW225464  -0.041   3.847   4.299 -0.0207 -0.2393  0.2407
 8357SOL     OW25465   6.864   2.597   2.904 -0.5086 -0.3084  1.0434
 8357SOL    HW125466   6.903   2.680   2.878 -1.0945 -0.3439  0.0016
 8357SOL    HW225467   6.771   2.615   2.914 -0.6375 -0.8166  0.8351
 8358SOL     OW25468   1.265   2.927   6.250 -0.1952  0.2708  0.3231
 8358SOL    HW125469   1.331   2.935   6.319 -0.4275  0.2063  0.5538
 8358SOL    HW225470   1.189   2.975   6.284 -0.5816 -0.4298  0.4505
 8359SOL     OW25471   6.654   1.557   4.548 -0.2913  0.8776  0.0510
 8359SOL    HW125472   6.643   1.578   4.456  0.2457 -0.6241 -0.3866
 8359SOL    HW225473   6.600   1.622   4.594 -4.5425 -1.1525 -1.5085
 8360SOL     OW25474   0.004   1.842   2.736 -0.5304  0.1049  0.3873
 8360SOL    HW125475  -0.089   1.864   2.725 -0.6865 -0.4625  0.5340
 8360SOL    HW225476   0.048   1.926   2.744 -1.1962  0.3626  1.5489
 8361SOL     OW25477   4.101   6.290   4.758 -0.0359 -0.2291 -0.1057
 8361SOL    HW125478   4.112   6.304   4.664 -0.2264  0.3099 -0.0512
 8361SOL    HW225479   4.160   6.354   4.798 -0.3682 -0.0787  0.1435
 8362SOL     OW25480   6.800   3.427   5.423  0.3337 -0.2874  0.0357
 8362SOL    HW125481   6.895   3.423   5.435  0.3163 -0.6860  0.0485
 8362SOL    HW225482   6.775   3.514   5.453  0.5586 -0.5459  0.9955
 8363SOL     OW25483   3.259   4.957   0.668 -0.1923 -0.2696  0.1438
 8363SOL    HW125484   3.245   5.001   0.752 -1.3854  1.0462 -0.6879
 8363SOL    HW225485   3.173   4.923   0.645 -0.0366 -0.0070 -0.8544
 8364SOL     OW25486   0.786   0.670   3.383  0.2925  0.0645  0.5809
 8364SOL    HW125487   0.847   0.605   3.347 -0.0031 -0.0327  0.2493
 8364SOL    HW225488   0.706   0.659   3.331  0.2622  0.7419  0.4775
 8365SOL     OW25489   5.215   0.814   6.584  0.2050  0.5268 -0.3850
 8365SOL    HW125490   5.169   0.770   6.656 -0.1670  1.4581 -0.0480
 8365SOL    HW225491   5.308   0.800   6.603  0.1074 -1.1104 -0.9117
 8366SOL     OW25492   5.002   3.820   0.133  0.7522 -0.8060  0.0333
 8366SOL    HW125493   5.014   3.863   0.049 -0.6805  0.8593  0.6271
 8366SOL    HW225494   4.993   3.727   0.111  0.7379 -0.4393 -1.6176
 8367SOL     OW25495   3.868   3.548   2.507  0.9205 -0.2109 -0.0053
 8367SOL    HW125496   3.811   3.548   2.584  0.8890  1.2247 -0.0031
 8367SOL    HW225497   3.955   3.531   2.542  1.1994  2.1872  0.6343
 8368SOL     OW25498   5.498   0.658   0.699 -0.2890  0.1305 -0.4194
 8368SOL    HW125499   5.452   0.624   0.623  0.2894 -0.3235 -0.5773
 8368SOL    HW225500   5.590   0.662   0.672 -0.1902  0.7735 -0.0277
 8369SOL     OW25501   1.050   4.526   2.337  0.7910 -0.6358  0.1483
 8369SOL    HW125502   1.037   4.532   2.431 -0.2220 -1.0920  0.0518
 8369SOL    HW225503   0.964   4.548   2.300  1.5742  1.1495 -0.7322
 8370SOL     OW25504   6.318   2.958   0.742  0.0407  0.3963 -0.0949
 8370SOL    HW125505   6.276   2.902   0.677  1.6600 -0.8576 -0.1119
 8370SOL    HW225506   6.340   2.898   0.814  0.3302  1.3286  0.6063
 8371SOL     OW25507   0.646   6.869   6.261 -0.2637 -0.7021  0.2070
 8371SOL    HW125508   0.692   6.950   6.243 -1.8745  0.2706  0.3146
 8371SOL    HW225509   0.658   6.815   6.183 -0.4113  0.2397 -0.4707
 8372SOL     OW25510   4.260   3.844   3.284 -0.3342 -0.3769  0.2893
 8372SOL    HW125511   4.330   3.789   3.320  0.3406 -0.1933 -0.7080
 8372SOL    HW225512   4.219   3.789   3.217  0.5582  0.4218 -0.9517
 8373SOL     OW25513   2.373   3.715   2.077  0.0683 -0.0895  0.0067
 8373SOL    HW125514   2.399   3.667   2.156 -0.4846 -0.9895 -0.3459
 8373SOL    HW225515   2.439   3.693   2.012 -0.2197 -0.4301 -0.1736
 8374SOL     OW25516   4.875   0.808   1.965 -0.4608  0.2788 -0.0286
 8374SOL    HW125517   4.928   0.841   2.038  0.3540  0.5391 -0.7146
 8374SOL    HW225518   4.864   0.884   1.907 -0.0057 -0.2140 -0.7878
 8375SOL     OW25519   3.252   2.256   4.851 -0.2502 -0.1549  0.0674
 8375SOL    HW125520   3.169   2.302   4.858 -0.0822  0.0664  0.6439
 8375SOL    HW225521   3.231   2.175   4.804 -0.8876 -0.3559  0.6873
 8376SOL     OW25522   1.423   6.405   2.517 -0.6170 -0.1363  0.0629
 8376SOL    HW125523   1.384   6.411   2.604 -1.4153  0.9264 -0.3551
 8376SOL    HW225524   1.417   6.494   2.481 -0.1374 -0.5195 -1.0143
 8377SOL     OW25525   0.256   2.046   5.385  0.3221 -0.4408  0.4130
 8377SOL    HW125526   0.297   1.960   5.384 -0.5732 -0.8815 -0.5186
 8377SOL    HW225527   0.164   2.030   5.362  0.0290  0.7125  0.6589
 8378SOL     OW25528   5.595   1.441   0.370 -0.1398 -0.4354  0.1613
 8378SOL    HW125529   5.605   1.360   0.321  0.3370  0.3656 -1.1305
 8378SOL    HW225530   5.684   1.477   0.375 -0.6863  1.4761 -1.9967
 8379SOL     OW25531   1.353   0.071   0.442  0.2108 -1.0013 -0.6497
 8379SOL    HW125532   1.417   0.040   0.378  0.3586 -0.3102 -0.8512
 8379SOL    HW225533   1.364   0.013   0.518 -0.0899 -1.9351 -1.3069
 8380SOL     OW25534   5.830   4.350   1.974 -0.4508  0.3542  0.2229
 8380SOL    HW125535   5.833   4.344   1.878 -1.8364 -0.0428  0.1858
 8380SOL    HW225536   5.900   4.291   2.003 -1.5463 -1.4044 -0.5236
 8381SOL     OW25537   0.493   2.742   2.096  0.3788  0.1445 -0.6164
 8381SOL    HW125538   0.425   2.802   2.126  0.7100  0.0500  0.3658
 8381SOL    HW225539   0.447   2.676   2.046 -0.1644  0.4554 -0.5319
 8382SOL     OW25540   4.044   2.604   3.965  0.1292  0.3206  0.2521
 8382SOL    HW125541   4.009   2.693   3.974 -1.0834 -0.2040  1.0024
 8382SOL    HW225542   4.017   2.576   3.878  1.0996  0.9181 -0.2532
 8383SOL     OW25543   5.101   6.725   5.213  0.5929 -1.2701 -0.0022
 8383SOL    HW125544   5.143   6.649   5.174  1.2104 -1.4431  0.9641
 8383SOL    HW225545   5.068   6.694   5.298 -0.6949 -0.8967 -0.3378
 8384SOL     OW25546   0.622   2.236   4.296 -0.3545 -0.7509  0.2029
 8384SOL    HW125547   0.592   2.269   4.381 -1.0371  1.8077 -0.9569
 8384SOL    HW225548   0.707   2.195   4.315 -0.5862 -0.4383  2.1273
 8385SOL     OW25549   5.082   5.188   6.480  0.2137  0.4334  0.1352
 8385SOL    HW125550   5.087   5.185   6.384 -0.2018  0.0272  0.1239
 8385SOL    HW225551   5.169   5.219   6.507 -0.3755  2.8034 -0.4501
 8386SOL     OW25552   6.556   5.568   3.103  0.1278  0.2702 -0.3243
 8386SOL    HW125553   6.541   5.650   3.057  1.1661 -0.2128 -1.5939
 8386SOL    HW225554   6.647   5.546   3.083 -0.0596 -1.0699  0.1725
 8387SOL     OW25555   6.185   3.411   2.079  0.4214  0.3236 -0.4823
 8387SOL    HW125556   6.268   3.436   2.119  0.6958 -0.8951 -0.2535
 8387SOL    HW225557   6.154   3.338   2.133 -1.1831  1.2401 -0.0918
 8388SOL     OW25558   0.794   0.921   4.091 -0.0735  0.4604 -0.0705
 8388SOL    HW125559   0.744   0.967   4.159  1.1004 -0.1591  1.2710
 8388SOL    HW225560   0.879   0.904   4.132  0.1436 -1.2942 -1.1695
 8389SOL     OW25561   3.239   0.276   2.195  0.5391 -0.5111  0.5551
 8389SOL    HW125562   3.307   0.335   2.228  0.9971 -1.0908  0.6678
 8389SOL    HW225563   3.217   0.221   2.270 -2.3645  1.7029  1.4908
 8390SOL     OW25564   3.468   1.018   4.691  0.7734 -0.5195 -0.1712
 8390SOL    HW125565   3.425   1.064   4.619  1.6074  1.7716  0.7200
 8390SOL    HW225566   3.526   1.083   4.731  0.0030 -1.5143  2.8759
 8391SOL     OW25567   6.400   0.885   3.816  0.9358 -0.3284  0.4098
 8391SOL    HW125568   6.391   0.939   3.895 -1.0147 -1.8085  1.3035
 8391SOL    HW225569   6.454   0.811   3.845 -1.6851 -2.1119  1.2155
 8392SOL     OW25570   2.689   3.474   0.529 -0.5985 -0.0157  0.2748
 8392SOL    HW125571   2.667   3.540   0.595 -2.1506  0.9104 -1.0875
 8392SOL    HW225572   2.755   3.516   0.473 -1.0947  0.1516 -0.1955
 8393SOL     OW25573   4.037   1.174   3.984  0.4939  0.0232 -0.1018
 8393SOL    HW125574   3.955   1.126   3.986  1.4917 -1.7410  1.6934
 8393SOL    HW225575   4.088   1.132   3.914  0.7779 -0.5011  0.4183
 8394SOL     OW25576   5.635   2.887   6.948 -0.0437 -0.4656  0.1097
 8394SOL    HW125577   5.712   2.896   6.892  0.7935 -0.8279  1.1751
 8394SOL    HW225578   5.642   2.799   6.985 -1.3219 -0.7555 -0.2615
 8395SOL     OW25579   3.249   1.705   3.325 -0.1461 -0.0851 -0.6818
 8395SOL    HW125580   3.334   1.711   3.369  0.4139 -1.3100 -1.5218
 8395SOL    HW225581   3.254   1.769   3.255 -0.7026  1.2435  0.4420
 8396SOL     OW25582   1.572   4.754   3.360  0.0929 -0.0416 -0.1913
 8396SOL    HW125583   1.481   4.766   3.333 -0.5630 -1.1317  1.3948
 8396SOL    HW225584   1.566   4.705   3.442  2.0408  1.4090  0.9050
 8397SOL     OW25585   4.830   1.029   2.462 -0.6627 -0.0320  0.1130
 8397SOL    HW125586   4.820   0.934   2.465 -1.1199  0.0202  0.3299
 8397SOL    HW225587   4.747   1.061   2.425 -0.0937  0.2144 -0.9972
 8398SOL     OW25588   3.240   1.253   3.408 -0.0908  0.0881 -0.9244
 8398SOL    HW125589   3.268   1.326   3.353 -1.8792  1.4932 -0.0436
 8398SOL    HW225590   3.195   1.293   3.481  1.7631 -1.7483  1.4058
 8399SOL     OW25591   5.689   1.968   1.073  0.4904 -1.0905  0.3143
 8399SOL    HW125592   5.653   2.054   1.097  0.1249 -1.4004  0.9109
 8399SOL    HW225593   5.653   1.951   0.986  1.8133  0.0451 -0.4819
 8400SOL     OW25594   0.086   5.427   6.308  0.3981 -0.5295 -0.2256
 8400SOL    HW125595   0.002   5.465   6.332  0.8545  0.9774 -0.8656
 8400SOL    HW225596   0.064   5.344   6.266 -0.6479 -0.9697  1.1278
 8401SOL     OW25597   4.078   0.842   2.781 -0.0880  0.3235 -0.0878
 8401SOL    HW125598   4.090   0.898   2.858 -0.6754 -0.4459  0.5872
 8401SOL    HW225599   4.165   0.807   2.764  0.3401  1.6113 -0.6731
 8402SOL     OW25600   0.391   0.656   0.794  0.5545 -0.1056  0.3928
 8402SOL    HW125601   0.297   0.644   0.778  0.3567 -0.2334  1.5584
 8402SOL    HW225602   0.407   0.749   0.779 -0.6755  0.9122  4.3079
 8403SOL     OW25603   2.457   4.975   2.503  0.1797  0.2008 -0.3854
 8403SOL    HW125604   2.376   5.026   2.513 -1.1970 -1.9277  0.0150
 8403SOL    HW225605   2.452   4.942   2.413 -0.2076 -1.1729  0.1157
 8404SOL     OW25606   6.338   4.551   5.993 -0.0737 -0.3682  0.3232
 8404SOL    HW125607   6.279   4.476   5.999  0.1244 -0.6201 -0.6296
 8404SOL    HW225608   6.374   4.546   5.904  1.5384 -0.3315  0.9381
 8405SOL     OW25609   5.470   2.685   2.818  0.1282 -0.0025  0.2859
 8405SOL    HW125610   5.418   2.621   2.769 -2.1961  1.1352  1.1301
 8405SOL    HW225611   5.546   2.635   2.849 -0.2902 -1.6796 -1.2295
 8406SOL     OW25612   2.787   4.312   3.144 -0.4446  0.6274  0.0552
 8406SOL    HW125613   2.771   4.396   3.186 -1.3822 -0.0586  1.1141
 8406SOL    HW225614   2.766   4.247   3.211 -2.9187 -0.5331 -1.6895
 8407SOL     OW25615   4.251   1.652   4.976 -0.2283 -0.2751  0.2351
 8407SOL    HW125616   4.324   1.674   4.918  1.5896  0.5733  2.6883
 8407SOL    HW225617   4.231   1.734   5.021 -1.4172 -0.9713  1.0314
 8408SOL     OW25618   6.857   2.936   4.353 -0.0036 -0.4762 -0.3331
 8408SOL    HW125619   6.905   2.988   4.417 -0.2703 -2.6206  1.7786
 8408SOL    HW225620   6.891   2.965   4.269  0.2938  2.5688  0.7025
 8409SOL     OW25621   5.556   1.026   2.612 -0.6425  0.4618 -0.6806
 8409SOL    HW125622   5.472   1.003   2.573 -0.5622 -1.3060  0.1069
 8409SOL    HW225623   5.535   1.085   2.684 -0.8923  2.7305 -2.4849
 8410SOL     OW25624   3.227   4.225   2.867 -0.3131 -0.3763  0.2815
 8410SOL    HW125625   3.233   4.310   2.911 -0.2852 -0.0481 -0.3508
 8410SOL    HW225626   3.217   4.246   2.775 -0.8830 -1.0569  0.1825
 8411SOL     OW25627   6.666   0.945   6.359  0.1752 -0.3934  0.0184
 8411SOL    HW125628   6.708   0.882   6.301  2.9232 -0.1629  1.5701
 8411SOL    HW225629   6.739   0.994   6.398 -1.6799  1.3766  1.4920
 8412SOL     OW25630   0.707   5.339   4.526 -0.0728 -0.4355  0.2536
 8412SOL    HW125631   0.625   5.322   4.573  1.1425 -1.9322  1.9572
 8412SOL    HW225632   0.743   5.416   4.570 -0.2793 -0.1350 -0.1020
 8413SOL     OW25633   1.994   2.476   5.496  0.4734  0.0261 -0.2656
 8413SOL    HW125634   2.007   2.570   5.483 -0.2842  0.4042  1.5076
 8413SOL    HW225635   2.077   2.444   5.531  0.7348  0.0242 -0.8815
 8414SOL     OW25636   1.631   2.749   2.304  0.0586 -0.0483  0.2601
 8414SOL    HW125637   1.596   2.834   2.277 -1.3454 -0.9206 -0.8269
 8414SOL    HW225638   1.611   2.743   2.397 -1.6026  0.0532 -0.0476
 8415SOL     OW25639   3.426   1.610   0.834 -0.0351 -0.0958  0.7076
 8415SOL    HW125640   3.515   1.579   0.818  0.4416  1.3834  0.3067
 8415SOL    HW225641   3.385   1.610   0.748  0.1699  0.9204  0.5974
 8416SOL     OW25642   6.268   4.705   2.784 -0.1157  0.2969  0.1069
 8416SOL    HW125643   6.322   4.656   2.722  0.5164 -1.5309  1.9875
 8416SOL    HW225644   6.195   4.738   2.731  0.5924 -0.8163 -1.6571
 8417SOL     OW25645   4.737   0.154   0.515 -0.4899 -0.1060 -0.5627
 8417SOL    HW125646   4.665   0.181   0.573 -0.7061  0.2768 -1.0106
 8417SOL    HW225647   4.744   0.224   0.451 -0.0565 -0.3944 -0.8313
 8418SOL     OW25648   3.314   0.672   0.406  0.2288 -0.2443  0.2641
 8418SOL    HW125649   3.340   0.632   0.489  2.2239 -2.2130 -1.2009
 8418SOL    HW225650   3.268   0.603   0.359 -1.4083  1.0216 -0.0878
 8419SOL     OW25651   1.110   3.693   1.724  0.2094  0.0617  0.1591
 8419SOL    HW125652   1.170   3.624   1.752  1.7358  1.4781  0.5700
 8419SOL    HW225653   1.112   3.690   1.629 -0.0576 -0.7022  0.1695
 8420SOL     OW25654   6.885   6.820   2.587 -0.1681 -0.0294  0.0482
 8420SOL    HW125655   6.950   6.886   2.611  0.6175 -1.0972  0.9659
 8420SOL    HW225656   6.827   6.815   2.663 -0.9892  0.4844 -0.5256
 8421SOL     OW25657   3.082   1.443   5.967  0.3931 -0.7694  0.2959
 8421SOL    HW125658   3.022   1.495   6.021 -0.5363 -1.4542 -0.0591
 8421SOL    HW225659   3.153   1.503   5.944 -1.0198  0.5494 -0.7087
 8422SOL     OW25660   1.994   2.875   1.661 -0.2186  0.0932  0.0853
 8422SOL    HW125661   1.994   2.894   1.754  1.3928 -0.0730  0.1398
 8422SOL    HW225662   2.029   2.786   1.654  0.4514  0.4112 -0.7264
 8423SOL     OW25663   3.119   3.576   6.409  0.6373  0.0355 -0.0859
 8423SOL    HW125664   3.039   3.578   6.357  1.0849  0.0262 -0.7882
 8423SOL    HW225665   3.169   3.502   6.374  0.0774 -1.2686  1.7005
 8424SOL     OW25666   0.525   6.465   6.210 -0.1434  0.2266 -0.5541
 8424SOL    HW125667   0.498   6.545   6.164 -0.7371  0.1261 -0.3914
 8424SOL    HW225668   0.529   6.398   6.141  2.9062  0.9250 -1.1876
 8425SOL     OW25669   6.097   4.250   5.034 -0.3714  0.1033 -0.1267
 8425SOL    HW125670   6.045   4.170   5.046  1.0989 -1.0423 -1.1454
 8425SOL    HW225671   6.184   4.228   5.066 -0.3930  1.9438  1.3911
 8426SOL     OW25672   0.125   6.126   6.759 -0.4250  0.2393 -0.1454
 8426SOL    HW125673   0.197   6.125   6.696 -0.6745 -0.3711 -0.4349
 8426SOL    HW225674   0.142   6.201   6.815 -0.6288  1.3075 -1.4672
 8427SOL     OW25675   5.829   6.810   2.957 -0.2179  0.3277 -0.0195
 8427SOL    HW125676   5.924   6.814   2.969 -0.0141 -0.0585 -1.3513
 8427SOL    HW225677   5.800   6.739   3.015  0.1741  1.0109  1.0405
 8428SOL     OW25678   4.214   6.260   0.173 -0.5437 -0.6960  0.0102
 8428SOL    HW125679   4.153   6.230   0.106  0.7617 -0.5773 -1.2957
 8428SOL    HW225680   4.177   6.343   0.203 -0.1500  0.2969 -2.0740
 8429SOL     OW25681   2.696   1.689   5.376  0.4512 -0.1508  0.0146
 8429SOL    HW125682   2.745   1.764   5.341  0.9605 -0.5171 -0.0674
 8429SOL    HW225683   2.739   1.612   5.339  0.3376 -0.5104  0.6080
 8430SOL     OW25684   6.571   5.215   1.875  0.1508 -0.5583 -0.6468
 8430SOL    HW125685   6.612   5.153   1.936 -0.3802 -1.2917 -1.0254
 8430SOL    HW225686   6.560   5.165   1.794  0.3662  0.2521 -1.1746
 8431SOL     OW25687   6.476   4.793   6.768 -0.1225 -0.0573  0.3075
 8431SOL    HW125688   6.566   4.813   6.795  0.4342 -0.5207 -1.0730
 8431SOL    HW225689   6.470   4.828   6.679 -0.8592 -1.2454 -0.1314
 8432SOL     OW25690   2.048   5.262   5.056 -0.1876  0.2466 -0.1209
 8432SOL    HW125691   2.106   5.291   4.985  3.0640 -0.6107  1.9626
 8432SOL    HW225692   2.065   5.168   5.064  1.9289  0.7447  3.5604
 8433SOL     OW25693   5.896   6.617   1.087 -0.4473  0.3194  0.4383
 8433SOL    HW125694   5.968   6.642   1.029  0.4086 -1.2785  0.7440
 8433SOL    HW225695   5.863   6.535   1.051  0.1670 -0.7748  2.2260
 8434SOL     OW25696   3.048   4.443   0.892 -0.0447 -0.1496  0.4877
 8434SOL    HW125697   3.028   4.350   0.900 -0.9659 -0.0351 -0.3284
 8434SOL    HW225698   3.132   4.453   0.937 -0.4128 -1.1801  1.4623
 8435SOL     OW25699   5.165   3.154   4.050  0.0806 -0.0439 -0.7965
 8435SOL    HW125700   5.135   3.240   4.021  0.8409  0.7635  0.6771
 8435SOL    HW225701   5.089   3.117   4.096 -0.0123  0.1611 -0.7819
 8436SOL     OW25702   0.143   0.517   3.614  0.5851 -0.6954  0.1938
 8436SOL    HW125703   0.187   0.451   3.666  1.3842  0.1794  0.6558
 8436SOL    HW225704   0.055   0.522   3.652  1.4486  0.6418  2.1832
 8437SOL     OW25705   1.351   4.014   2.230  0.5900 -0.2412 -0.7125
 8437SOL    HW125706   1.425   4.044   2.282 -1.1527 -2.1755  3.3078
 8437SOL    HW225707   1.316   3.938   2.278 -6.0522  2.4661 -0.0905
 8438SOL     OW25708   5.687   1.886   3.698  0.2782 -0.2259 -0.2649
 8438SOL    HW125709   5.703   1.820   3.630  1.1030 -0.6321  0.3017
 8438SOL    HW225710   5.727   1.848   3.777  0.0799  0.6173  0.2464
 8439SOL     OW25711   5.368   6.230   5.689 -0.2551 -0.0254  0.8447
 8439SOL    HW125712   5.428   6.289   5.643  0.2351 -0.2606  1.1701
 8439SOL    HW225713   5.283   6.274   5.685  0.0790  0.6491  0.9876
 8440SOL     OW25714   5.355   2.435   1.488  0.1906  0.0214 -0.0437
 8440SOL    HW125715   5.366   2.416   1.581  0.3788  0.0689 -0.0559
 8440SOL    HW225716   5.438   2.473   1.461 -0.3587  1.4016  0.1084
 8441SOL     OW25717   1.454   3.243   3.911  0.2660  0.1854 -0.0584
 8441SOL    HW125718   1.375   3.284   3.877  0.8735  1.0668 -0.4572
 8441SOL    HW225719   1.425   3.189   3.985 -1.0866 -1.6587 -1.8203
 8442SOL     OW25720   5.179   0.144   1.760 -0.7239 -0.2726  0.1723
 8442SOL    HW125721   5.098   0.120   1.715 -0.7721  1.3853 -0.7035
 8442SOL    HW225722   5.198   0.233   1.730  0.7947 -0.1810  1.2708
 8443SOL     OW25723   2.145   4.089   1.110  0.2748 -0.0453 -0.4092
 8443SOL    HW125724   2.152   4.020   1.176  1.0665 -0.6058 -1.0508
 8443SOL    HW225725   2.101   4.046   1.036 -0.4677  0.5310 -0.3100
 8444SOL     OW25726   4.474   4.476   4.025  0.5095 -0.2425 -0.1407
 8444SOL    HW125727   4.415   4.515   3.960 -1.4454 -0.7458  1.2363
 8444SOL    HW225728   4.466   4.381   4.009 -1.4862 -0.5194  1.9148
 8445SOL     OW25729   1.392   5.215   0.599 -0.1273 -0.0996 -0.5632
 8445SOL    HW125730   1.299   5.221   0.621  0.0267 -0.3464  0.1801
 8445SOL    HW225731   1.393   5.170   0.515 -0.8358  2.5520 -2.0942
 8446SOL     OW25732   4.187   5.910   3.608 -0.3757 -0.6018  0.5456
 8446SOL    HW125733   4.144   5.850   3.669 -1.7200 -0.6770 -0.4190
 8446SOL    HW225734   4.195   5.860   3.526 -0.1480  0.0417  0.1664
 8447SOL     OW25735   0.923   6.653   1.207 -0.1520  0.1820  0.2703
 8447SOL    HW125736   0.955   6.566   1.183 -0.0025  0.4157 -0.3929
 8447SOL    HW225737   0.839   6.636   1.249 -0.8173 -0.1940 -1.1519
 8448SOL     OW25738   0.939   2.870   3.696 -0.0152 -0.1675 -0.0266
 8448SOL    HW125739   0.933   2.925   3.618  2.1642  0.8531  0.4573
 8448SOL    HW225740   0.975   2.927   3.763  1.0372 -1.8181  0.8864
 8449SOL     OW25741   6.480   1.718   1.552 -0.3093 -0.1930  0.0840
 8449SOL    HW125742   6.463   1.626   1.573 -0.1339 -0.1033  0.6301
 8449SOL    HW225743   6.511   1.756   1.634 -2.1674  0.8101  0.3839
 8450SOL     OW25744   4.537   3.005   1.056  0.4715 -0.4894  0.0829
 8450SOL    HW125745   4.498   3.005   1.143 -0.8667 -0.2801 -0.5029
 8450SOL    HW225746   4.464   3.021   0.996  1.3809 -0.5330 -1.0777
 8451SOL     OW25747   0.799   3.453   6.794 -0.0276 -0.2012 -0.0444
 8451SOL    HW125748   0.792   3.546   6.817  2.1505 -0.3738  1.6584
 8451SOL    HW225749   0.796   3.452   6.698  0.6963  1.7302 -0.1355
 8452SOL     OW25750   4.788   0.550   6.145 -0.1133  0.4507  0.3153
 8452SOL    HW125751   4.816   0.641   6.141  0.4377  0.3434  1.3285
 8452SOL    HW225752   4.822   0.518   6.229  0.8291 -1.0514 -0.5819
 8453SOL     OW25753   4.508   5.384   2.052 -0.2234  0.3504  0.1264
 8453SOL    HW125754   4.417   5.362   2.074  0.2143  0.3835  2.1572
 8453SOL    HW225755   4.504   5.476   2.027 -0.8972  0.0663 -0.8889
 8454SOL     OW25756   3.789   4.774   1.222 -0.4284  0.2346  0.7409
 8454SOL    HW125757   3.830   4.840   1.166 -1.7826  1.4257  1.1140
 8454SOL    HW225758   3.831   4.692   1.196  1.5721  1.2552  0.5200
 8455SOL     OW25759   1.164   4.025   3.015  0.3012  0.0329  0.5927
 8455SOL    HW125760   1.094   3.975   3.057 -1.1929  2.2792  0.9675
 8455SOL    HW225761   1.192   3.971   2.942 -0.5127 -1.7711  1.5517
 8456SOL     OW25762   4.796   3.593   5.869 -0.0430 -0.7169  0.3295
 8456SOL    HW125763   4.716   3.636   5.840  0.4561 -0.5371 -0.8284
 8456SOL    HW225764   4.865   3.658   5.854  0.4085 -1.1032  0.6930
 8457SOL     OW25765   3.768   4.876   3.358 -0.0174 -0.3669 -0.2204
 8457SOL    HW125766   3.720   4.955   3.337 -1.1174 -0.9658 -0.0286
 8457SOL    HW225767   3.752   4.861   3.452  1.3117 -0.0756  0.0785
 8458SOL     OW25768   4.899   3.363   1.150  0.2310  0.5406  0.7305
 8458SOL    HW125769   4.852   3.314   1.083 -0.3057  0.6745  1.0113
 8458SOL    HW225770   4.925   3.298   1.215  2.5181  0.0426 -0.5586
 8459SOL     OW25771   6.721   2.428   3.965  0.2593 -0.5214  0.2177
 8459SOL    HW125772   6.672   2.370   3.906  0.4426 -0.1508 -0.3110
 8459SOL    HW225773   6.663   2.444   4.039 -0.7764  0.6126 -0.8026
 8460SOL     OW25774   1.550   4.373   6.517 -0.2047  0.3092  0.3707
 8460SOL    HW125775   1.521   4.426   6.443 -3.4060 -1.9734 -0.2086
 8460SOL    HW225776   1.487   4.392   6.586  1.7406  1.1170  2.0501
 8461SOL     OW25777   2.794   0.347   5.968  0.3546 -0.4634  0.6316
 8461SOL    HW125778   2.703   0.323   5.986  0.1789  0.1507  0.5928
 8461SOL    HW225779   2.828   0.375   6.053 -0.5285  2.6114  0.1265
 8462SOL     OW25780   1.831   1.722   4.198  0.3308  0.5759  0.0478
 8462SOL    HW125781   1.910   1.757   4.238 -0.8767  1.0901  2.1348
 8462SOL    HW225782   1.782   1.800   4.170 -0.2579  0.3780  0.4894
 8463SOL     OW25783   0.466   1.411   6.810  0.1370 -0.6875 -0.4621
 8463SOL    HW125784   0.445   1.334   6.758  0.7804 -0.7122 -0.6943
 8463SOL    HW225785   0.441   1.485   6.754  2.6388 -0.6622 -1.6750
 8464SOL     OW25786   3.401   3.544   2.982  0.5086 -0.4051  0.2747
 8464SOL    HW125787   3.349   3.594   3.044  0.4791 -1.3551  1.0492
 8464SOL    HW225788   3.477   3.515   3.033  0.0920 -1.8626  0.1037
 8465SOL     OW25789   0.836   6.662   5.446 -0.2216 -0.4240 -0.2062
 8465SOL    HW125790   0.776   6.721   5.401 -0.7953 -0.7007  0.1794
 8465SOL    HW225791   0.826   6.684   5.539 -0.3406 -1.0227 -0.0704
 8466SOL     OW25792   2.023   5.471   5.240 -0.4642 -0.0646  0.0229
 8466SOL    HW125793   2.100   5.525   5.226 -0.7966 -0.0940 -2.3900
 8466SOL    HW225794   2.034   5.397   5.180 -1.1216 -1.4828  1.5622
 8467SOL     OW25795   4.248   0.510   0.182  0.1675 -0.4965 -0.7141
 8467SOL    HW125796   4.159   0.479   0.168  0.1642 -1.5099  1.2388
 8467SOL    HW225797   4.275   0.546   0.097 -2.6067  1.2296 -1.0008
 8468SOL     OW25798   5.743   4.694   6.496  0.1758 -0.0236  0.3186
 8468SOL    HW125799   5.686   4.729   6.565  0.8422  0.9127  0.4138
 8468SOL    HW225800   5.817   4.655   6.542  0.0778 -0.4076  0.1611
 8469SOL     OW25801   5.986   5.400   3.678  0.2063 -0.4395 -0.2581
 8469SOL    HW125802   6.003   5.481   3.630 -1.5665  0.9834  1.3441
 8469SOL    HW225803   5.892   5.386   3.668  0.1821 -1.3025  0.9947
 8470SOL     OW25804   3.047   2.482   0.831 -0.4255 -0.6272 -0.0661
 8470SOL    HW125805   3.093   2.444   0.906  0.7041 -1.4231 -1.1137
 8470SOL    HW225806   3.004   2.407   0.790 -0.2204 -0.3724 -0.7562
 8471SOL     OW25807   5.516   6.112   4.183  0.1127 -0.0730  0.4706
 8471SOL    HW125808   5.561   6.178   4.237  0.6680  0.2532 -0.3579
 8471SOL    HW225809   5.442   6.159   4.146  0.6630  0.1754 -0.3360
 8472SOL     OW25810   6.422   4.382   1.091  0.2589  0.3032 -0.3072
 8472SOL    HW125811   6.392   4.322   1.159  0.4541  0.1294 -0.3728
 8472SOL    HW225812   6.363   4.366   1.017 -0.9196  1.5588  0.3194
 8473SOL     OW25813   0.524   4.639   2.546 -0.4136  0.6190  0.1261
 8473SOL    HW125814   0.528   4.619   2.639 -0.9637 -3.5079 -0.5572
 8473SOL    HW225815   0.446   4.694   2.537 -0.4203  0.9875  2.0489
 8474SOL     OW25816   2.554   4.529   5.997 -0.4609  0.4314 -0.1610
 8474SOL    HW125817   2.619   4.498   6.060 -0.7700  1.6645  0.8106
 8474SOL    HW225818   2.599   4.524   5.913  0.8737  1.0849  0.4614
 8475SOL     OW25819   6.553   5.646   4.894  0.3770 -0.1676 -0.0958
 8475SOL    HW125820   6.514   5.634   4.981  1.8432  1.8696  0.9418
 8475SOL    HW225821   6.502   5.717   4.855  1.3331  0.7172  0.2097
 8476SOL     OW25822   1.180   2.174   4.747  0.0864 -0.4407  0.4680
 8476SOL    HW125823   1.273   2.153   4.746  0.3499  0.6929 -0.2452
 8476SOL    HW225824   1.170   2.236   4.819  0.2244  0.8425 -0.5910
 8477SOL     OW25825   0.628   1.336   6.076  0.0094  0.0955  0.0095
 8477SOL    HW125826   0.695   1.336   6.144  0.0574 -1.3609 -0.0010
 8477SOL    HW225827   0.624   1.245   6.046 -0.7256  0.5077 -1.2310
 8478SOL     OW25828   5.286   0.459   2.674  0.2972  0.1262 -0.5232
 8478SOL    HW125829   5.192   0.442   2.666  0.3727 -0.2466 -0.6269
 8478SOL    HW225830   5.306   0.518   2.602 -0.6229  3.4656  1.7304
 8479SOL     OW25831   0.887   0.786   0.484 -0.4457 -0.3957 -0.5103
 8479SOL    HW125832   0.838   0.866   0.465  0.2514 -0.0207 -0.7294
 8479SOL    HW225833   0.827   0.734   0.539 -1.3627 -0.2514 -1.3434
 8480SOL     OW25834   3.700   3.585   6.261 -0.2101  0.1079 -0.4426
 8480SOL    HW125835   3.714   3.662   6.206 -1.3170 -0.1745 -1.1563
 8480SOL    HW225836   3.623   3.542   6.223  0.7269 -1.6660 -0.4454
 8481SOL     OW25837   3.072   3.546   4.779  0.4815  0.5327 -0.0316
 8481SOL    HW125838   3.130   3.534   4.855  1.0990  0.5000 -0.5033
 8481SOL    HW225839   3.035   3.459   4.764  0.8337  0.4037 -0.1507
 8482SOL     OW25840   4.915   0.326   6.650  0.0676 -0.9605 -0.6442
 8482SOL    HW125841   4.957   0.315   6.735  0.0080  1.5894 -0.2095
 8482SOL    HW225842   4.979   0.295   6.586  2.5575  2.2877  0.0283
 8483SOL     OW25843   4.069   4.248   6.306 -0.0980  0.6653  0.4151
 8483SOL    HW125844   4.030   4.328   6.271  1.5388  1.1473 -0.4093
 8483SOL    HW225845   4.111   4.274   6.387 -1.3007  0.1675  1.2413
 8484SOL     OW25846   3.964   0.769   6.751 -0.1500  0.1137  0.0052
 8484SOL    HW125847   3.899   0.834   6.724  0.9483  1.5114  0.6045
 8484SOL    HW225848   3.941   0.749   6.842 -0.4996 -0.3484 -0.1853
 8485SOL     OW25849   3.830   5.385   1.024  0.6179 -0.4641  0.0330
 8485SOL    HW125850   3.833   5.422   0.936  1.1203  1.2446  0.7232
 8485SOL    HW225851   3.920   5.393   1.056 -0.0271  1.1270  1.5390
 8486SOL     OW25852   2.945   6.042   4.852  0.5520 -0.2116  0.0696
 8486SOL    HW125853   2.918   5.987   4.926  0.5074  0.9408  0.9474
 8486SOL    HW225854   3.016   5.994   4.810  2.1917  0.1190  2.2676
 8487SOL     OW25855   0.702   0.290   2.791  0.0241 -0.1523 -0.2268
 8487SOL    HW125856   0.629   0.248   2.746 -0.8761  2.1329 -1.0645
 8487SOL    HW225857   0.663   0.334   2.866  0.9697 -1.0086  0.7910
 8488SOL     OW25858   2.216   2.239   1.957  0.1547  0.2375 -0.2071
 8488SOL    HW125859   2.148   2.178   1.929 -0.2015  0.1666  0.7912
 8488SOL    HW225860   2.295   2.185   1.965 -0.2118 -0.1619  0.8984
 8489SOL     OW25861   5.759   6.861   4.518 -0.1895  0.1071 -0.7199
 8489SOL    HW125862   5.793   6.808   4.590 -0.1568 -0.2117 -0.9679
 8489SOL    HW225863   5.798   6.947   4.531 -1.7515  0.6414  0.8010
 8490SOL     OW25864   1.893   0.994   1.507 -0.5544  0.0182 -0.3270
 8490SOL    HW125865   1.843   0.981   1.587 -0.2798  1.5033  0.1052
 8490SOL    HW225866   1.943   0.913   1.497 -0.6524 -0.2142  0.9511
 8491SOL     OW25867   5.683   1.793   5.504  0.2304 -0.4942  0.0540
 8491SOL    HW125868   5.673   1.837   5.588 -0.5370 -1.1277  0.3039
 8491SOL    HW225869   5.595   1.798   5.465 -0.2368 -2.9461  0.6581
 8492SOL     OW25870   0.321   3.375   4.764 -0.4923 -0.0441  0.1231
 8492SOL    HW125871   0.245   3.430   4.746 -0.1336  0.2473 -0.5450
 8492SOL    HW225872   0.320   3.309   4.695 -0.3697 -0.2902  0.3526
 8493SOL     OW25873   2.399   4.260   1.152  0.1458 -0.5697 -0.3645
 8493SOL    HW125874   2.428   4.293   1.237 -0.8422 -0.8297  0.0888
 8493SOL    HW225875   2.480   4.249   1.102  0.6780  0.3337  0.2603
 8494SOL     OW25876   6.165   6.204   0.785  0.1158 -0.0777  0.1040
 8494SOL    HW125877   6.238   6.257   0.816 -1.0706  0.7104  1.7104
 8494SOL    HW225878   6.165   6.127   0.843 -0.5446  0.1161  0.3725
 8495SOL     OW25879   0.096   6.790   2.351 -0.1888 -0.0374 -0.1327
 8495SOL    HW125880   0.149   6.869   2.345  0.3357 -0.4603 -1.3744
 8495SOL    HW225881   0.021   6.816   2.405 -0.3427  1.4860 -1.0222
 8496SOL     OW25882   3.932   6.326   4.249 -0.2059 -0.1024 -0.8549
 8496SOL    HW125883   3.858   6.382   4.227 -0.9465 -1.4501 -1.8793
 8496SOL    HW225884   4.008   6.373   4.213 -0.7012  0.6479 -0.9533
 8497SOL     OW25885   6.229   6.753   2.342  0.1270  0.0600  0.0815
 8497SOL    HW125886   6.189   6.833   2.377  0.3955  0.5067 -0.6140
 8497SOL    HW225887   6.253   6.775   2.252  1.8447 -0.2244  0.4345
 8498SOL     OW25888   4.581   5.639   6.086 -0.0024  0.1939 -0.0667
 8498SOL    HW125889   4.664   5.645   6.038  0.7340  0.1096  1.1337
 8498SOL    HW225890   4.608   5.638   6.178 -1.4387  2.6051  0.4765
 8499SOL     OW25891   1.627   3.846   4.501 -0.0079 -0.0416  0.3239
 8499SOL    HW125892   1.570   3.792   4.555 -0.2628  0.0592  0.1577
 8499SOL    HW225893   1.571   3.919   4.473 -1.0067 -1.8853 -3.0367
 8500SOL     OW25894   1.648   3.078   1.557 -0.6810  0.2170  0.6677
 8500SOL    HW125895   1.558   3.045   1.562 -0.9533  0.6291 -0.9830
 8500SOL    HW225896   1.677   3.055   1.469  0.4697  1.0164  0.8227
 8501SOL     OW25897   0.160   0.930   4.909  0.1573  0.2816  0.0803
 8501SOL    HW125898   0.094   0.998   4.894  0.9911  0.8595 -1.0680
 8501SOL    HW225899   0.114   0.848   4.893 -0.2411  0.6852 -0.9024
 8502SOL     OW25900   6.334   4.973   4.672 -0.0021 -0.6588 -0.1955
 8502SOL    HW125901   6.380   4.954   4.590 -0.4573 -0.5036 -0.4908
 8502SOL    HW225902   6.385   5.043   4.713 -1.3774  1.3875 -1.7648
 8503SOL     OW25903   3.014   5.763   2.167  0.5347  0.2696  0.1761
 8503SOL    HW125904   2.979   5.818   2.097 -0.1536  0.8789  0.9786
 8503SOL    HW225905   3.044   5.825   2.234  1.7160 -0.2884  0.1849
 8504SOL     OW25906   5.613   3.786   0.615 -0.1515  0.4008 -0.1562
 8504SOL    HW125907   5.700   3.796   0.577 -0.3919  2.1322 -0.3495
 8504SOL    HW225908   5.623   3.819   0.705 -0.7795  1.3753 -0.4392
 8505SOL     OW25909   5.301   2.830   1.928  0.1682  0.7512 -0.3919
 8505SOL    HW125910   5.258   2.816   1.844  0.7497  1.9960 -0.9235
 8505SOL    HW225911   5.365   2.759   1.935 -0.2733  0.3166 -0.7301
 8506SOL     OW25912   1.243   6.369   4.540  0.0758  0.7665 -0.3801
 8506SOL    HW125913   1.283   6.409   4.463 -0.5227  1.9800 -0.0800
 8506SOL    HW225914   1.247   6.437   4.607 -2.8310  1.1220 -0.4301
 8507SOL     OW25915   5.943   3.590   5.133 -0.5846  0.5428 -0.5996
 8507SOL    HW125916   5.852   3.615   5.113 -0.9409 -0.8567 -0.8557
 8507SOL    HW225917   5.962   3.519   5.072 -0.3892 -1.3000  1.4747
 8508SOL     OW25918   4.043   1.708   6.358 -0.3423 -0.1286 -0.4533
 8508SOL    HW125919   4.108   1.734   6.293 -0.7156  0.7093 -0.5107
 8508SOL    HW225920   4.086   1.640   6.410  1.6151  2.2099  1.2362
 8509SOL     OW25921   0.251   3.932   0.599  1.1823  0.3896 -0.0571
 8509SOL    HW125922   0.239   3.941   0.693  0.9126  0.8017 -0.1305
 8509SOL    HW225923   0.344   3.911   0.589  1.6051  2.0381  0.1930
 8510SOL     OW25924   5.364   1.514   3.319  0.4984 -0.1973 -0.4295
 8510SOL    HW125925   5.436   1.452   3.328 -0.2630 -1.2259 -1.1379
 8510SOL    HW225926   5.380   1.556   3.234  0.2559 -0.4365 -0.5933
 8511SOL     OW25927   3.000   0.884   0.119  0.3043  0.1676 -0.3319
 8511SOL    HW125928   3.094   0.898   0.130  0.3182 -0.8955  1.0271
 8511SOL    HW225929   2.994   0.802   0.071  0.0613 -0.6765  1.1029
 8512SOL     OW25930   4.175   3.100   2.039 -0.3018 -0.5628 -0.1308
 8512SOL    HW125931   4.159   3.036   2.108  1.6269 -0.7684  0.1869
 8512SOL    HW225932   4.098   3.157   2.040 -0.4068 -0.6783  2.0490
 8513SOL     OW25933   3.892   2.693   3.065 -0.1089  0.3617  0.6741
 8513SOL    HW125934   3.801   2.668   3.049 -0.5998  2.6805 -0.6565
 8513SOL    HW225935   3.900   2.698   3.160 -0.8317 -1.5876  0.8697
 8514SOL     OW25936   6.386   0.395   4.600  0.2167 -0.0699 -0.0643
 8514SOL    HW125937   6.350   0.467   4.548 -0.5392 -1.2196 -1.2091
 8514SOL    HW225938   6.367   0.316   4.548  1.4965 -1.0509  0.8801
 8515SOL     OW25939   5.403   5.029   2.751  0.2980 -0.1617 -0.3344
 8515SOL    HW125940   5.321   5.046   2.705  0.4145 -1.2537 -0.9945
 8515SOL    HW225941   5.471   5.047   2.686  0.5378 -0.1673 -0.0865
 8516SOL     OW25942   5.191   0.509   3.500 -0.1612  0.0786 -0.3968
 8516SOL    HW125943   5.212   0.597   3.531 -2.2727  0.4394  0.1167
 8516SOL    HW225944   5.172   0.520   3.407  1.1242 -0.1391 -0.7076
 8517SOL     OW25945   3.949   4.063   2.580  0.2619 -0.0351  0.3604
 8517SOL    HW125946   3.982   4.027   2.662  0.7287  0.3378  0.3406
 8517SOL    HW225947   4.024   4.110   2.542  0.7360 -2.0346 -1.3766
 8518SOL     OW25948   6.193   2.085   0.752  0.4357 -0.7290 -0.1249
 8518SOL    HW125949   6.176   2.006   0.804  2.0098 -0.0408  1.5801
 8518SOL    HW225950   6.282   2.073   0.719  0.4779  0.0882 -0.3161
 8519SOL     OW25951   1.677   6.169   6.220  0.0494 -0.4456  0.2308
 8519SOL    HW125952   1.692   6.191   6.128 -0.9565  0.5964  0.2791
 8519SOL    HW225953   1.638   6.248   6.257  0.8017 -0.7183  1.6577
 8520SOL     OW25954   3.117   3.404   2.810  0.0513  0.0039  0.3452
 8520SOL    HW125955   3.160   3.322   2.787  0.4373  0.5620 -1.0440
 8520SOL    HW225956   3.185   3.471   2.798 -0.1666  0.5180  1.7342
 8521SOL     OW25957   1.827   2.681   6.104  0.1541  0.4192 -0.1498
 8521SOL    HW125958   1.865   2.640   6.182 -0.8854  1.0297  0.6932
 8521SOL    HW225959   1.885   2.754   6.085 -0.4664  1.2481  1.0374
 8522SOL     OW25960   0.299   1.497   1.541 -0.0380 -0.0767 -0.6095
 8522SOL    HW125961   0.237   1.470   1.474 -0.7715  1.2426 -0.5091
 8522SOL    HW225962   0.344   1.573   1.504  1.7976 -1.1814 -0.8080
 8523SOL     OW25963   5.608   5.295   1.327 -0.6534  0.0141 -0.0159
 8523SOL    HW125964   5.682   5.319   1.384 -1.4125  0.5214  0.7740
 8523SOL    HW225965   5.542   5.260   1.387 -0.4807 -1.8852 -0.8885
 8524SOL     OW25966   1.717   4.841   0.039 -0.2196 -0.3946 -0.2729
 8524SOL    HW125967   1.693   4.901  -0.033  0.4271 -0.1495 -0.2897
 8524SOL    HW225968   1.633   4.814   0.076 -0.5494 -0.1798 -0.8424
 8525SOL     OW25969   6.596   5.109   6.780  0.5733  0.0466  0.0155
 8525SOL    HW125970   6.547   5.098   6.698 -2.0981  0.6961  1.4245
 8525SOL    HW225971   6.645   5.190   6.768 -1.3651  1.2316 -0.2539
 8526SOL     OW25972   6.639   1.437   2.565  0.5264 -0.4371 -0.8395
 8526SOL    HW125973   6.627   1.390   2.482  1.3578 -1.4066 -0.4342
 8526SOL    HW225974   6.710   1.390   2.609 -0.7146 -0.6965  0.9865
 8527SOL     OW25975   3.484   1.648   3.073  0.0601 -0.3831 -0.5572
 8527SOL    HW125976   3.529   1.701   3.138 -0.2074 -0.7299 -0.0856
 8527SOL    HW225977   3.510   1.686   2.989  0.3445  0.1149 -0.2481
 8528SOL     OW25978   1.672   0.939   4.790  0.1190  0.4050  0.1958
 8528SOL    HW125979   1.739   0.890   4.836 -1.1967 -0.3740  1.3662
 8528SOL    HW225980   1.590   0.896   4.813 -0.7540  0.9662 -1.6472
 8529SOL     OW25981   0.872   2.948   6.903  0.2112  0.0035 -0.3251
 8529SOL    HW125982   0.870   2.860   6.865 -2.2968 -1.0236  1.8680
 8529SOL    HW225983   0.960   2.956   6.938 -0.0737 -2.5614  1.2651
 8530SOL     OW25984   0.916   0.021   3.184  0.6616  0.4228  0.5399
 8530SOL    HW125985   0.892  -0.067   3.214  1.6199 -1.0473 -2.6318
 8530SOL    HW225986   1.008   0.031   3.209  1.1586 -0.3824 -0.8517
 8531SOL     OW25987   4.308   1.749   0.991  0.1452 -0.2849  0.2324
 8531SOL    HW125988   4.244   1.710   0.931  0.8657 -1.0902 -0.0321
 8531SOL    HW225989   4.255   1.804   1.049 -0.5445  0.6538 -1.2316
 8532SOL     OW25990   5.083   3.998   1.704 -0.0904 -0.1952  0.0180
 8532SOL    HW125991   5.146   3.988   1.775 -1.4403 -1.4715  1.1078
 8532SOL    HW225992   5.002   4.026   1.748 -0.3380  1.3429 -1.3305
 8533SOL     OW25993   0.027   1.353   2.413  0.0951  0.6711 -0.5364
 8533SOL    HW125994   0.059   1.442   2.426 -1.3404  1.3105 -1.1059
 8533SOL    HW225995  -0.017   1.332   2.496 -0.1000  0.7354 -0.6232
 8534SOL     OW25996   6.609   3.429   6.328 -0.0607 -0.1957  0.2405
 8534SOL    HW125997   6.587   3.522   6.324  1.8371  0.2489 -1.0892
 8534SOL    HW225998   6.552   3.394   6.396 -2.3122  1.5030 -0.6356
 8535SOL     OW25999   4.581   5.205   2.853 -0.0149 -0.2146 -0.4393
 8535SOL    HW126000   4.664   5.156   2.852 -0.6036 -1.2449 -0.4313
 8535SOL    HW226001   4.598   5.281   2.797  1.0089 -0.2749 -0.2404
 8536SOL     OW26002   3.168   0.120   6.448 -0.2404  0.7016  0.3732
 8536SOL    HW126003   3.125   0.079   6.373 -0.5358 -0.3094  1.0720
 8536SOL    HW226004   3.096   0.145   6.507  0.0520 -1.8236  1.9710
 8537SOL     OW26005   0.582   4.049   6.209  0.5586 -0.0704  0.2484
 8537SOL    HW126006   0.594   4.143   6.224 -0.1292  0.0957 -0.2340
 8537SOL    HW226007   0.644   4.027   6.140  0.4065  0.1198  0.0522
 8538SOL     OW26008   3.363   3.609   1.738  0.2337  0.1908 -0.0128
 8538SOL    HW126009   3.294   3.675   1.743 -0.5453 -0.6001  0.0687
 8538SOL    HW226010   3.326   3.533   1.782  0.3339 -0.9237 -1.7404
 8539SOL     OW26011   0.574   0.454   5.669  0.1879  0.1060 -0.1503
 8539SOL    HW126012   0.668   0.451   5.651  0.1644 -0.7953 -0.1775
 8539SOL    HW226013   0.534   0.464   5.583  0.2236 -0.3911 -0.2244
 8540SOL     OW26014   6.655   3.025   4.113 -0.3830  0.0730 -0.2428
 8540SOL    HW126015   6.695   2.961   4.054 -0.3082 -0.0538 -0.0528
 8540SOL    HW226016   6.717   3.097   4.116 -0.4504  0.1420 -0.4267
 8541SOL     OW26017   3.354   6.729   0.160 -0.1464 -0.4912  0.7970
 8541SOL    HW126018   3.395   6.644   0.175 -1.7996 -1.1667  1.7101
 8541SOL    HW226019   3.263   6.709   0.139  0.2357  0.8548 -2.8685
 8542SOL     OW26020   5.355   6.055   5.899 -0.4031 -0.1958 -0.5253
 8542SOL    HW126021   5.294   5.989   5.865  0.5011 -1.1104 -0.4275
 8542SOL    HW226022   5.370   6.114   5.825 -1.3023 -0.0306 -0.5855
 8543SOL     OW26023   1.514   6.664   2.426  0.8386  0.2233 -0.3682
 8543SOL    HW126024   1.433   6.711   2.445  1.8890  1.2163  2.1196
 8543SOL    HW226025   1.544   6.700   2.342 -0.4153  1.0932 -0.4660
 8544SOL     OW26026   3.606   5.135   4.104 -0.1128 -0.1207 -0.2081
 8544SOL    HW126027   3.616   5.041   4.121  1.1369  0.2248  1.2862
 8544SOL    HW226028   3.533   5.161   4.160 -0.6409 -0.2418 -0.8344
 8545SOL     OW26029   5.461   4.851   0.655  0.3046 -0.0985  0.3499
 8545SOL    HW126030   5.379   4.845   0.704  1.0208  0.2086  1.6262
 8545SOL    HW226031   5.526   4.812   0.713  1.3088  0.9120 -0.0670
 8546SOL     OW26032   0.713   5.961   1.514 -0.0784 -0.2764 -0.1470
 8546SOL    HW126033   0.650   5.893   1.537 -0.5925  0.1957 -0.1294
 8546SOL    HW226034   0.661   6.042   1.512  0.4131  0.0351 -0.7019
 8547SOL     OW26035   2.086   4.023   6.479 -0.1847  0.6514 -0.1132
 8547SOL    HW126036   1.998   4.017   6.517 -0.4496  0.9424 -0.6676
 8547SOL    HW226037   2.145   4.023   6.555 -0.6336  0.0027  0.2442
 8548SOL     OW26038   1.862   0.011   4.297 -0.3076  0.4329  0.2746
 8548SOL    HW126039   1.941   0.022   4.350  0.8128  1.4979 -1.5077
 8548SOL    HW226040   1.792  -0.004   4.360  1.1676  0.3132  1.9561
 8549SOL     OW26041   4.678   1.400   3.115  0.1390  0.9806  0.6889
 8549SOL    HW126042   4.757   1.398   3.061  0.1928  0.6982  0.7773
 8549SOL    HW226043   4.675   1.314   3.157 -0.1686  1.0210  0.7536
 8550SOL     OW26044   3.394   4.451   5.582  0.2067 -0.0016 -0.1820
 8550SOL    HW126045   3.315   4.505   5.586 -0.2825 -0.7317  0.4909
 8550SOL    HW226046   3.423   4.456   5.491 -1.2759 -0.6360 -0.7230
 8551SOL     OW26047   4.832   2.011   3.321 -0.0587 -0.0141  0.1201
 8551SOL    HW126048   4.857   1.920   3.309  0.5641  0.3435 -1.5553
 8551SOL    HW226049   4.846   2.052   3.235 -0.7352  1.5598  0.7115
 8552SOL     OW26050   0.339   6.664   1.195  0.0876 -0.1461  0.2808
 8552SOL    HW126051   0.311   6.737   1.139  0.0282 -0.8192 -0.6013
 8552SOL    HW226052   0.311   6.586   1.147  1.3907 -0.7887  0.5220
 8553SOL     OW26053   3.282   2.953   1.403  0.1843  0.3112 -0.2141
 8553SOL    HW126054   3.277   2.998   1.487  0.4420 -0.1161  0.0309
 8553SOL    HW226055   3.241   3.014   1.341  0.2342  0.7405  0.1699
 8554SOL     OW26056   6.096   2.876   4.545 -0.0864  0.4480  0.0390
 8554SOL    HW126057   6.134   2.829   4.471 -3.0708  0.2516 -1.5311
 8554SOL    HW226058   6.148   2.848   4.621  2.3845 -0.1946 -1.7647
 8555SOL     OW26059   5.606   4.497   6.753  0.1336 -0.8488  0.1212
 8555SOL    HW126060   5.658   4.426   6.791  2.0463  0.3973 -0.0624
 8555SOL    HW226061   5.525   4.454   6.726  0.6764 -2.7010  1.2196
 8556SOL     OW26062   0.940   6.311   1.682 -0.5554  0.0907  0.1874
 8556SOL    HW126063   0.871   6.374   1.664 -0.7407 -0.2722 -0.3943
 8556SOL    HW226064   0.968   6.280   1.595 -1.2195 -1.4295  0.4881
 8557SOL     OW26065   6.633   5.468   2.708 -0.2684 -0.1811  0.2125
 8557SOL    HW126066   6.671   5.550   2.739  1.6501 -0.1554 -1.9323
 8557SOL    HW226067   6.542   5.489   2.687 -1.2030  0.1844  3.9732
 8558SOL     OW26068   6.109   6.811   5.091 -0.0312  0.3811  0.1948
 8558SOL    HW126069   6.063   6.741   5.043  0.2897  0.0155  0.4164
 8558SOL    HW226070   6.041   6.850   5.146  0.4069 -1.8978  2.5283
 8559SOL     OW26071   3.544   6.784   0.782 -0.3290  0.5261  0.1895
 8559SOL    HW126072   3.580   6.714   0.728 -2.4480  0.1039 -0.7755
 8559SOL    HW226073   3.605   6.857   0.773  1.2112 -0.7358  0.1348
 8560SOL     OW26074   0.710   1.001   2.946  0.2909 -0.7513 -1.2458
 8560SOL    HW126075   0.702   0.970   3.037  0.7289  1.0997 -0.5322
 8560SOL    HW226076   0.670   1.088   2.947  3.9954  1.1667 -1.7595
 8561SOL     OW26077   6.917   0.828   2.530 -0.0982  0.3291  0.8114
 8561SOL    HW126078   6.944   0.823   2.438  1.5952 -0.8773  1.3172
 8561SOL    HW226079   6.911   0.922   2.548 -2.2719  0.6053 -0.9813
 8562SOL     OW26080   6.042   0.259   6.098  0.0948 -0.3527 -0.4484
 8562SOL    HW126081   6.137   0.249   6.108  0.1530 -0.6436 -1.2266
 8562SOL    HW226082   6.030   0.351   6.074  0.1061 -0.1160  0.4205
 8563SOL     OW26083   0.774   2.103   5.698  0.6246 -0.5549  0.1045
 8563SOL    HW126084   0.707   2.170   5.689  0.5602 -0.6298  0.0280
 8563SOL    HW226085   0.825   2.109   5.618  1.1038 -0.0665  0.4392
 8564SOL     OW26086   2.589   5.395   0.506  0.2349  0.2938  0.2567
 8564SOL    HW126087   2.586   5.332   0.578 -1.4735 -1.5200 -1.2753
 8564SOL    HW226088   2.497   5.412   0.485  0.6913  1.6047 -0.8074
 8565SOL     OW26089   5.446   3.033   6.814 -0.5028  0.3428 -0.2586
 8565SOL    HW126090   5.494   3.115   6.805  0.6689 -0.2744  0.2258
 8565SOL    HW226091   5.502   2.978   6.869 -0.5303 -1.3603 -1.8495
 8566SOL     OW26092   1.372   2.182   5.872  0.2630 -0.2595 -0.5653
 8566SOL    HW126093   1.430   2.187   5.796 -0.5224 -0.4531 -1.1816
 8566SOL    HW226094   1.294   2.231   5.846  0.5637  0.9255  0.6541
 8567SOL     OW26095   3.725   4.469   1.750  0.4802  0.1735 -0.5535
 8567SOL    HW126096   3.792   4.525   1.791 -0.3089  0.9315 -0.2585
 8567SOL    HW226097   3.719   4.502   1.660 -0.1591  0.7474 -0.3107
 8568SOL     OW26098   0.604   2.112   6.843  0.3816  0.0950 -0.2732
 8568SOL    HW126099   0.698   2.108   6.829  0.7733  2.3156  1.2733
 8568SOL    HW226100   0.567   2.062   6.770  2.6848 -0.0262 -1.4543
 8569SOL     OW26101   3.369   5.665   4.145 -0.0705 -0.1851 -0.0719
 8569SOL    HW126102   3.325   5.642   4.226 -1.2491  1.6957 -0.1226
 8569SOL    HW226103   3.325   5.744   4.115  3.2977  1.8178 -0.1799
 8570SOL     OW26104   6.207   1.395   6.947  0.1886 -0.5378  0.0656
 8570SOL    HW126105   6.232   1.361   7.033 -0.6784 -1.3981 -0.0012
 8570SOL    HW226106   6.173   1.483   6.965 -0.0319 -0.7332  0.6148
 8571SOL     OW26107   3.261   1.459   3.233 -0.4268  0.2640 -0.3697
 8571SOL    HW126108   3.348   1.478   3.199 -0.3009 -1.4875 -1.1551
 8571SOL    HW226109   3.229   1.542   3.267  1.9169  0.7499  0.8049
 8572SOL     OW26110   1.435   2.084   4.782 -0.3628  0.1780 -0.2335
 8572SOL    HW126111   1.471   2.173   4.779  0.9290 -0.3506 -1.5082
 8572SOL    HW226112   1.487   2.035   4.718 -1.0749 -1.4933  0.4181
 8573SOL     OW26113   0.144   5.661   0.468 -0.2419 -0.2837 -0.4596
 8573SOL    HW126114   0.145   5.650   0.373  1.2178  0.0520 -0.5117
 8573SOL    HW226115   0.204   5.734   0.484  1.2449 -1.7310  0.8626
 8574SOL     OW26116   3.477   5.488   4.999  0.2959  0.3215 -0.0154
 8574SOL    HW126117   3.444   5.430   4.931 -0.1978  1.5830 -0.8878
 8574SOL    HW226118   3.510   5.429   5.067  0.4780 -0.9667 -1.1815
 8575SOL     OW26119   1.404   1.112   4.907  0.0052  0.4190  0.0971
 8575SOL    HW126120   1.448   1.129   4.990  1.9075 -0.7004 -0.6209
 8575SOL    HW226121   1.314   1.091   4.931  0.2373  1.1971  1.7658
 8576SOL     OW26122   6.061   3.293   5.144 -0.0168 -0.4773 -0.3057
 8576SOL    HW126123   6.072   3.232   5.072  0.9799 -0.1612 -0.4309
 8576SOL    HW226124   6.005   3.247   5.207 -1.1584 -0.6357 -1.4007
 8577SOL     OW26125   2.454   4.798   6.766 -0.0210 -0.2828 -0.4667
 8577SOL    HW126126   2.489   4.853   6.696 -1.3793  0.4320 -0.6235
 8577SOL    HW226127   2.404   4.729   6.720 -0.9962  0.2435 -0.2355
 8578SOL     OW26128   4.400   0.128   2.321 -0.1459  0.2759  0.4258
 8578SOL    HW126129   4.375   0.037   2.339 -0.8764  0.1751 -0.9721
 8578SOL    HW226130   4.336   0.158   2.256  0.6764  1.4868  0.1453
 8579SOL     OW26131   0.209   4.310   5.976  0.2806 -0.5828  0.3591
 8579SOL    HW126132   0.152   4.368   6.026  1.4284  0.8072  0.1430
 8579SOL    HW226133   0.278   4.285   6.037  0.3194 -0.9324  0.1760
 8580SOL     OW26134   3.058   1.497   2.510 -0.2478  0.4984  0.5265
 8580SOL    HW126135   3.014   1.559   2.451  0.5920  0.6046 -0.0177
 8580SOL    HW226136   3.109   1.441   2.451  2.0873  1.7792  1.2041
 8581SOL     OW26137   0.663   3.824   1.531  0.8891 -0.1005  0.0976
 8581SOL    HW126138   0.644   3.892   1.595 -0.3209  1.3425 -1.7087
 8581SOL    HW226139   0.714   3.867   1.463  0.4647 -1.0886 -0.8845
 8582SOL     OW26140   5.067   1.339   6.487 -0.1888 -0.3551  0.3943
 8582SOL    HW126141   5.059   1.245   6.500 -0.1181 -0.4291 -0.0886
 8582SOL    HW226142   5.158   1.359   6.510  0.0278 -0.5373 -0.2859
 8583SOL     OW26143   2.410   2.499   4.535  0.4464  0.1161  0.0024
 8583SOL    HW126144   2.423   2.574   4.478 -2.0567  1.3697  0.9135
 8583SOL    HW226145   2.497   2.478   4.568  1.5884  0.8977 -2.3147
 8584SOL     OW26146   3.454   2.102   5.528  0.0530  0.6594 -0.2643
 8584SOL    HW126147   3.531   2.149   5.496  0.9861 -1.1408 -0.7789
 8584SOL    HW226148   3.486   2.014   5.548 -1.7888  0.0010 -0.0420
 8585SOL     OW26149   2.044   3.114   2.900  0.1134 -0.0840 -0.2579
 8585SOL    HW126150   2.120   3.056   2.911 -0.4696 -0.8236 -0.1117
 8585SOL    HW226151   2.045   3.136   2.807  0.9506  0.5265 -0.1123
 8586SOL     OW26152   4.593   3.218   1.562  0.3144  0.5365 -0.2516
 8586SOL    HW126153   4.659   3.150   1.576  1.2907  1.7022  1.0627
 8586SOL    HW226154   4.635   3.280   1.502 -1.0128 -0.5402 -2.4370
 8587SOL     OW26155   1.448   0.022   4.504 -0.1816  0.1229  0.3350
 8587SOL    HW126156   1.463   0.111   4.471 -0.2968 -0.2225 -0.7073
 8587SOL    HW226157   1.379  -0.013   4.447  0.2995 -0.8390  0.3224
 8588SOL     OW26158   3.283   6.690   5.718  0.7367 -0.4984 -0.0533
 8588SOL    HW126159   3.193   6.704   5.688  0.6077 -1.8191 -0.3698
 8588SOL    HW226160   3.276   6.617   5.780  1.6560 -1.0091 -0.5277
 8589SOL     OW26161   4.777   3.393   1.449 -0.1414 -0.1589  0.0187
 8589SOL    HW126162   4.811   3.461   1.507 -0.8531  1.1085 -0.9916
 8589SOL    HW226163   4.817   3.412   1.364 -1.8237  0.2071 -0.7304
 8590SOL     OW26164   2.285   0.246   4.349 -0.2959 -0.3340  0.3437
 8590SOL    HW126165   2.308   0.263   4.257 -1.2522 -0.4988  0.0579
 8590SOL    HW226166   2.350   0.184   4.379 -0.9808 -1.6486 -0.7645
 8591SOL     OW26167   0.160   5.269   4.947  0.1036 -0.2128 -0.0707
 8591SOL    HW126168   0.168   5.196   5.009  2.7077 -0.6107 -0.7613
 8591SOL    HW226169   0.085   5.245   4.893 -1.9731 -0.0822  2.5024
 8592SOL     OW26170   0.153   2.895   0.596 -0.1822 -0.0337 -0.3821
 8592SOL    HW126171   0.209   2.861   0.526  1.0130  0.6110  0.2508
 8592SOL    HW226172   0.103   2.819   0.625 -0.0999 -0.4863 -1.3729
 8593SOL     OW26173   1.252   3.198   4.393  0.0543  0.3593 -0.2401
 8593SOL    HW126174   1.329   3.214   4.448  1.9393  0.1039 -2.6512
 8593SOL    HW226175   1.257   3.264   4.324 -1.7692  0.1598 -0.6152
 8594SOL     OW26176   2.433   4.028   2.830  0.0714  0.2668  0.8454
 8594SOL    HW126177   2.414   4.122   2.834  1.7026  0.9458 -2.8139
 8594SOL    HW226178   2.492   4.011   2.903  2.6556  3.0069 -0.4034
 8595SOL     OW26179   6.043   4.144   0.840  0.1849  0.1706 -0.1114
 8595SOL    HW126180   5.981   4.072   0.853  1.0382 -0.2989  1.6022
 8595SOL    HW226181   6.129   4.103   0.841  0.6143  0.8447 -2.2913
 8596SOL     OW26182   3.538   4.223   6.270 -0.5247  0.2774 -0.0212
 8596SOL    HW126183   3.537   4.173   6.188 -0.3526  0.3825 -0.0879
 8596SOL    HW226184   3.623   4.204   6.309  0.0109  1.3853 -0.5900
 8597SOL     OW26185   2.458   5.283   2.373  0.6291 -0.5414  0.1718
 8597SOL    HW126186   2.443   5.201   2.327 -0.0958 -0.4530  0.2444
 8597SOL    HW226187   2.462   5.349   2.304 -1.0736 -0.3190  0.2448
 8598SOL     OW26188   4.575   0.596   2.778  0.1911  0.1382 -0.5433
 8598SOL    HW126189   4.624   0.514   2.790  0.8422  0.5237 -0.5344
 8598SOL    HW226190   4.523   0.604   2.857  0.0117 -0.3375 -0.6040
 8599SOL     OW26191   1.128   5.495   5.419  0.3292  0.7511 -0.6742
 8599SOL    HW126192   1.126   5.586   5.450 -1.1267  0.4299  0.2120
 8599SOL    HW226193   1.037   5.466   5.422  0.6828 -0.5533 -1.5714
 8600SOL     OW26194   1.040   5.525   6.170  0.0477 -0.0146  0.1560
 8600SOL    HW126195   1.089   5.594   6.125 -0.4924  0.8629  0.8718
 8600SOL    HW226196   1.087   5.445   6.150  1.6214  0.7679  0.6234
 8601SOL     OW26197   1.703   2.040   1.061 -0.6745 -0.4873 -0.4376
 8601SOL    HW126198   1.625   1.998   1.025 -0.6149 -1.3805  0.4468
 8601SOL    HW226199   1.776   1.992   1.021 -0.5619  0.2688 -1.1706
 8602SOL     OW26200   5.749   5.387   6.190  0.1769  0.2128 -0.2305
 8602SOL    HW126201   5.828   5.439   6.183  0.4768  0.2478  2.4173
 8602SOL    HW226202   5.772   5.315   6.249 -0.5019 -2.4668 -2.9557
 8603SOL     OW26203   2.073   5.475   1.330  0.6371  0.1225  0.2227
 8603SOL    HW126204   2.031   5.500   1.248  0.9528  0.3788  0.1344
 8603SOL    HW226205   2.002   5.443   1.385  0.3140  0.6593  0.1198
 8604SOL     OW26206   5.998   0.568   1.689  0.7394  0.3079 -0.3227
 8604SOL    HW126207   5.910   0.544   1.720 -0.4009  2.3179 -1.7932
 8604SOL    HW226208   6.010   0.517   1.609  1.0856 -0.2277  0.0625
 8605SOL     OW26209   2.719   0.475   3.104  0.3753  0.6191  0.0953
 8605SOL    HW126210   2.741   0.549   3.047 -0.5308 -0.0130 -1.1309
 8605SOL    HW226211   2.795   0.465   3.161  1.9201  0.4678 -1.8933
 8606SOL     OW26212   5.256   1.092   6.764 -0.2114 -0.2632  0.5646
 8606SOL    HW126213   5.203   1.123   6.690  0.7615 -1.0872 -0.5176
 8606SOL    HW226214   5.192   1.059   6.827 -1.1215  1.2966  0.5299
 8607SOL     OW26215   1.875   4.756   4.221 -0.2073 -0.2303  0.9139
 8607SOL    HW126216   1.913   4.672   4.195 -0.5482 -0.2971  0.6344
 8607SOL    HW226217   1.947   4.818   4.213 -0.7405  0.1319 -2.0424
 8608SOL     OW26218   4.065   3.217   6.664  0.7408  0.1848  0.0507
 8608SOL    HW126219   4.040   3.310   6.667 -0.9815 -0.2148 -0.6256
 8608SOL    HW226220   4.099   3.204   6.576  1.5215  0.2936  0.3332
 8609SOL     OW26221   5.393   3.550   2.731 -1.0680 -0.0577 -0.2052
 8609SOL    HW126222   5.307   3.545   2.773 -0.9149 -0.8336  0.0219
 8609SOL    HW226223   5.374   3.581   2.642 -1.5691 -0.0878 -0.1101
 8610SOL     OW26224   6.607   4.806   4.787  0.5415 -0.3190  0.3197
 8610SOL    HW126225   6.657   4.730   4.815  0.2467 -1.6557 -2.4055
 8610SOL    HW226226   6.562   4.777   4.707 -1.7924  1.8928  0.7072
 8611SOL     OW26227   5.692   0.424   0.397  0.1282  0.4844 -0.0757
 8611SOL    HW126228   5.743   0.350   0.366  1.6506  1.9302 -1.1973
 8611SOL    HW226229   5.655   0.395   0.481  2.1786 -0.9026  0.4140
 8612SOL     OW26230   4.272   6.097   4.841 -0.1431 -0.0098  0.3083
 8612SOL    HW126231   4.362   6.124   4.823  0.4006 -0.8060  1.6783
 8612SOL    HW226232   4.219   6.173   4.815  0.7263 -0.1088 -2.0454
 8613SOL     OW26233   4.352   4.739   5.048  0.2307 -0.0554 -0.5241
 8613SOL    HW126234   4.371   4.721   4.956  0.6258 -0.2796 -0.4006
 8613SOL    HW226235   4.263   4.705   5.061  0.5829 -1.0137 -0.5524
 8614SOL     OW26236   4.093   2.410   5.692 -0.4060  0.1609  0.6399
 8614SOL    HW126237   4.144   2.436   5.768 -0.0398 -0.7989  0.7400
 8614SOL    HW226238   4.152   2.354   5.641  0.2065  2.6172 -1.5912
 8615SOL     OW26239   3.888   2.572   0.575 -0.1551 -0.1343 -0.1608
 8615SOL    HW126240   3.955   2.632   0.606  1.9595 -1.3001 -2.1740
 8615SOL    HW226241   3.820   2.628   0.538  0.3489  1.0395  0.6210
 8616SOL     OW26242   1.734   3.383   6.248 -0.0188 -0.6407  0.4175
 8616SOL    HW126243   1.696   3.310   6.200 -1.0556 -0.4931  0.9902
 8616SOL    HW226244   1.704   3.371   6.338 -0.4538  0.6445  0.4646
 8617SOL     OW26245   4.484   4.636   6.792  0.1523 -0.1286 -0.1104
 8617SOL    HW126246   4.466   4.713   6.846  1.0853 -1.9875  3.1184
 8617SOL    HW226247   4.434   4.566   6.833 -1.4614 -1.2094 -3.5257
 8618SOL     OW26248   3.143   1.273   1.628 -0.0805 -0.0582 -0.4825
 8618SOL    HW126249   3.129   1.194   1.576 -0.7384  0.1908 -0.6894
 8618SOL    HW226250   3.233   1.265   1.659 -0.1915 -0.9673 -0.3622
 8619SOL     OW26251   3.620   4.146   1.603 -0.5047  0.1899  0.9161
 8619SOL    HW126252   3.584   4.071   1.556  1.3449  0.3626 -0.9170
 8619SOL    HW226253   3.550   4.212   1.599 -1.2959 -0.6416  0.5446
 8620SOL     OW26254   3.723   4.541   2.908  0.1511 -0.1672 -0.2153
 8620SOL    HW126255   3.798   4.514   2.855  0.4305  1.0880 -0.5003
 8620SOL    HW226256   3.744   4.513   2.997  0.9727  0.1803 -0.2908
 8621SOL     OW26257   0.479   2.999   3.799 -0.2435  0.2941  0.2389
 8621SOL    HW126258   0.431   2.949   3.732 -0.5032 -0.9251  1.2985
 8621SOL    HW226259   0.444   3.088   3.791 -0.8503 -0.0040 -0.7100
 8622SOL     OW26260   3.631   0.694   4.868  0.9596 -0.0122  1.0888
 8622SOL    HW126261   3.648   0.730   4.955 -0.0024 -0.7756  1.6129
 8622SOL    HW226262   3.624   0.600   4.882 -0.3548 -0.0449  0.3985
 8623SOL     OW26263   6.681   6.410   0.203  0.3404  0.2071  0.0470
 8623SOL    HW126264   6.728   6.452   0.131  0.1311  0.8797  0.2949
 8623SOL    HW226265   6.712   6.320   0.203 -1.0387 -0.3398 -2.1203
 8624SOL     OW26266   4.753   3.902   4.755  0.3755  0.4272  0.7505
 8624SOL    HW126267   4.715   3.960   4.689  0.0776  0.5740  1.0477
 8624SOL    HW226268   4.766   3.959   4.831  0.8400  0.2902  0.7787
 8625SOL     OW26269   0.443   3.563   5.120 -0.0547  0.0626 -0.4875
 8625SOL    HW126270   0.536   3.585   5.117  0.1316 -0.7157 -1.1992
 8625SOL    HW226271   0.437   3.495   5.188 -0.2535  0.7273  0.1641
 8626SOL     OW26272   4.648   3.943   1.621 -0.3952 -0.1020  0.2841
 8626SOL    HW126273   4.569   3.944   1.675 -1.6974 -1.3835 -1.5109
 8626SOL    HW226274   4.617   3.962   1.533  1.1055 -1.9499 -0.6977
 8627SOL     OW26275   2.354   5.711   3.477 -0.5769 -0.5966  0.2822
 8627SOL    HW126276   2.270   5.744   3.507  0.6880  0.3939  3.0542
 8627SOL    HW226277   2.365   5.628   3.523 -0.1639 -0.8845 -0.3201
 8628SOL     OW26278   1.939   1.928   2.499  0.6652 -0.1614  0.1203
 8628SOL    HW126279   1.861   1.981   2.482  0.4587 -0.7759 -0.9573
 8628SOL    HW226280   2.012   1.981   2.465  0.8309  0.7112  1.7350
 8629SOL     OW26281   2.698   2.131   1.120 -0.3218 -0.2619  0.2367
 8629SOL    HW126282   2.778   2.082   1.137  0.1125 -0.7421 -2.6965
 8629SOL    HW226283   2.628   2.078   1.160  0.4710 -1.6290 -0.1389
 8630SOL     OW26284   6.497   4.228   6.612  0.0224 -0.4637  0.2253
 8630SOL    HW126285   6.582   4.269   6.624 -0.2894  0.7499 -1.4137
 8630SOL    HW226286   6.480   4.184   6.696  1.3714  0.8851  1.2684
 8631SOL     OW26287   5.080   2.768   2.731  0.2325  0.5057  0.4290
 8631SOL    HW126288   5.098   2.675   2.748 -0.2105  0.4773  0.7527
 8631SOL    HW226289   5.160   2.800   2.689 -0.4086 -0.5405 -1.7494
 8632SOL     OW26290   6.015   1.950   1.436  0.0327 -0.1307  0.2083
 8632SOL    HW126291   5.929   1.974   1.400 -0.0858  1.4206  1.3974
 8632SOL    HW226292   6.030   1.861   1.404 -1.0275  0.3442 -1.7953
 8633SOL     OW26293   4.955   3.773   2.990 -0.2496  0.2704  0.1556
 8633SOL    HW126294   4.974   3.718   2.914 -1.0821 -1.4327  1.1249
 8633SOL    HW226295   5.009   3.736   3.060 -1.4821  0.0935  1.0462
 8634SOL     OW26296   2.618   1.821   0.320  0.1490  0.0772 -0.3367
 8634SOL    HW126297   2.647   1.912   0.320 -0.3330  0.2790  1.9031
 8634SOL    HW226298   2.591   1.804   0.410  0.1616 -2.2788 -0.7119
 8635SOL     OW26299   3.690   2.542   6.135  0.1903 -0.6426 -0.8166
 8635SOL    HW126300   3.673   2.478   6.066 -0.7507 -0.4121 -0.8139
 8635SOL    HW226301   3.733   2.615   6.089 -0.4056 -0.5023 -1.1703
 8636SOL     OW26302   5.131   2.872   3.429 -0.4258 -0.0608 -0.1769
 8636SOL    HW126303   5.069   2.915   3.488  0.0203 -0.2482  0.4388
 8636SOL    HW226304   5.140   2.933   3.356  1.1772  1.5976  1.2637
 8637SOL     OW26305   0.589   1.303   4.266 -0.6593 -0.2336  0.3806
 8637SOL    HW126306   0.611   1.347   4.348 -1.6289  0.9197  0.0595
 8637SOL    HW226307   0.650   1.340   4.202 -0.3222 -0.6655  0.4464
 8638SOL     OW26308   2.944   0.781   5.592 -0.0833  0.6745 -0.7921
 8638SOL    HW126309   3.016   0.750   5.647 -0.2765  0.0469 -0.8845
 8638SOL    HW226310   2.866   0.766   5.646 -0.4619 -1.5204 -1.8355
 8639SOL     OW26311   5.072   3.151   4.861 -0.7452  0.1484  0.2581
 8639SOL    HW126312   5.040   3.172   4.949 -0.9864 -2.5081  0.8991
 8639SOL    HW226313   5.161   3.120   4.875  0.0685  1.8865 -0.7875
 8640SOL     OW26314   2.315   0.989   4.386 -0.1910 -0.2789  0.0660
 8640SOL    HW126315   2.408   0.995   4.366 -0.6120  1.9163 -1.6928
 8640SOL    HW226316   2.292   0.898   4.368  0.6397  0.1850 -4.9402
 8641SOL     OW26317   3.866   5.190   6.673  0.5049  0.0410 -0.8169
 8641SOL    HW126318   3.786   5.209   6.625  0.2197 -2.5721 -1.5390
 8641SOL    HW226319   3.932   5.176   6.605  0.8287 -0.7274 -0.3572
 8642SOL     OW26320   4.711   5.993   2.021  0.2466 -0.5392 -0.5877
 8642SOL    HW126321   4.738   6.028   1.937 -2.7570 -0.8884 -1.8452
 8642SOL    HW226322   4.726   5.899   2.014 -1.3569 -0.7734 -1.3997
 8643SOL     OW26323   0.615   1.937   0.359 -0.0897  0.1082  0.4503
 8643SOL    HW126324   0.555   1.942   0.285  0.0110  1.0493  0.4292
 8643SOL    HW226325   0.569   1.884   0.423 -0.9698  0.8610  0.4543
 8644SOL     OW26326   6.408   1.445   1.979  0.3549  0.0325 -0.1446
 8644SOL    HW126327   6.417   1.444   2.074  0.3007 -0.4574 -0.1391
 8644SOL    HW226328   6.362   1.363   1.959 -0.5825  0.6266 -0.4963
 8645SOL     OW26329   3.230   1.407   0.019  0.3904 -0.1192 -0.2388
 8645SOL    HW126330   3.152   1.408   0.075 -0.1710 -0.0723 -1.0075
 8645SOL    HW226331   3.222   1.486  -0.034  1.5270  0.4638  0.4266
 8646SOL     OW26332   4.202   1.080   6.669  0.3431  0.2584  0.4054
 8646SOL    HW126333   4.130   1.068   6.730 -0.5864 -0.8991 -0.8366
 8646SOL    HW226334   4.208   0.996   6.623  0.1533  1.4525 -1.9374
 8647SOL     OW26335   4.998   3.731   0.849 -0.0912 -0.0070 -0.3135
 8647SOL    HW126336   5.067   3.736   0.915 -0.8220 -1.3930  0.6156
 8647SOL    HW226337   4.917   3.739   0.899 -0.6871 -1.6826 -0.9359
 8648SOL     OW26338   6.139   3.441   4.293 -0.4158 -0.2115  0.4266
 8648SOL    HW126339   6.045   3.458   4.293 -0.2119  1.4359 -2.1128
 8648SOL    HW226340   6.179   3.526   4.272  1.5861 -1.0938  0.4265
 8649SOL     OW26341   5.081   2.617   5.901 -0.7475 -0.8329 -0.5119
 8649SOL    HW126342   5.046   2.658   5.980  0.2280 -1.6984  0.4010
 8649SOL    HW226343   5.161   2.667   5.882 -0.3663 -1.3302 -0.2634
 8650SOL     OW26344   0.796   6.639   6.721  0.5977  0.0652  0.0665
 8650SOL    HW126345   0.752   6.704   6.666 -0.7190  0.2455  1.2843
 8650SOL    HW226346   0.760   6.653   6.808  1.7919 -0.9797  0.7601
 8651SOL     OW26347   5.977   6.457   4.294 -0.4663  0.4645 -0.3349
 8651SOL    HW126348   5.947   6.546   4.274  0.1352  1.6314  3.2652
 8651SOL    HW226349   6.072   6.465   4.300 -0.4293 -0.3517  0.2870
 8652SOL     OW26350   6.931   2.149   1.306  0.7394 -0.1466  0.3375
 8652SOL    HW126351   6.934   2.149   1.402  0.1327  0.0549  0.3595
 8652SOL    HW226352   7.013   2.107   1.280  0.0346 -2.0465  0.9664
 8653SOL     OW26353   3.934   1.662   5.670 -0.8948 -0.0329  0.7512
 8653SOL    HW126354   3.963   1.619   5.751  1.9414 -1.7450 -1.0112
 8653SOL    HW226355   3.954   1.755   5.685  1.8997 -0.6163  1.2207
 8654SOL     OW26356   2.624   0.364   5.592  0.2522  0.9908 -0.0692
 8654SOL    HW126357   2.690   0.348   5.525  0.1360 -0.2465  0.0939
 8654SOL    HW226358   2.672   0.363   5.675 -0.1129 -1.2688  0.1735
 8655SOL     OW26359   1.025   6.376   4.107  0.1173 -0.0199  0.9616
 8655SOL    HW126360   1.029   6.468   4.131  0.5877  0.6097 -1.2755
 8655SOL    HW226361   0.940   6.366   4.064  1.1296  0.1035 -1.2329
 8656SOL     OW26362   5.183   4.938   5.108  0.1757 -0.1695  0.5978
 8656SOL    HW126363   5.114   4.884   5.148  1.5016 -1.5658  1.0997
 8656SOL    HW226364   5.220   4.881   5.040  1.2949  0.2956  0.8143
 8657SOL     OW26365   5.843   4.064   2.957  0.0253 -0.7487  0.2227
 8657SOL    HW126366   5.787   4.003   3.005 -1.1893  0.2243  0.0981
 8657SOL    HW226367   5.812   4.061   2.867  0.8365 -0.9149 -0.0651
 8658SOL     OW26368   3.027   5.669   0.023  0.2640 -0.0980  0.5668
 8658SOL    HW126369   3.014   5.618   0.104  0.7448  0.9420  1.3244
 8658SOL    HW226370   2.964   5.740   0.030  0.5818  0.2185  0.2170
 8659SOL     OW26371   2.698   0.135   0.403  0.1429  0.3674 -0.1015
 8659SOL    HW126372   2.625   0.188   0.372  0.3809  1.1044  0.5647
 8659SOL    HW226373   2.757   0.131   0.328  0.3937  1.5511  0.0058
 8660SOL     OW26374   4.638   0.936   0.665  0.4541  0.0574  0.3758
 8660SOL    HW126375   4.655   0.842   0.676  1.8340  0.2532  0.1466
 8660SOL    HW226376   4.624   0.969   0.753  1.7027 -0.0885  0.6546
 8661SOL     OW26377   4.247   0.571   2.665 -0.3794  0.1626 -0.1542
 8661SOL    HW126378   4.269   0.664   2.652  2.7445 -0.6634 -1.6793
 8661SOL    HW226379   4.266   0.555   2.758  0.1798  0.8127 -0.1442
 8662SOL     OW26380   3.957   4.004   0.362  0.0329  0.4185 -0.4657
 8662SOL    HW126381   3.943   4.069   0.293 -0.0481  0.9916  0.0745
 8662SOL    HW226382   3.910   3.926   0.332 -0.7051  0.9333 -0.6753
 8663SOL     OW26383   0.229   5.939   3.792 -0.1341  0.0709  0.3296
 8663SOL    HW126384   0.137   5.953   3.768 -0.2108 -0.0886  0.5339
 8663SOL    HW226385   0.232   5.950   3.887  0.2303  1.0123  0.2235
 8664SOL     OW26386   2.549   0.304   6.065  0.0008 -0.0447 -1.2003
 8664SOL    HW126387   2.467   0.351   6.050 -0.2989 -0.4860 -0.9595
 8664SOL    HW226388   2.535   0.257   6.147  0.7805  0.5051 -0.7363
 8665SOL     OW26389   5.528   4.942   5.092  0.0549  0.1487  0.1417
 8665SOL    HW126390   5.582   4.988   5.156  1.0901  2.2591 -2.0852
 8665SOL    HW226391   5.445   4.990   5.092  0.5043  0.9416 -0.9498
 8666SOL     OW26392   6.854   4.135   3.872  0.0765 -0.0357  0.1155
 8666SOL    HW126393   6.824   4.063   3.817 -0.0779 -0.6221  0.9473
 8666SOL    HW226394   6.781   4.197   3.873 -0.6202 -0.8596  1.0961
 8667SOL     OW26395   4.567   4.038   0.458  0.0080  0.0409 -0.1259
 8667SOL    HW126396   4.652   4.008   0.490 -0.5673 -2.9148 -1.0755
 8667SOL    HW226397   4.519   3.958   0.437 -1.2280  1.5738 -4.2756
 8668SOL     OW26398   1.729   2.562   1.135 -0.0917 -0.3677 -0.2831
 8668SOL    HW126399   1.712   2.626   1.066 -3.0111  0.0919  0.7268
 8668SOL    HW226400   1.710   2.477   1.094 -2.0649 -0.0788 -0.0713
 8669SOL     OW26401   4.956   6.199   3.142  0.3565 -0.0547  0.4169
 8669SOL    HW126402   4.893   6.272   3.146 -0.2750 -0.6369  1.7301
 8669SOL    HW226403   4.993   6.195   3.230 -0.5254 -2.0768  0.7484
 8670SOL     OW26404   1.949   1.959   3.471  0.1794  0.6331  0.1904
 8670SOL    HW126405   2.040   1.935   3.451  0.8892  1.7667  1.7968
 8670SOL    HW226406   1.913   1.991   3.388  1.4307  0.6909 -0.3520
 8671SOL     OW26407   1.294   3.183   2.745  0.4156  0.3576 -0.3768
 8671SOL    HW126408   1.329   3.252   2.689  0.5600  1.0434  0.5425
 8671SOL    HW226409   1.339   3.103   2.715 -0.6123  0.4195 -2.2290
 8672SOL     OW26410   6.418   6.450   5.532  0.2313 -0.4397  0.2173
 8672SOL    HW126411   6.415   6.513   5.603 -1.1906 -0.8100  0.5181
 8672SOL    HW226412   6.358   6.484   5.466 -1.0629 -1.7641  0.6629
 8673SOL     OW26413   2.179   0.417   3.436 -0.2186 -0.2592  0.9251
 8673SOL    HW126414   2.192   0.476   3.362  1.4310 -1.7152 -0.0299
 8673SOL    HW226415   2.268   0.400   3.469 -0.5516 -2.6063  0.7910
 8674SOL     OW26416   4.486   5.720   0.086 -0.4768  0.0955 -0.4412
 8674SOL    HW126417   4.439   5.658   0.142 -0.0695 -0.7272 -0.9851
 8674SOL    HW226418   4.495   5.798   0.139 -3.2428  0.6320 -0.6170
 8675SOL     OW26419   4.467   2.250   4.503 -0.0351 -0.3923  0.7544
 8675SOL    HW126420   4.501   2.279   4.418 -1.1076 -0.3737  0.3090
 8675SOL    HW226421   4.539   2.202   4.543  0.9054  0.6397  0.3688
 8676SOL     OW26422   0.743   2.880   0.692 -0.1263 -0.2667  0.0312
 8676SOL    HW126423   0.722   2.889   0.785 -0.5401 -3.2034  0.3407
 8676SOL    HW226424   0.835   2.906   0.686  1.3234 -3.9409  2.2419
 8677SOL     OW26425   0.226   0.869   2.080 -0.4206 -0.3663 -0.0877
 8677SOL    HW126426   0.164   0.937   2.055 -4.4390 -3.1807  1.3147
 8677SOL    HW226427   0.232   0.813   2.003  2.5208  1.0736 -1.0738
 8678SOL     OW26428   1.873   6.504   6.730 -0.2001 -0.4745  0.3660
 8678SOL    HW126429   1.866   6.589   6.686 -2.8841 -0.7874  0.0281
 8678SOL    HW226430   1.805   6.450   6.689  0.1454 -2.1874  1.9167
 8679SOL     OW26431   4.744   2.381   2.119  0.1378 -0.0079  0.1553
 8679SOL    HW126432   4.720   2.440   2.047 -0.6092  0.3884  0.7092
 8679SOL    HW226433   4.727   2.433   2.198  0.0530 -0.7637  0.6373
 8680SOL     OW26434   0.394   1.400   5.704 -0.7531 -0.1394 -0.3002
 8680SOL    HW126435   0.308   1.439   5.724  0.3703  1.8988  0.8993
 8680SOL    HW226436   0.440   1.467   5.654  0.0625 -1.3264 -1.1941
 8681SOL     OW26437   5.144   4.325   4.530 -1.0190  0.5607 -0.6039
 8681SOL    HW126438   5.115   4.242   4.568  0.1361  0.6048  0.4220
 8681SOL    HW226439   5.239   4.318   4.524 -0.9210  1.7116 -0.7676
 8682SOL     OW26440   3.933   4.870   5.685 -0.1619  0.0538 -0.0314
 8682SOL    HW126441   3.989   4.855   5.609 -0.7726 -1.3934 -0.2328
 8682SOL    HW226442   3.993   4.901   5.754  0.2135  2.7609 -1.4177
 8683SOL     OW26443   0.890   6.468   2.363 -0.2566  0.2441 -0.1543
 8683SOL    HW126444   0.834   6.462   2.286 -1.4982 -0.5802  0.7847
 8683SOL    HW226445   0.968   6.418   2.339  0.3152  1.7477 -1.6216
 8684SOL     OW26446   5.796   0.437   4.104 -0.1757  0.0027  0.0916
 8684SOL    HW126447   5.725   0.500   4.117 -0.1332 -0.1067  0.9550
 8684SOL    HW226448   5.872   0.490   4.082 -0.7105  0.0646 -1.7497
 8685SOL     OW26449   6.800   1.005   6.622  0.0943 -0.0675 -0.0655
 8685SOL    HW126450   6.855   0.995   6.700 -1.4549  0.7943  1.2050
 8685SOL    HW226451   6.862   1.005   6.549  1.6464 -0.3867  1.1866
 8686SOL     OW26452   4.961   6.660   3.259 -0.0017 -0.1302  0.1506
 8686SOL    HW126453   4.988   6.638   3.348 -0.0629 -1.1943 -0.0894
 8686SOL    HW226454   5.036   6.635   3.204 -0.4744 -0.7243 -0.2368
 8687SOL     OW26455   6.701   6.326   4.477 -0.1230 -0.5569  0.7171
 8687SOL    HW126456   6.742   6.398   4.526 -0.6862  0.5902 -0.4190
 8687SOL    HW226457   6.758   6.315   4.400 -1.1494  0.1547 -0.1939
 8688SOL     OW26458   3.820   5.737   4.946 -0.1967 -0.5430  0.4713
 8688SOL    HW126459   3.913   5.719   4.953  0.6676  2.4242 -1.3893
 8688SOL    HW226460   3.814   5.833   4.944 -3.1902 -0.6343 -0.3298
 8689SOL     OW26461   0.661   6.265   0.912 -0.0846  0.0146  0.2470
 8689SOL    HW126462   0.698   6.216   0.839  1.0997  1.7814 -0.4138
 8689SOL    HW226463   0.675   6.209   0.988 -1.0219 -1.7102 -0.7790
 8690SOL     OW26464   6.774   1.884   4.567  0.4627  0.0782  0.6169
 8690SOL    HW126465   6.856   1.861   4.523  1.3161  3.7023 -0.0634
 8690SOL    HW226466   6.712   1.901   4.496 -0.1925 -0.3959  1.0580
 8691SOL     OW26467   0.345   1.310   1.031 -0.2638 -0.2664  0.2075
 8691SOL    HW126468   0.416   1.374   1.021 -0.0426 -0.1199  2.2458
 8691SOL    HW226469   0.362   1.244   0.964  0.8152  0.6424 -0.4418
 8692SOL     OW26470   2.636   4.266   0.972  0.4153  0.8947 -0.1617
 8692SOL    HW126471   2.711   4.308   1.015  0.2060  1.9625 -0.7925
 8692SOL    HW226472   2.646   4.173   0.992 -0.3551  1.4124  3.2815
 8693SOL     OW26473   5.218   3.649   6.651  0.3565  0.7785 -0.1887
 8693SOL    HW126474   5.152   3.708   6.615  0.3458  1.1202  0.3782
 8693SOL    HW226475   5.195   3.563   6.617  0.7379  1.1843 -1.5510
 8694SOL     OW26476   3.513   0.218   0.464  0.2933 -0.0865 -0.2142
 8694SOL    HW126477   3.427   0.184   0.438 -0.1275 -0.5972  1.6310
 8694SOL    HW226478   3.517   0.306   0.427 -1.5454  0.3917  0.6219
 8695SOL     OW26479   3.233   0.356   1.660 -0.7943  0.6407  0.1788
 8695SOL    HW126480   3.226   0.431   1.601  0.5051  0.2268 -0.5254
 8695SOL    HW226481   3.213   0.392   1.746 -1.5745  1.4964 -0.3380
 8696SOL     OW26482   1.226   5.691   1.914  0.0659 -0.2933 -0.2480
 8696SOL    HW126483   1.272   5.774   1.902  0.3825 -0.3622  0.4551
 8696SOL    HW226484   1.275   5.629   1.860  0.7769 -0.3518  0.4426
 8697SOL     OW26485   0.347   5.774   1.977  0.0616  0.0440  0.2723
 8697SOL    HW126486   0.406   5.705   2.008 -0.1318 -0.7728 -1.1267
 8697SOL    HW226487   0.382   5.854   2.016  1.1972 -0.6349  0.6945
 8698SOL     OW26488   5.313   0.991   5.403 -0.2512 -0.2015 -0.2665
 8698SOL    HW126489   5.226   0.988   5.442  0.4237  2.4185  1.8175
 8698SOL    HW226490   5.373   0.982   5.478  1.2033  0.0946 -1.3444
 8699SOL     OW26491   0.982   3.032   6.443  0.4383  0.2280 -0.3022
 8699SOL    HW126492   1.046   2.998   6.506 -0.5719 -2.5642 -0.6273
 8699SOL    HW226493   0.901   3.040   6.493 -0.0469 -0.7520 -0.8950
 8700SOL     OW26494   6.614   1.080   2.185 -0.3821  0.2292  0.1133
 8700SOL    HW126495   6.687   1.084   2.123  0.3520 -0.2686  0.9218
 8700SOL    HW226496   6.580   0.991   2.176 -1.5681  0.7634 -0.9918
 8701SOL     OW26497   5.101   0.940   3.022  0.0145 -0.1593 -0.1217
 8701SOL    HW126498   5.039   0.866   3.018 -3.6762  2.6426 -0.2839
 8701SOL    HW226499   5.139   0.934   3.110  0.4611 -2.6319 -0.4131
 8702SOL     OW26500   3.027   5.565   0.279 -0.6248 -0.4276 -0.0027
 8702SOL    HW126501   2.942   5.598   0.309 -0.1740 -0.3851  1.2575
 8702SOL    HW226502   3.085   5.573   0.355  0.7791  0.4611 -1.1035
 8703SOL     OW26503   4.699   6.543   5.357  0.8977 -0.1294 -0.3999
 8703SOL    HW126504   4.616   6.550   5.311  1.4509  0.8713 -1.2772
 8703SOL    HW226505   4.713   6.629   5.396  1.7489 -0.1388 -0.6581
 8704SOL     OW26506   3.730   3.914   5.805 -0.0592 -0.0981 -0.7171
 8704SOL    HW126507   3.652   3.946   5.760 -0.0256 -0.4080 -0.9980
 8704SOL    HW226508   3.777   3.863   5.739  0.1588 -0.2784 -0.4273
 8705SOL     OW26509   1.876   0.865   5.184 -0.2589 -0.1365 -0.6098
 8705SOL    HW126510   1.838   0.795   5.238  0.2475 -0.5124 -0.7314
 8705SOL    HW226511   1.841   0.946   5.221  0.1522 -0.3820  0.3420
 8706SOL     OW26512   1.916   6.284   5.431  0.2190 -0.0577  0.2953
 8706SOL    HW126513   1.928   6.298   5.337  0.1563  0.9182  0.4216
 8706SOL    HW226514   2.003   6.296   5.469  0.2666 -0.5696  0.3499
 8707SOL     OW26515   0.743   4.011   3.863 -0.0275  0.4787  0.1777
 8707SOL    HW126516   0.673   4.071   3.836  1.0192  1.4056 -0.5739
 8707SOL    HW226517   0.753   4.026   3.957 -0.5926  0.5959  0.2215
 8708SOL     OW26518   1.366   1.153   1.789 -0.0374 -0.5053  0.0498
 8708SOL    HW126519   1.307   1.221   1.821  0.0969  0.1903 -1.0826
 8708SOL    HW226520   1.310   1.078   1.771 -0.7822  0.4299 -1.8405
 8709SOL     OW26521   3.673   4.560   1.443  0.1595 -0.0990 -0.0963
 8709SOL    HW126522   3.695   4.653   1.440 -0.7024  0.1134  0.0898
 8709SOL    HW226523   3.578   4.558   1.453  0.1032 -1.0025 -0.7077
 8710SOL     OW26524   0.301   1.987   3.930 -0.7954  0.1742 -0.0894
 8710SOL    HW126525   0.238   2.030   3.872  0.5949  1.3075 -0.8322
 8710SOL    HW226526   0.295   2.036   4.012 -2.9717 -1.6112  0.9234
 8711SOL     OW26527   5.106   0.726   2.632  0.1021 -0.2955  0.4803
 8711SOL    HW126528   5.162   0.800   2.656  0.1343  0.0870 -0.6963
 8711SOL    HW226529   5.098   0.732   2.537 -0.8084 -1.1638  0.4845
 8712SOL     OW26530   4.130   6.020   0.307 -0.1153  0.2967 -0.3443
 8712SOL    HW126531   4.097   6.106   0.282 -0.3345  0.6665  1.1242
 8712SOL    HW226532   4.222   6.021   0.282 -0.0607  1.0479 -0.1171
 8713SOL     OW26533   6.405   2.299   2.917 -0.2827  0.2595  0.1330
 8713SOL    HW126534   6.382   2.274   2.828 -2.1815  2.3074 -0.0455
 8713SOL    HW226535   6.326   2.343   2.950  0.1715 -0.8784  3.0113
 8714SOL     OW26536   6.324   5.533   6.110 -0.0242  0.1218  0.0380
 8714SOL    HW126537   6.295   5.443   6.125 -0.8290  0.1185 -1.3882
 8714SOL    HW226538   6.255   5.587   6.148 -0.3993  0.1178 -0.6188
 8715SOL     OW26539   3.017   4.306   3.927  0.3435  0.1085 -0.6337
 8715SOL    HW126540   2.950   4.241   3.909  1.1446 -0.8630 -0.2431
 8715SOL    HW226541   3.005   4.374   3.860 -0.0949 -0.7748 -1.4669
 8716SOL     OW26542   3.135   6.044   1.645  0.1134  0.5981 -0.3427
 8716SOL    HW126543   3.228   6.059   1.660 -0.2165  1.6532  0.8976
 8716SOL    HW226544   3.121   5.952   1.669  0.6934  0.6762  0.3352
 8717SOL     OW26545   1.867   6.125   0.946  0.5557 -0.4511 -0.3715
 8717SOL    HW126546   1.789   6.122   1.002  0.1116 -0.2777 -0.9664
 8717SOL    HW226547   1.867   6.042   0.899  0.4969 -0.2816 -0.6760
 8718SOL     OW26548   2.444   6.812   4.135 -0.2869 -0.2807  0.0382
 8718SOL    HW126549   2.523   6.838   4.182 -0.0015 -0.0192 -0.5730
 8718SOL    HW226550   2.407   6.894   4.102  0.0706 -0.5263 -1.0430
 8719SOL     OW26551   1.806   5.694   3.242  0.6826  0.0676 -0.1576
 8719SOL    HW126552   1.899   5.672   3.243  0.7936  0.4485  1.4849
 8719SOL    HW226553   1.761   5.609   3.241  1.0759 -0.1701  1.0888
 8720SOL     OW26554   3.006   5.293   0.244 -0.2912  0.0607 -0.1926
 8720SOL    HW126555   2.976   5.224   0.303 -1.1339  1.0922  0.6128
 8720SOL    HW226556   3.072   5.340   0.295  1.2316 -0.8984 -1.1987
 8721SOL     OW26557   3.944   5.938   0.844 -0.3205 -0.7299  0.0854
 8721SOL    HW126558   3.864   5.949   0.791 -0.6420  1.6065  0.9719
 8721SOL    HW226559   3.920   5.970   0.931  0.9434 -2.1794  1.0150
 8722SOL     OW26560   3.194   2.585   4.724  0.3908 -0.1697 -0.5076
 8722SOL    HW126561   3.254   2.524   4.766 -0.8011 -0.4255  0.8774
 8722SOL    HW226562   3.111   2.574   4.770  0.2015  2.7756  0.0822
 8723SOL     OW26563   5.623   4.249   5.053  0.0166  0.1988 -0.4393
 8723SOL    HW126564   5.669   4.168   5.032  0.7394  0.3229  0.5619
 8723SOL    HW226565   5.535   4.221   5.079  0.0196 -0.1918 -0.8488
 8724SOL     OW26566   5.387   3.227   4.551 -0.0996 -0.2901 -0.0017
 8724SOL    HW126567   5.435   3.148   4.573 -0.0500 -0.5290 -0.9258
 8724SOL    HW226568   5.374   3.221   4.456  0.8759  1.3452 -0.2681
 8725SOL     OW26569   5.398   0.532   0.469  0.7250 -0.9458 -0.5637
 8725SOL    HW126570   5.327   0.473   0.441 -0.1995 -0.4028  0.5528
 8725SOL    HW226571   5.431   0.569   0.387  1.0968 -2.7266 -1.2681
 8726SOL     OW26572   0.936   4.553   5.414 -0.1322 -0.4073  0.2231
 8726SOL    HW126573   1.010   4.608   5.388 -1.2565  1.3718  0.5264
 8726SOL    HW226574   0.908   4.510   5.333  0.4999 -0.1649 -0.1294
 8727SOL     OW26575   6.026   1.033   2.762 -0.6393 -0.1286  0.5183
 8727SOL    HW126576   6.088   0.961   2.767 -0.4269  0.0082 -0.1464
 8727SOL    HW226577   5.941   0.992   2.778 -0.5741 -0.6106 -0.3412
 8728SOL     OW26578   2.486   1.071   6.268  0.3670  0.1515  0.0777
 8728SOL    HW126579   2.463   1.163   6.257  1.5290  0.3853 -0.5977
 8728SOL    HW226580   2.407   1.030   6.303  0.4563  1.7874  2.3972
 8729SOL     OW26581   0.822   0.888   1.783  0.3869 -0.3364 -0.6370
 8729SOL    HW126582   0.833   0.875   1.689 -0.3685 -1.1739 -0.6157
 8729SOL    HW226583   0.838   0.802   1.822 -1.0613 -0.4154 -0.1645
 8730SOL     OW26584   0.116   0.255   0.280  0.3628  0.4145  0.3374
 8730SOL    HW126585   0.150   0.166   0.291  2.3291  0.9887 -0.6403
 8730SOL    HW226586   0.143   0.301   0.360 -1.6854 -0.1070  1.3949
 8731SOL     OW26587   0.201   3.417   0.523 -0.3463  0.0512  0.5362
 8731SOL    HW126588   0.259   3.440   0.450 -1.6683  0.2676 -0.4922
 8731SOL    HW226589   0.243   3.342   0.565 -0.6618 -1.5804 -1.8599
 8732SOL     OW26590   3.044   1.070   5.418 -0.4519  0.2690 -0.0512
 8732SOL    HW126591   2.967   1.095   5.469  2.3478  3.1759  3.2794
 8732SOL    HW226592   3.109   1.046   5.484  1.2922 -3.4028 -2.7307
 8733SOL     OW26593   3.404   2.363   4.440 -0.1504 -0.5364  0.8751
 8733SOL    HW126594   3.312   2.336   4.431  0.4782 -2.5860 -0.0545
 8733SOL    HW226595   3.436   2.312   4.515  0.8525 -1.8175 -0.3805
 8734SOL     OW26596   4.369   1.343   3.676  0.1387  0.1659  0.1502
 8734SOL    HW126597   4.410   1.400   3.611  0.3122 -1.0290 -0.8209
 8734SOL    HW226598   4.437   1.330   3.742  0.1463  0.9377  0.3134
 8735SOL     OW26599   5.200   1.488   1.883 -0.1060 -0.3464  0.2607
 8735SOL    HW126600   5.242   1.410   1.920  1.8745  0.1818 -0.7098
 8735SOL    HW226601   5.273   1.539   1.847 -1.5954  0.7778 -1.3094
 8736SOL     OW26602   4.343   4.968   1.969  0.0076  0.2063 -0.6332
 8736SOL    HW126603   4.308   5.056   1.980 -1.4810 -0.5005  0.6132
 8736SOL    HW226604   4.419   4.979   1.911  0.1568  2.3525 -0.0909
 8737SOL     OW26605   4.593   3.466   3.340 -0.3546  0.4818  0.1908
 8737SOL    HW126606   4.518   3.407   3.345 -2.1782  2.4710 -1.2668
 8737SOL    HW226607   4.669   3.411   3.356 -2.1173 -1.6026  2.0710
 8738SOL     OW26608   0.251   6.024   2.778 -0.1705  0.0210 -0.5372
 8738SOL    HW126609   0.247   5.930   2.761 -1.8701 -0.2545  0.9501
 8738SOL    HW226610   0.215   6.033   2.867  1.8680  1.8878  0.1856
 8739SOL     OW26611   1.962   3.920   3.527  0.1453  0.5147 -0.0490
 8739SOL    HW126612   1.909   3.877   3.594  1.1383 -1.8732 -0.6835
 8739SOL    HW226613   2.047   3.932   3.569  0.2122  0.7609 -0.2563
 8740SOL     OW26614   5.438   5.860   4.257  0.1038 -0.6412 -0.4598
 8740SOL    HW126615   5.470   5.941   4.217  0.2865  0.1920  1.2893
 8740SOL    HW226616   5.350   5.883   4.289  0.2440 -1.0471  0.2362
 8741SOL     OW26617   3.490   1.038   6.858  0.0290  0.3475  0.3788
 8741SOL    HW126618   3.576   1.020   6.895  0.4895 -1.0118 -1.2185
 8741SOL    HW226619   3.498   1.124   6.817  1.4166 -0.7272 -1.7810
 8742SOL     OW26620   4.567   4.124   3.197 -0.0865  0.1082 -0.0370
 8742SOL    HW126621   4.652   4.081   3.201 -0.3787 -0.4693  0.0519
 8742SOL    HW226622   4.584   4.214   3.226  0.0906 -0.5937  2.2209
 8743SOL     OW26623   2.302   2.724   6.116  0.0686  0.1685  0.6451
 8743SOL    HW126624   2.379   2.672   6.096  0.9571  1.6222  0.1223
 8743SOL    HW226625   2.239   2.662   6.153 -0.1374 -1.9107 -2.7985
 8744SOL     OW26626   5.048   4.861   2.420  0.0968 -0.1544 -0.6280
 8744SOL    HW126627   5.072   4.768   2.431  0.8533 -0.1512 -2.0396
 8744SOL    HW226628   4.969   4.859   2.367  0.3023  0.0116 -0.9426
 8745SOL     OW26629   4.166   2.882   4.445  0.3179  0.1665 -0.4001
 8745SOL    HW126630   4.094   2.827   4.412 -0.8842  1.0052  0.7199
 8745SOL    HW226631   4.143   2.900   4.536  2.6046 -0.5413  0.3660
 8746SOL     OW26632   0.512   1.972   4.709  0.2447  0.2274  0.6671
 8746SOL    HW126633   0.421   1.967   4.679 -0.6198  2.8691  2.4855
 8746SOL    HW226634   0.512   1.930   4.795 -0.0910  2.8820  2.0764
 8747SOL     OW26635   0.950   1.105   3.074  0.3022 -0.2666 -0.0888
 8747SOL    HW126636   0.863   1.143   3.087 -0.0952 -0.7868 -1.0875
 8747SOL    HW226637   1.006   1.154   3.134 -0.5235  0.6377 -0.0124
 8748SOL     OW26638   4.744   0.103   3.088 -0.1081  0.0017 -0.3982
 8748SOL    HW126639   4.807   0.032   3.086 -0.4284 -0.3202  0.5467
 8748SOL    HW226640   4.659   0.061   3.072 -0.5897 -0.2053  2.3081
 8749SOL     OW26641   5.388   6.335   4.060  0.1282 -0.4291 -0.0662
 8749SOL    HW126642   5.439   6.400   4.107  0.3595  0.2311 -1.1816
 8749SOL    HW226643   5.300   6.373   4.054  0.1168 -0.4753 -0.2121
 8750SOL     OW26644   3.975   1.105   3.360  0.0401  0.3148  0.7280
 8750SOL    HW126645   3.882   1.105   3.383 -0.3712 -0.3225 -0.8095
 8750SOL    HW226646   4.010   1.025   3.401 -0.6336 -0.7007 -0.5971
 8751SOL     OW26647   3.282   0.626   4.921  0.8872 -0.0400 -0.2203
 8751SOL    HW126648   3.364   0.601   4.965 -0.2587 -1.0382  1.4279
 8751SOL    HW226649   3.223   0.553   4.937 -0.2694  0.5433 -1.6431
 8752SOL     OW26650   6.210   3.211   0.784 -0.0827  0.3052 -0.1750
 8752SOL    HW126651   6.251   3.125   0.775 -0.0406  0.3197 -0.1202
 8752SOL    HW226652   6.133   3.195   0.840  0.2600  0.4115  0.3317
 8753SOL     OW26653   0.397   3.111   6.054 -0.1398 -0.1398  0.0662
 8753SOL    HW126654   0.357   3.186   6.011  1.1887  0.0296 -0.9327
 8753SOL    HW226655   0.407   3.046   5.985  2.4835  0.3082 -0.0758
 8754SOL     OW26656   1.372   4.025   3.395  0.3422  0.5065 -0.1094
 8754SOL    HW126657   1.342   4.059   3.311 -0.2082  1.2446  0.3694
 8754SOL    HW226658   1.299   3.970   3.425  0.0042  1.2292  0.4368
 8755SOL     OW26659   5.432   4.112   2.265  0.3532  0.4393  0.1547
 8755SOL    HW126660   5.407   4.187   2.319 -0.1326  0.7979 -0.5538
 8755SOL    HW226661   5.526   4.123   2.250  0.3347  0.7696  0.2730
 8756SOL     OW26662   1.981   3.213   6.241  1.1087  0.0238  0.3652
 8756SOL    HW126663   2.051   3.209   6.306  0.8231  0.4220  0.7054
 8756SOL    HW226664   1.901   3.222   6.293  0.9067  0.6839 -0.0420
 8757SOL     OW26665   5.601   5.083   4.707  0.2603 -0.0962  0.2717
 8757SOL    HW126666   5.518   5.080   4.754 -0.7992  1.0316 -1.3993
 8757SOL    HW226667   5.621   5.176   4.700  0.7499 -0.2680 -0.8448
 8758SOL     OW26668   1.957   2.127   1.893 -0.5076 -0.1618 -0.2902
 8758SOL    HW126669   1.873   2.128   1.939 -0.6383 -1.5665 -0.4547
 8758SOL    HW226670   1.934   2.107   1.802  0.0529 -1.6022 -0.1425
 8759SOL     OW26671   3.157   1.521   6.531 -0.0113 -0.0582 -0.5238
 8759SOL    HW126672   3.172   1.597   6.587  0.9708 -0.7959  0.2629
 8759SOL    HW226673   3.196   1.448   6.580  0.7651 -0.7416 -2.1166
 8760SOL     OW26674   3.062   3.988   4.300 -0.0431 -0.5169  0.1158
 8760SOL    HW126675   3.146   4.022   4.331  0.5337 -2.4480  0.8400
 8760SOL    HW226676   3.057   4.014   4.208 -0.1072  2.2269  0.8134
 8761SOL     OW26677   1.044   3.689   5.455  0.0073 -0.1549 -0.1901
 8761SOL    HW126678   1.115   3.669   5.516 -0.0056 -0.5427 -0.3013
 8761SOL    HW226679   1.004   3.604   5.436 -0.3498  0.0355 -0.2951
 8762SOL     OW26680   0.923   3.401   0.714 -0.4045  0.5316  0.2374
 8762SOL    HW126681   0.929   3.342   0.639 -0.1379  1.5597 -0.5769
 8762SOL    HW226682   0.873   3.353   0.779 -1.7593  0.0988 -1.0783
 8763SOL     OW26683   0.383   6.771   3.878 -0.2084 -0.4296  0.0022
 8763SOL    HW126684   0.359   6.718   3.954  1.0085 -1.8803 -0.5916
 8763SOL    HW226685   0.461   6.729   3.843 -0.0594  0.9186 -1.3658
 8764SOL     OW26686   3.081   4.030   3.390 -0.3144  0.0890 -0.3321
 8764SOL    HW126687   3.033   3.973   3.450  0.6912 -0.8974 -0.4326
 8764SOL    HW226688   3.173   4.019   3.414 -0.0280  0.9441 -0.9867
 8765SOL     OW26689   5.601   2.128   1.889  0.2033  0.4289 -0.5167
 8765SOL    HW126690   5.510   2.135   1.919  0.7168  0.1757  1.2101
 8765SOL    HW226691   5.617   2.034   1.884  0.4861  0.4677 -0.3784
 8766SOL     OW26692   3.952   6.344   5.959 -0.0647  0.2911  0.2283
 8766SOL    HW126693   3.908   6.290   5.892 -1.8120 -0.5736  1.9864
 8766SOL    HW226694   4.027   6.381   5.913  1.0627 -3.3266 -1.2722
 8767SOL     OW26695   0.157   2.263   3.002  0.7038  0.2588 -0.3036
 8767SOL    HW126696   0.074   2.298   3.034  0.9256 -0.5483  1.2427
 8767SOL    HW226697   0.192   2.332   2.946 -0.9947  0.6112 -0.9995
 8768SOL     OW26698   6.031   5.380   6.782 -0.2424 -0.3446  0.0478
 8768SOL    HW126699   5.966   5.311   6.770  1.3065 -1.6099 -1.4435
 8768SOL    HW226700   5.979   5.461   6.785 -2.0429 -1.4538  1.1876
 8769SOL     OW26701   1.081   2.256   6.420  0.3271 -0.2051 -0.2096
 8769SOL    HW126702   1.163   2.213   6.445  0.7865  1.7390  1.9734
 8769SOL    HW226703   1.068   2.323   6.487 -3.1372 -0.5129 -0.4160
 8770SOL     OW26704   0.460   3.917   1.033  0.2408  0.0031 -0.1678
 8770SOL    HW126705   0.388   3.947   0.978 -0.3697 -1.7293 -0.3664
 8770SOL    HW226706   0.521   3.991   1.035 -2.1097  2.0445  1.0990
 8771SOL     OW26707   5.417   4.225   6.941 -0.2447 -0.5706 -0.0305
 8771SOL    HW126708   5.384   4.198   6.855 -0.9911  0.2300 -0.0140
 8771SOL    HW226709   5.424   4.321   6.935 -1.0829 -0.4249  1.0591
 8772SOL     OW26710   6.855   2.017   4.193  0.1982 -0.2717  0.0293
 8772SOL    HW126711   6.831   1.930   4.163  0.5630 -0.3036 -0.1655
 8772SOL    HW226712   6.808   2.076   4.134 -0.1221 -0.3336  0.2188
 8773SOL     OW26713   5.690   2.633   0.077 -0.3912  0.0350  0.1088
 8773SOL    HW126714   5.692   2.656   0.170  0.3935 -0.8385  0.3225
 8773SOL    HW226715   5.647   2.547   0.074  1.4111 -0.9230 -0.0750
 8774SOL     OW26716   1.683   3.717   5.303 -0.7247  0.4377  0.3839
 8774SOL    HW126717   1.665   3.643   5.361 -0.1383 -1.0848 -1.2801
 8774SOL    HW226718   1.748   3.683   5.241  0.2108  2.6345  0.0877
 8775SOL     OW26719   5.395   1.746   5.769  0.4978  0.4221 -1.2021
 8775SOL    HW126720   5.451   1.671   5.748 -0.7271 -0.6083 -0.8724
 8775SOL    HW226721   5.394   1.750   5.865 -0.2583  0.2223 -1.1975
 8776SOL     OW26722   6.782   1.925   0.049  0.2723 -0.2823  0.3383
 8776SOL    HW126723   6.700   1.879   0.067  0.9592 -1.3896  0.7335
 8776SOL    HW226724   6.792   1.918  -0.046 -1.8401  2.9596 -0.2643
 8777SOL     OW26725   3.075   0.536   0.063  0.1513  0.0802 -0.3044
 8777SOL    HW126726   3.053   0.459   0.011  0.7104 -1.5491  1.7303
 8777SOL    HW226727   3.086   0.606  -0.001  0.6416 -1.7462 -2.3408
 8778SOL     OW26728   6.681   6.437   2.596 -0.7902 -0.1226 -0.5282
 8778SOL    HW126729   6.614   6.495   2.558 -1.6200 -1.3537 -0.9974
 8778SOL    HW226730   6.747   6.429   2.526  0.9145  2.6401  0.6124
 8779SOL     OW26731   1.369   5.474   1.779 -0.0955  0.2584 -0.2811
 8779SOL    HW126732   1.347   5.481   1.686  0.7186 -0.3902 -0.5304
 8779SOL    HW226733   1.362   5.381   1.798  0.7830  0.2498  0.0413
 8780SOL     OW26734   4.987   6.919   5.861 -0.9139 -0.2311 -0.6169
 8780SOL    HW126735   5.054   6.920   5.929 -0.9659  1.8898 -0.5111
 8780SOL    HW226736   4.977   6.827   5.837  0.2549 -0.8468  1.0985
 8781SOL     OW26737   3.913   1.569   0.447  0.4310 -0.1524 -0.5953
 8781SOL    HW126738   3.869   1.633   0.502 -0.2229 -1.8056  0.8901
 8781SOL    HW226739   3.966   1.621   0.387 -1.9768  1.8618 -1.1433
 8782SOL     OW26740   4.834   3.635   6.918  0.1552  0.1692 -0.7281
 8782SOL    HW126741   4.872   3.712   6.876  0.1034  0.5981 -0.0082
 8782SOL    HW226742   4.774   3.671   6.983  0.6691 -0.4767  0.1178
 8783SOL     OW26743   2.964   4.417   3.680 -0.2781  0.3516  0.8591
 8783SOL    HW126744   2.963   4.366   3.598  1.0277  1.3886  0.1467
 8783SOL    HW226745   2.902   4.488   3.664 -1.1710 -0.3021  1.3743
 8784SOL     OW26746   0.025   6.672   0.946  0.6847  0.3201 -0.3230
 8784SOL    HW126747   0.009   6.645   0.855  0.0559  0.9648 -0.4140
 8784SOL    HW226748   0.065   6.758   0.938  2.2522 -0.3592 -0.0237
 8785SOL     OW26749   0.378   0.109   1.597 -0.2397 -0.0727 -0.8119
 8785SOL    HW126750   0.456   0.077   1.644 -0.0297 -0.3694 -1.3606
 8785SOL    HW226751   0.305   0.068   1.643 -0.1824  1.3189  0.6223
 8786SOL     OW26752   2.416   1.040   3.845 -0.4782  0.2655  0.1424
 8786SOL    HW126753   2.390   1.079   3.761  1.6468  2.2275  0.2776
 8786SOL    HW226754   2.394   1.106   3.910 -0.1434 -0.3247  0.8665
 8787SOL     OW26755   4.561   1.348   5.765  0.5675  0.0559 -0.3932
 8787SOL    HW126756   4.600   1.419   5.714 -1.2949  2.6709  1.5357
 8787SOL    HW226757   4.470   1.374   5.778 -0.3478 -2.9385  0.1205
 8788SOL     OW26758   4.556   4.741   3.674  0.0763  0.0400 -0.0603
 8788SOL    HW126759   4.649   4.743   3.695  0.2020 -2.0545 -0.1785
 8788SOL    HW226760   4.512   4.740   3.760  0.1061  1.4946 -0.0033
 8789SOL     OW26761   4.754   2.876   2.317 -0.1434 -0.0169  0.1053
 8789SOL    HW126762   4.713   2.905   2.236 -0.9322  0.4221  0.6483
 8789SOL    HW226763   4.714   2.791   2.336  1.0357 -0.7818 -0.6625
 8790SOL     OW26764   6.185   4.953   2.478  0.3394 -0.2136 -0.3705
 8790SOL    HW126765   6.137   4.898   2.540 -0.6033  0.5735 -0.3792
 8790SOL    HW226766   6.272   4.914   2.473  0.2213 -0.6748  0.9489
 8791SOL     OW26767   2.749   2.234   4.961  0.0419 -0.1457 -0.5657
 8791SOL    HW126768   2.695   2.311   4.942  0.2777  0.4603  0.9714
 8791SOL    HW226769   2.689   2.160   4.959 -0.6341  0.3733  0.0001
 8792SOL     OW26770   2.560   2.565   4.053 -0.2810  0.0250 -0.6591
 8792SOL    HW126771   2.632   2.620   4.084  0.2048 -0.4163 -1.0118
 8792SOL    HW226772   2.593   2.522   3.975  0.1625 -2.5611  0.8493
 8793SOL     OW26773   0.538   1.218   2.842 -0.1660  0.5161  0.2100
 8793SOL    HW126774   0.508   1.218   2.751 -0.2845 -1.4213  0.2022
 8793SOL    HW226775   0.545   1.311   2.865 -1.1106  1.0422 -1.4385
 8794SOL     OW26776   0.201   0.662   6.408 -0.4670 -0.1470  0.3755
 8794SOL    HW126777   0.192   0.638   6.316  0.2135 -0.2110  0.3149
 8794SOL    HW226778   0.213   0.579   6.454  0.5389 -0.0372  0.3403
 8795SOL     OW26779   2.744   2.843   4.517  0.0932  0.0081  0.3910
 8795SOL    HW126780   2.746   2.871   4.608  1.5144 -0.4280  0.5200
 8795SOL    HW226781   2.777   2.918   4.468  0.9571 -0.3383  0.4239
 8796SOL     OW26782   1.517   6.247   1.374 -0.3614  0.0475  0.3561
 8796SOL    HW126783   1.599   6.293   1.354  0.3718 -1.8751 -1.4924
 8796SOL    HW226784   1.451   6.291   1.321  0.1767 -0.4650 -0.7723
 8797SOL     OW26785   3.614   2.616   3.136 -0.3803 -0.2465 -0.6471
 8797SOL    HW126786   3.637   2.687   3.196 -0.8221  0.1358 -0.9170
 8797SOL    HW226787   3.537   2.575   3.176 -0.4818 -0.1942 -0.7864
 8798SOL     OW26788   2.676   2.272   2.400 -0.3032 -0.1669 -0.0444
 8798SOL    HW126789   2.642   2.192   2.440 -0.7820 -0.0519 -0.2183
 8798SOL    HW226790   2.742   2.303   2.462  0.4923 -1.1436 -0.3822
 8799SOL     OW26791   6.202   6.145   1.427 -0.0770  0.2712  0.5358
 8799SOL    HW126792   6.201   6.100   1.512  3.6857 -0.6400  0.3125
 8799SOL    HW226793   6.221   6.237   1.449  0.1075  0.1905  0.7173
 8800SOL     OW26794   1.521   0.953   1.875 -0.0651  0.1921 -0.7539
 8800SOL    HW126795   1.468   0.931   1.951  2.2184 -0.0630  0.8625
 8800SOL    HW226796   1.478   1.030   1.837 -1.6324 -0.0715  0.3994
 8801SOL     OW26797   6.214   3.520   2.723 -0.0856  0.2622  0.5556
 8801SOL    HW126798   6.139   3.501   2.666  0.8580 -0.4061 -0.5125
 8801SOL    HW226799   6.289   3.482   2.677  0.7896  0.1590  2.0203
 8802SOL     OW26800   5.395   2.885   0.856  0.0948 -0.8300 -0.5302
 8802SOL    HW126801   5.389   2.960   0.916  0.5891 -2.1124  1.2115
 8802SOL    HW226802   5.381   2.922   0.769 -0.7211  1.1081  0.3779
 8803SOL     OW26803   0.811   0.589   0.910  0.0847  0.1734  0.2423
 8803SOL    HW126804   0.864   0.531   0.856  0.2558 -1.4612  2.0799
 8803SOL    HW226805   0.866   0.666   0.924  1.0824 -0.5350  0.2823
 8804SOL     OW26806   0.815   0.017   5.521  0.0970 -0.6479 -0.4276
 8804SOL    HW126807   0.742  -0.034   5.486 -3.2722  1.1016  3.2808
 8804SOL    HW226808   0.777   0.101   5.544  4.0320  1.4516 -0.7180
 8805SOL     OW26809   6.059   5.093   0.285 -0.1286  0.4734  0.1173
 8805SOL    HW126810   6.017   5.142   0.355 -0.4932  0.3076  0.0169
 8805SOL    HW226811   6.010   5.117   0.206 -0.6464 -0.4383  0.1422
 8806SOL     OW26812   3.493   4.863   3.737 -0.0479  0.6797  0.1740
 8806SOL    HW126813   3.420   4.853   3.676 -0.3147 -2.2102  0.8144
 8806SOL    HW226814   3.506   4.958   3.744 -3.3988  1.3082 -0.3611
 8807SOL     OW26815   1.753   0.935   3.489  0.5408 -0.2914  0.2016
 8807SOL    HW126816   1.700   0.969   3.561 -0.4924  1.0284 -1.1359
 8807SOL    HW226817   1.718   0.848   3.472  1.3209 -0.9571  1.7763
 8808SOL     OW26818   5.975   6.763   5.915  0.3338  0.0930 -0.1683
 8808SOL    HW126819   6.061   6.798   5.940 -0.1015 -0.1990  1.9838
 8808SOL    HW226820   5.915   6.837   5.923  0.4300  0.4733 -2.3414
 8809SOL     OW26821   6.700   2.075   1.960 -0.3589 -0.3889 -0.0077
 8809SOL    HW126822   6.742   2.100   2.043  1.4925 -3.8750  0.3155
 8809SOL    HW226823   6.682   2.158   1.917  0.9345  1.5230  2.7745
 8810SOL     OW26824   6.137   4.330   3.653 -0.1636 -0.1414  0.4394
 8810SOL    HW126825   6.139   4.411   3.704 -1.8275  0.3945 -0.2750
 8810SOL    HW226826   6.190   4.349   3.576  0.8754 -0.3553  1.0695
 8811SOL     OW26827   1.707   5.234   0.451 -0.4486  0.0737 -0.4364
 8811SOL    HW126828   1.641   5.169   0.425  2.1087 -1.5315 -3.6125
 8811SOL    HW226829   1.675   5.317   0.415 -0.0898 -0.9740 -3.4012
 8812SOL     OW26830   5.900   2.716   3.228  0.7959  0.0684 -0.3403
 8812SOL    HW126831   5.888   2.775   3.154 -0.9121  0.6318  0.3373
 8812SOL    HW226832   5.813   2.680   3.244  1.1395 -0.0725  1.3620
 8813SOL     OW26833   4.202   4.619   1.038 -0.5258  0.2336 -0.3064
 8813SOL    HW126834   4.140   4.569   1.092 -2.1107  1.1289 -1.2158
 8813SOL    HW226835   4.189   4.584   0.949 -0.5927  1.2175 -0.7007
 8814SOL     OW26836   2.921   1.955   5.977 -0.1224 -0.1038 -0.5437
 8814SOL    HW126837   2.976   1.935   6.053 -2.3875  1.5837  1.6811
 8814SOL    HW226838   2.940   2.046   5.956 -2.5591  0.8031  0.8338
 8815SOL     OW26839   2.010   3.120   1.039  0.5771  0.6308  0.0377
 8815SOL    HW126840   2.066   3.043   1.029 -0.4931 -0.2114  0.3594
 8815SOL    HW226841   2.029   3.152   1.127 -0.6507 -0.6797  0.8271
 8816SOL     OW26842   1.040   6.192   6.316  0.3971  0.6308  0.0828
 8816SOL    HW126843   1.058   6.264   6.376  0.7886  0.3583  0.2937
 8816SOL    HW226844   1.118   6.186   6.261  0.6716 -0.1053  0.5489
 8817SOL     OW26845   5.736   1.786   6.132  0.8135  0.2096  0.4081
 8817SOL    HW126846   5.807   1.849   6.146  2.0224 -0.6791 -1.3633
 8817SOL    HW226847   5.780   1.701   6.125 -0.7310 -0.8090  2.2051
 8818SOL     OW26848   5.422   3.262   6.198 -0.2172 -0.3034 -0.3672
 8818SOL    HW126849   5.368   3.187   6.176 -0.1963  0.0978 -1.9518
 8818SOL    HW226850   5.382   3.299   6.276 -0.3694 -1.8013  0.2905
 8819SOL     OW26851   5.840   6.335   5.248 -0.2024  0.0460  0.3734
 8819SOL    HW126852   5.823   6.374   5.162 -0.1228 -1.8847 -0.5796
 8819SOL    HW226853   5.927   6.367   5.272  0.0038  0.1982 -0.5398
 8820SOL     OW26854   3.224   6.393   3.423  0.2983 -0.0862 -0.0360
 8820SOL    HW126855   3.238   6.405   3.517 -2.6681 -1.3546  0.6614
 8820SOL    HW226856   3.235   6.299   3.409 -0.1071 -0.0182 -0.8151
 8821SOL     OW26857   1.455   5.836   1.313 -0.0402  0.1012  0.1813
 8821SOL    HW126858   1.486   5.757   1.269 -1.6603 -1.6212  1.9426
 8821SOL    HW226859   1.412   5.886   1.245  0.5257 -0.8078 -0.8778
 8822SOL     OW26860   3.990   2.499   6.786 -0.5299  0.2941 -0.3194
 8822SOL    HW126861   3.998   2.549   6.867 -2.4916 -0.5802  0.4893
 8822SOL    HW226862   4.061   2.531   6.730  1.1338  0.6439  1.8607
 8823SOL     OW26863   4.473   4.771   0.367 -0.4711 -0.1195  0.1992
 8823SOL    HW126864   4.494   4.681   0.390 -0.8415  0.4910  3.3981
 8823SOL    HW226865   4.381   4.768   0.341 -0.1950 -0.7949 -0.7365
 8824SOL     OW26866   5.645   4.206   3.798 -1.0889 -0.1570  0.0562
 8824SOL    HW126867   5.740   4.197   3.789 -1.1166 -0.6794  0.2659
 8824SOL    HW226868   5.616   4.239   3.713 -0.6242  0.8058  0.2565
 8825SOL     OW26869   1.435   3.333   4.843 -0.3562  0.1533  0.1658
 8825SOL    HW126870   1.472   3.257   4.888  1.3892  0.7794 -0.1588
 8825SOL    HW226871   1.462   3.408   4.896  0.0773  0.7450 -0.8558
 8826SOL     OW26872   1.868   3.109   3.654 -0.1006  0.9516 -0.4233
 8826SOL    HW126873   1.938   3.094   3.718  0.9680 -0.5418 -1.8360
 8826SOL    HW226874   1.810   3.171   3.696  2.2618  2.5468  0.7177
 8827SOL     OW26875   3.984   3.191   2.709 -0.0225 -0.6169  0.1253
 8827SOL    HW126876   4.076   3.218   2.706  0.2021 -1.4365 -1.3215
 8827SOL    HW226877   3.986   3.103   2.746 -0.4006 -0.0897  1.4646
 8828SOL     OW26878   3.614   2.323   2.807  0.1174 -0.4737  0.2804
 8828SOL    HW126879   3.654   2.349   2.890  0.6198  0.4485 -0.2364
 8828SOL    HW226880   3.664   2.247   2.779  0.7173 -0.0756  0.2553
 8829SOL     OW26881   5.647   0.786   2.086  1.0599  0.4242 -0.5819
 8829SOL    HW126882   5.608   0.699   2.074 -0.2979  0.9059  0.0671
 8829SOL    HW226883   5.680   0.785   2.176  1.3581  0.4705 -0.6904
 8830SOL     OW26884   4.258   3.354   2.251  0.8260 -0.2519 -0.6585
 8830SOL    HW126885   4.261   3.449   2.256 -1.0169 -0.1873 -0.3367
 8830SOL    HW226886   4.168   3.331   2.272  0.8220 -1.9771 -2.2788
 8831SOL     OW26887   5.434   5.910   1.442  0.7565  0.7209  0.3655
 8831SOL    HW126888   5.487   5.879   1.515  0.2922  2.6051  1.5613
 8831SOL    HW226889   5.354   5.859   1.447  0.2139  1.6670  1.9678
 8832SOL     OW26890   1.894   5.330   2.070 -0.1074  0.2166 -0.0258
 8832SOL    HW126891   1.923   5.391   2.003 -0.2016 -1.1334 -1.3331
 8832SOL    HW226892   1.975   5.300   2.112  0.0519  0.0771 -0.4307
 8833SOL     OW26893   6.300   2.994   2.338  0.7325  0.0931 -0.0899
 8833SOL    HW126894   6.302   2.898   2.339  1.9430  0.0422 -2.1929
 8833SOL    HW226895   6.236   3.016   2.272 -0.2259  0.7897  1.0370
 8834SOL     OW26896   3.897   6.702   2.575 -0.1854 -0.2694 -0.1878
 8834SOL    HW126897   3.846   6.783   2.567 -1.7202 -0.7809  2.7511
 8834SOL    HW226898   3.839   6.634   2.542 -0.4704 -0.5692  0.8886
 8835SOL     OW26899   6.716   0.867   2.745 -0.0050  0.3653 -0.4614
 8835SOL    HW126900   6.782   0.856   2.677 -0.0883 -0.9285 -0.3630
 8835SOL    HW226901   6.748   0.816   2.819 -2.0365 -2.0985 -1.1256
 8836SOL     OW26902   4.995   2.053   1.694 -0.5487  0.0938  0.5279
 8836SOL    HW126903   4.942   1.996   1.639 -2.2865  1.3266  0.8134
 8836SOL    HW226904   4.939   2.130   1.709  1.5007  1.6737  0.5141
 8837SOL     OW26905   2.163   6.876   3.854 -0.3008 -0.4846  0.2322
 8837SOL    HW126906   2.107   6.838   3.787  0.2621 -0.5722 -0.1970
 8837SOL    HW226907   2.205   6.801   3.896 -2.0585 -0.5762  1.9904
 8838SOL     OW26908   3.709   2.077   1.531  0.1833  0.2943  0.1962
 8838SOL    HW126909   3.645   2.016   1.494 -0.1505  1.1537 -0.6717
 8838SOL    HW226910   3.673   2.163   1.513  0.7790  0.7658  1.1886
 8839SOL     OW26911   1.139   2.356   6.160 -0.2533  0.2776  0.0445
 8839SOL    HW126912   1.228   2.322   6.150 -1.2419 -2.5361 -0.1812
 8839SOL    HW226913   1.112   2.327   6.247 -1.0930  0.7680 -0.0359
 8840SOL     OW26914   2.623   0.645   2.810 -0.2778  0.3718 -0.5449
 8840SOL    HW126915   2.664   0.698   2.878  0.7326 -0.4234 -0.5090
 8840SOL    HW226916   2.595   0.709   2.744 -0.5249  1.0771  0.2304
 8841SOL     OW26917   0.919   5.799   6.056  0.1834 -0.3617 -0.4119
 8841SOL    HW126918   0.879   5.882   6.030 -0.7653 -0.7101 -0.1287
 8841SOL    HW226919   0.961   5.818   6.140 -1.4300 -0.5289  0.4756
 8842SOL     OW26920   0.916   1.967   4.597 -0.5671 -0.1850 -0.0475
 8842SOL    HW126921   1.011   1.970   4.592 -0.5682 -0.4382 -0.2574
 8842SOL    HW226922   0.891   2.048   4.642 -0.3075  0.3361 -0.8102
 8843SOL     OW26923   5.831   4.626   0.497 -0.0911 -0.1531 -0.6592
 8843SOL    HW126924   5.794   4.551   0.450 -0.9919  0.0179 -0.2550
 8843SOL    HW226925   5.787   4.624   0.582  1.4036 -0.3745  0.1409
 8844SOL     OW26926   0.529   4.288   5.359  0.3435 -0.2026 -0.0178
 8844SOL    HW126927   0.516   4.305   5.452 -2.9353 -2.3108  0.0656
 8844SOL    HW226928   0.460   4.338   5.316 -1.5692 -3.1492 -0.7222
 8845SOL     OW26929   5.246   3.171   3.106 -0.0815 -0.2414  0.8843
 8845SOL    HW126930   5.215   3.260   3.119 -1.0909 -0.5435  0.6752
 8845SOL    HW226931   5.282   3.145   3.191 -1.5065 -0.2731  1.5160
 8846SOL     OW26932   4.597   0.284   2.501 -0.0198 -0.1153  0.0831
 8846SOL    HW126933   4.545   0.239   2.434 -1.0330  1.5004 -0.2700
 8846SOL    HW226934   4.686   0.285   2.466 -0.5530  0.8021 -1.3481
 8847SOL     OW26935   0.578   3.211   4.349 -0.0382  0.1668  0.2935
 8847SOL    HW126936   0.579   3.307   4.344  0.8379  0.1214 -0.5384
 8847SOL    HW226937   0.577   3.192   4.443 -0.0506  0.9848  0.4643
 8848SOL     OW26938   6.471   2.163   2.162 -0.4346 -0.2358 -0.0171
 8848SOL    HW126939   6.421   2.111   2.098  0.5744 -0.1255 -0.9215
 8848SOL    HW226940   6.508   2.234   2.111  0.2059 -0.0114  0.7508
 8849SOL     OW26941   0.016   5.727   1.574 -0.4746 -0.3714 -0.7510
 8849SOL    HW126942   0.101   5.686   1.558 -1.4684 -2.0253 -2.1788
 8849SOL    HW226943   0.014   5.804   1.518 -0.7558 -1.6149 -2.5301
 8850SOL     OW26944   0.122   5.669   0.188 -0.1589  0.3181 -0.0594
 8850SOL    HW126945   0.058   5.599   0.170  0.3706  0.1162 -1.2334
 8850SOL    HW226946   0.110   5.731   0.117  0.7867  0.4074 -0.1457
 8851SOL     OW26947   1.752   1.964   1.409  0.1234 -0.2190  0.5260
 8851SOL    HW126948   1.690   1.935   1.342 -0.7106 -0.0752  1.2082
 8851SOL    HW226949   1.838   1.941   1.375 -0.2595  0.1831 -0.7489
 8852SOL     OW26950   6.693   3.246   3.783 -0.4299 -0.0781 -0.4609
 8852SOL    HW126951   6.640   3.178   3.823  0.7208 -1.1544 -0.7129
 8852SOL    HW226952   6.649   3.265   3.700 -0.9527 -0.2426 -0.2292
 8853SOL     OW26953   5.317   6.915   5.290 -0.2286 -0.5211  0.4153
 8853SOL    HW126954   5.251   6.877   5.233 -0.5836 -0.6740  0.9248
 8853SOL    HW226955   5.284   6.901   5.378 -0.3359  0.9126  0.6242
 8854SOL     OW26956   4.379   3.628   6.266  0.3687  0.6087 -0.4093
 8854SOL    HW126957   4.465   3.628   6.223  0.4025  2.2294 -0.3940
 8854SOL    HW226958   4.355   3.720   6.271  0.6101  0.6247  3.5018
 8855SOL     OW26959   3.326   2.159   2.284  0.0371 -0.2102  0.2267
 8855SOL    HW126960   3.266   2.233   2.280 -0.2013 -0.3841  0.5373
 8855SOL    HW226961   3.413   2.198   2.281 -0.0909  0.0744  0.2480
 8856SOL     OW26962   4.679   6.565   2.635  0.0277  0.1005  0.2749
 8856SOL    HW126963   4.686   6.496   2.700 -1.0761 -0.2424  0.0461
 8856SOL    HW226964   4.588   6.595   2.640  0.7683  2.4604  1.2988
 8857SOL     OW26965   0.104   4.886   3.645 -0.3798  0.0910 -0.0577
 8857SOL    HW126966   0.199   4.876   3.656 -0.0604  1.9541 -0.7735
 8857SOL    HW226967   0.093   4.902   3.551 -1.5435 -1.2123 -0.1731
 8858SOL     OW26968   4.327   4.315   1.954  0.3521 -0.2839  0.0031
 8858SOL    HW126969   4.306   4.340   1.865  1.1739  0.5009  0.0104
 8858SOL    HW226970   4.360   4.226   1.947  1.5519  0.1918 -0.6625
 8859SOL     OW26971   2.329   1.364   3.405  0.0721  0.5174 -0.1156
 8859SOL    HW126972   2.396   1.345   3.470  0.1442  1.5788  0.1526
 8859SOL    HW226973   2.323   1.460   3.404 -0.2009  0.5111 -1.3969
 8860SOL     OW26974   3.198   0.808   4.109 -0.0689  0.3842 -0.0919
 8860SOL    HW126975   3.249   0.862   4.169 -0.6259  0.0200  0.7245
 8860SOL    HW226976   3.136   0.762   4.165  0.7105 -1.4904 -0.6795
 8861SOL     OW26977   2.449   2.825   4.593  0.0120  0.1240  0.1596
 8861SOL    HW126978   2.432   2.789   4.506  0.7184 -1.2125  0.5390
 8861SOL    HW226979   2.534   2.868   4.585  0.0021  0.1414  0.1476
 8862SOL     OW26980   5.573   0.774   6.702  0.1066 -0.6490 -0.3301
 8862SOL    HW126981   5.510   0.702   6.702  0.2524 -0.8016  0.7024
 8862SOL    HW226982   5.634   0.752   6.772 -1.4068  1.7711  2.0029
 8863SOL     OW26983   2.848   6.793   6.820 -0.2376 -0.1234  0.0271
 8863SOL    HW126984   2.764   6.758   6.789 -0.4470  0.5308 -0.1634
 8863SOL    HW226985   2.838   6.888   6.813  0.1283  0.0010  1.0280
 8864SOL     OW26986   5.919   3.527   1.603  0.3064  0.0605 -0.3088
 8864SOL    HW126987   5.952   3.566   1.522  0.5545  0.9236  0.1978
 8864SOL    HW226988   5.985   3.462   1.627  1.5194  1.5230  0.5038
 8865SOL     OW26989   6.173   6.536   2.854  0.3560 -0.9409 -0.2919
 8865SOL    HW126990   6.178   6.440   2.846  1.0300 -0.8480 -1.1243
 8865SOL    HW226991   6.262   6.563   2.877  0.1257 -0.5260  0.1254
 8866SOL     OW26992   6.715   1.405   3.997 -0.4003  0.5072 -0.2193
 8866SOL    HW126993   6.775   1.385   3.925 -1.3227  0.1365 -0.8993
 8866SOL    HW226994   6.636   1.439   3.955 -0.9553  0.2897  0.6119
 8867SOL     OW26995   6.342   1.506   3.243 -0.3249 -0.3327  0.3783
 8867SOL    HW126996   6.254   1.537   3.224 -0.8756 -2.0512 -0.0875
 8867SOL    HW226997   6.367   1.455   3.166  0.5911 -0.8665  1.0012
 8868SOL     OW26998   6.695   1.252   5.924  0.0108  0.0114  0.1384
 8868SOL    HW126999   6.694   1.218   5.835  1.5140 -0.5758  0.3102
 8868SOL    HW227000   6.747   1.333   5.919  3.4564 -1.9304  1.0055
 8869SOL     OW27001   1.921   6.590   0.041  0.7268 -0.3349  0.2680
 8869SOL    HW127002   1.937   6.572  -0.052  0.7909  1.3014 -0.0614
 8869SOL    HW227003   1.878   6.675   0.042 -0.4893 -0.9259  1.6809
 8870SOL     OW27004   4.348   0.860   0.551 -0.8394  0.1911 -0.5172
 8870SOL    HW127005   4.308   0.920   0.613 -1.7964  0.8148 -1.7156
 8870SOL    HW227006   4.306   0.776   0.568 -0.7924  0.2589 -0.0542
 8871SOL     OW27007   6.710   4.097   2.349 -0.5547 -0.1553  0.4875
 8871SOL    HW127008   6.648   4.039   2.393 -0.9981  2.0085  2.9715
 8871SOL    HW227009   6.658   4.143   2.284 -1.0453  0.0910  1.0532
 8872SOL     OW27010   1.231   6.130   5.749 -0.2524 -0.0899 -0.2307
 8872SOL    HW127011   1.324   6.122   5.772  0.0543  1.0376 -1.0216
 8872SOL    HW227012   1.226   6.100   5.659 -0.1120  2.5152 -1.1913
 8873SOL     OW27013   6.096   2.582   6.520  0.3476  0.0583 -0.2571
 8873SOL    HW127014   6.108   2.506   6.577 -0.5684  0.0867 -0.0144
 8873SOL    HW227015   6.137   2.555   6.437 -1.3352 -1.3466 -0.6919
 8874SOL     OW27016   4.203   3.794   0.156  0.3707  0.8403 -0.0541
 8874SOL    HW127017   4.141   3.866   0.143 -0.6799  0.2324  1.3073
 8874SOL    HW227018   4.153   3.728   0.204  0.8213 -1.5157 -2.5767
 8875SOL     OW27019   2.354   6.777   6.241 -0.5091 -0.3703  0.3310
 8875SOL    HW127020   2.289   6.734   6.185 -1.0614 -1.7922  1.9940
 8875SOL    HW227021   2.302   6.841   6.291 -0.2734 -0.1390  0.2810
 8876SOL     OW27022   3.703   1.906   3.230  0.1427  0.6007  0.1131
 8876SOL    HW127023   3.759   1.960   3.174 -2.3741  1.5212 -1.7137
 8876SOL    HW227024   3.739   1.818   3.223  0.7449  0.9587 -1.8967
 8877SOL     OW27025   5.290   0.598   4.247 -0.2577  0.2808  0.4943
 8877SOL    HW127026   5.280   0.503   4.233  0.7558  0.1022  0.8808
 8877SOL    HW227027   5.257   0.637   4.167 -1.3603 -0.3636  0.6134
 8878SOL     OW27028   0.159   1.842   4.222 -0.9495 -0.5390  0.1804
 8878SOL    HW127029   0.242   1.857   4.267 -1.5687 -0.6174  1.3819
 8878SOL    HW227030   0.109   1.923   4.235 -1.3485 -0.7711  0.1308
 8879SOL     OW27031   3.327   0.641   5.507  0.0834  0.0740 -0.2184
 8879SOL    HW127032   3.260   0.696   5.467  1.1188  1.0688 -0.6665
 8879SOL    HW227033   3.294   0.552   5.499 -1.0957  0.5275 -0.5649
 8880SOL     OW27034   0.734   6.895   1.354  0.7449 -0.6379 -0.3894
 8880SOL    HW127035   0.706   6.858   1.271  2.2432 -1.9797 -0.3490
 8880SOL    HW227036   0.660   6.948   1.384 -0.4716 -1.5428 -1.7197
 8881SOL     OW27037   3.465   1.311   3.825  0.2399  0.2393  0.4270
 8881SOL    HW127038   3.516   1.288   3.747 -3.9283  0.8333 -2.8745
 8881SOL    HW227039   3.470   1.234   3.881  2.1543 -0.9123 -1.1965
 8882SOL     OW27040   0.858   6.693   3.235  0.1673  0.0420  0.1523
 8882SOL    HW127041   0.803   6.692   3.157 -1.2734  1.3715  1.0698
 8882SOL    HW227042   0.798   6.714   3.307  1.3781 -1.4420  1.6889
 8883SOL     OW27043   5.251   2.522   2.390 -0.3695  0.1430 -0.5151
 8883SOL    HW127044   5.274   2.613   2.376 -1.2739  0.2668 -1.3035
 8883SOL    HW227045   5.331   2.473   2.370  0.7655  0.8618  1.9812
 8884SOL     OW27046   6.082   3.406   1.027 -0.7394  0.0995  0.4881
 8884SOL    HW127047   6.021   3.473   0.995 -1.0729 -0.1205  0.6515
 8884SOL    HW227048   6.046   3.324   0.993  0.4579  0.1242 -0.9274
 8885SOL     OW27049   6.374   4.214   4.232  0.1225  0.1666 -0.2695
 8885SOL    HW127050   6.437   4.267   4.279  1.2521 -2.0211  0.8538
 8885SOL    HW227051   6.411   4.205   4.144  1.5289 -1.1657  0.3981
 8886SOL     OW27052   2.782   5.595   0.412 -0.2737  0.2626  0.1046
 8886SOL    HW127053   2.814   5.591   0.502  2.0663 -0.2339 -0.6762
 8886SOL    HW227054   2.727   5.517   0.403  1.3683 -1.0088  0.4903
 8887SOL     OW27055   2.049   4.513   0.143 -0.5758  0.3615  0.0906
 8887SOL    HW127056   1.958   4.517   0.111  0.2811 -1.0152 -2.9518
 8887SOL    HW227057   2.088   4.595   0.112 -0.2888 -0.0093 -0.5649
 8888SOL     OW27058   5.999   3.639   3.081 -0.3378 -0.4248  0.0286
 8888SOL    HW127059   5.997   3.713   3.141 -0.7603  0.9503 -1.6164
 8888SOL    HW227060   5.962   3.673   2.999 -1.1834 -2.6318 -0.5862
 8889SOL     OW27061   1.198   3.932   6.038 -0.2131 -0.6114  0.1849
 8889SOL    HW127062   1.222   3.861   5.978  2.1560  1.3200 -1.3340
 8889SOL    HW227063   1.132   3.983   5.990 -0.0440 -0.3805  0.1952
 8890SOL     OW27064   3.299   0.110   4.874  0.0085 -0.5785  0.2752
 8890SOL    HW127065   3.279   0.102   4.780  0.6852  0.4621  0.0153
 8890SOL    HW227066   3.395   0.114   4.877 -0.0382  0.5865  0.8895
 8891SOL     OW27067   2.817   1.472   5.299  0.2056 -0.5399  0.1156
 8891SOL    HW127068   2.887   1.486   5.363 -1.1506  0.1953  1.5215
 8891SOL    HW227069   2.858   1.421   5.230  2.8855  2.1639 -0.5243
 8892SOL     OW27070   5.681   3.622   1.525  0.7160  0.5791  0.1475
 8892SOL    HW127071   5.751   3.586   1.579 -0.0317 -1.4596 -0.1521
 8892SOL    HW227072   5.633   3.545   1.494 -2.2240  1.8761  1.1050
 8893SOL     OW27073   5.138   0.496   4.836 -0.1583 -0.5584  0.6189
 8893SOL    HW127074   5.149   0.530   4.924 -0.3466  0.8168  0.1277
 8893SOL    HW227075   5.138   0.401   4.847 -1.4495 -0.4025  2.2490
 8894SOL     OW27076   4.780   5.715   2.079 -0.7354 -0.2706 -0.1692
 8894SOL    HW127077   4.728   5.727   2.159  0.3139  0.3315  0.4576
 8894SOL    HW227078   4.871   5.712   2.110 -0.3931 -1.5063 -1.2091
 8895SOL     OW27079   4.863   4.334   1.888 -0.0534 -0.0675  0.2328
 8895SOL    HW127080   4.920   4.289   1.951 -1.0811  0.4771  1.5995
 8895SOL    HW227081   4.915   4.408   1.857  0.8567 -0.9467 -0.4131
 8896SOL     OW27082   3.022   2.055   2.221  0.0375 -0.0178 -0.4062
 8896SOL    HW127083   3.024   2.034   2.127 -1.5252  0.6222 -0.6189
 8896SOL    HW227084   2.954   1.998   2.257 -0.4591  0.8156  0.0221
 8897SOL     OW27085   0.858   4.147   1.997 -0.1522  0.1830 -0.4044
 8897SOL    HW127086   0.937   4.103   2.027 -0.5034 -1.1306 -1.3106
 8897SOL    HW227087   0.789   4.113   2.055  0.1164  2.5535  1.4817
 8898SOL     OW27088   6.313   1.795   0.709  0.6237  0.0019  0.1703
 8898SOL    HW127089   6.389   1.852   0.705 -0.5466  1.6523  0.1485
 8898SOL    HW227090   6.274   1.800   0.622  0.0423 -0.1356  0.4123
 8899SOL     OW27091   2.070   0.699   3.133 -0.3986  0.0917 -0.6687
 8899SOL    HW127092   2.083   0.785   3.093 -3.3176 -0.0576 -2.2410
 8899SOL    HW227093   2.077   0.716   3.227  0.1212  1.8491 -0.9817
 8900SOL     OW27094   5.557   0.597   5.509  0.0304 -0.4052 -0.1376
 8900SOL    HW127095   5.632   0.646   5.476 -0.1929 -0.4778 -0.7609
 8900SOL    HW227096   5.493   0.601   5.438 -0.6054 -0.2283  0.4379
 8901SOL     OW27097   5.515   3.416   3.685  0.3039 -0.4353 -0.3126
 8901SOL    HW127098   5.606   3.419   3.656  0.1128 -2.4344 -1.2848
 8901SOL    HW227099   5.491   3.323   3.682 -1.1241 -0.2430  2.0415
 8902SOL     OW27100   3.663   5.393   3.202  0.1141  0.4880 -0.6716
 8902SOL    HW127101   3.726   5.459   3.174  0.6799 -0.5330 -1.8812
 8902SOL    HW227102   3.582   5.416   3.158 -0.0139  1.0492 -0.1507
 8903SOL     OW27103   1.833   1.012   3.963  0.8540  0.4907  0.1271
 8903SOL    HW127104   1.822   1.068   3.886  1.2162  0.5740  0.1327
 8903SOL    HW227105   1.896   1.059   4.018  0.9867  0.1895  0.2363
 8904SOL     OW27106   3.144   6.425   2.192 -0.3316  0.0978  0.1945
 8904SOL    HW127107   3.078   6.480   2.150  1.3084  2.3771  0.4295
 8904SOL    HW227108   3.227   6.456   2.156  0.6940 -2.8111 -0.2636
 8905SOL     OW27109   1.974   0.601   0.964 -0.3451 -0.1935 -0.2521
 8905SOL    HW127110   1.932   0.619   1.048  0.3489 -1.1010  0.3023
 8905SOL    HW227111   1.955   0.679   0.911 -2.8692 -0.6312 -0.1152
 8906SOL     OW27112   5.868   2.139   0.692  0.4075 -0.1134  0.3088
 8906SOL    HW127113   5.853   2.215   0.636  0.1065  0.4204  1.0944
 8906SOL    HW227114   5.948   2.160   0.741  0.7546 -0.6396 -0.0108
 8907SOL     OW27115   3.555   1.660   5.821 -0.7183 -0.1880  0.1151
 8907SOL    HW127116   3.632   1.608   5.799  0.8626  2.1292 -0.1610
 8907SOL    HW227117   3.483   1.619   5.772  0.6973 -1.2509 -1.1460
 8908SOL     OW27118   4.739   2.991   1.737 -0.5009  0.2658 -0.0918
 8908SOL    HW127119   4.791   2.927   1.690 -1.4239  0.4890 -1.4675
 8908SOL    HW227120   4.766   2.981   1.829  0.6406 -0.8387 -0.5213
 8909SOL     OW27121   3.005   0.459   3.575 -0.0889 -0.1838 -0.0267
 8909SOL    HW127122   2.928   0.489   3.527  0.4190  0.6507 -0.3436
 8909SOL    HW227123   2.989   0.365   3.589 -0.1717 -0.5255 -2.0186
 8910SOL     OW27124   5.168   3.770   3.659 -0.1666  0.1890 -0.3070
 8910SOL    HW127125   5.151   3.835   3.726  1.6142  0.9766 -0.5532
 8910SOL    HW227126   5.263   3.755   3.664 -0.2351 -0.8591 -1.6254
 8911SOL     OW27127   0.541   3.014   5.097  0.1707 -0.7673 -0.1192
 8911SOL    HW127128   0.565   3.045   5.184 -0.0014 -3.3521  0.9556
 8911SOL    HW227129   0.543   3.092   5.041 -0.1773  1.0571  2.2706
 8912SOL     OW27130   5.045   5.211   5.904  0.0350  0.0433 -0.8629
 8912SOL    HW127131   5.007   5.124   5.894  0.4211 -0.5892  2.3104
 8912SOL    HW227132   5.138   5.199   5.884 -0.0442 -0.0719 -1.1742
 8913SOL     OW27133   2.444   3.815   6.465  0.1695 -0.8592 -0.1283
 8913SOL    HW127134   2.391   3.867   6.526 -0.5827 -0.5205 -1.0488
 8913SOL    HW227135   2.421   3.724   6.484 -0.0091 -0.7592  0.1322
 8914SOL     OW27136   3.031   1.995   1.965 -0.1934  0.1636  0.7734
 8914SOL    HW127137   3.023   2.083   1.927 -0.0579  0.7350  1.9900
 8914SOL    HW227138   2.993   1.937   1.900 -1.7594  1.2989  0.6129
 8915SOL     OW27139   1.259   3.541   5.545  0.4508  0.2104 -0.0648
 8915SOL    HW127140   1.287   3.527   5.454  1.4575 -1.2610  0.4334
 8915SOL    HW227141   1.219   3.458   5.571 -0.3935  0.8253  0.6616
 8916SOL     OW27142   1.415   1.146   4.641 -0.1109 -0.5888 -0.2123
 8916SOL    HW127143   1.419   1.135   4.736  0.7226 -1.3871 -0.3315
 8916SOL    HW227144   1.321   1.142   4.620 -0.3345  0.1138  0.6299
 8917SOL     OW27145   0.576   3.815   4.038 -0.7762  0.8691  0.3125
 8917SOL    HW127146   0.522   3.857   3.971 -1.4640  0.1926  0.4273
 8917SOL    HW227147   0.645   3.771   3.990 -0.2741  1.7970  0.1664
 8918SOL     OW27148   5.876   0.786   3.457  0.1957  0.4595  0.3429
 8918SOL    HW127149   5.811   0.828   3.514  1.5392  1.4275  1.2558
 8918SOL    HW227150   5.939   0.748   3.518  0.0589 -1.1976 -0.5114
 8919SOL     OW27151   6.900   0.464   3.244 -0.0971 -0.1857 -0.2737
 8919SOL    HW127152   6.974   0.511   3.206 -0.3014  0.6125  0.3055
 8919SOL    HW227153   6.905   0.376   3.205  1.3853 -0.2758  0.0692
 8920SOL     OW27154   4.204   2.336   4.371  0.4350  0.2760  0.0920
 8920SOL    HW127155   4.194   2.399   4.443  1.5185  0.6816 -0.0838
 8920SOL    HW227156   4.207   2.391   4.292  0.8269 -0.0320 -0.1113
 8921SOL     OW27157   3.112   6.585   2.582 -0.0795  0.1780  0.2402
 8921SOL    HW127158   3.160   6.502   2.587 -1.2686 -0.5907 -0.5214
 8921SOL    HW227159   3.039   6.567   2.523  0.6606  2.2754 -1.4749
 8922SOL     OW27160   6.043   4.557   5.578 -0.4637 -0.1560  0.0142
 8922SOL    HW127161   6.035   4.642   5.621  1.4063  1.3523 -2.3313
 8922SOL    HW227162   6.121   4.517   5.616 -0.1510  0.1358 -0.3098
 8923SOL     OW27163   6.252   1.064   6.309  0.1810  0.5483 -0.2681
 8923SOL    HW127164   6.294   0.986   6.343  0.3684  1.2047  1.0839
 8923SOL    HW227165   6.253   1.126   6.382 -1.0868  1.3769 -0.9068
 8924SOL     OW27166   6.070   0.243   3.584  0.4533  0.5591 -0.4005
 8924SOL    HW127167   6.035   0.298   3.514  0.9462  0.3651 -0.8130
 8924SOL    HW227168   6.026   0.159   3.572  2.4296 -0.3202 -2.1701
 8925SOL     OW27169   5.464   0.809   1.608  0.6474  0.6231 -0.1267
 8925SOL    HW127170   5.514   0.769   1.536 -0.2819  1.4749 -1.2890
 8925SOL    HW227171   5.516   0.885   1.634 -0.1384  1.6665 -1.5197
 8926SOL     OW27172   4.721   3.083   3.006  0.4082 -0.2630  0.2029
 8926SOL    HW127173   4.702   3.010   2.947 -0.8316 -0.7464  1.1659
 8926SOL    HW227174   4.814   3.073   3.027  1.1028  0.3545 -2.2019
 8927SOL     OW27175   5.567   2.986   2.287 -0.1082  0.1826  0.2509
 8927SOL    HW127176   5.557   3.012   2.379 -1.0652  1.0577 -0.0853
 8927SOL    HW227177   5.626   3.052   2.250 -1.1127  0.8554 -0.1746
 8928SOL     OW27178   3.488   1.303   6.407  0.1384 -0.1441  0.7898
 8928SOL    HW127179   3.463   1.348   6.326 -1.2641  0.1713  1.3701
 8928SOL    HW227180   3.502   1.373   6.470  0.5393 -0.4208  1.0168
 8929SOL     OW27181   4.176   4.201   2.525 -0.2026  0.4246 -0.2607
 8929SOL    HW127182   4.255   4.208   2.578  0.6250 -0.7431 -1.2966
 8929SOL    HW227183   4.143   4.291   2.519  1.1732  0.9672 -0.0160
 8930SOL     OW27184   1.460   1.985   1.651  0.1006 -0.4749 -0.3781
 8930SOL    HW127185   1.373   1.980   1.612 -0.3229  0.4356  0.4027
 8930SOL    HW227186   1.503   2.056   1.604 -0.4157  0.6323  0.7857
 8931SOL     OW27187   5.544   5.811   5.235 -0.2910  0.5066  0.5712
 8931SOL    HW127188   5.521   5.842   5.147 -0.8825  1.5139  1.0691
 8931SOL    HW227189   5.639   5.804   5.234 -0.3781 -1.6614 -0.8488
 8932SOL     OW27190   1.339   2.802   3.677 -0.1800 -0.4584 -0.0416
 8932SOL    HW127191   1.360   2.826   3.767 -0.1240 -0.2294 -0.1141
 8932SOL    HW227192   1.357   2.708   3.672 -1.6042 -0.7735  0.5817
 8933SOL     OW27193   0.095   1.216   5.765  0.3860  0.4204 -0.4485
 8933SOL    HW127194   0.024   1.206   5.701  0.0905  0.6200 -0.1510
 8933SOL    HW227195   0.099   1.310   5.781  1.3019  0.5112 -1.1229
 8934SOL     OW27196   2.555   3.733   4.145  0.1079 -0.2719  0.0612
 8934SOL    HW127197   2.488   3.771   4.201 -0.5865 -0.2582 -0.7540
 8934SOL    HW227198   2.637   3.767   4.179 -0.4638  1.7796 -0.4861
 8935SOL     OW27199   5.146   1.029   1.114  0.1203 -0.2095 -0.0918
 8935SOL    HW127200   5.221   1.080   1.082 -1.4911  2.8248  0.5739
 8935SOL    HW227201   5.075   1.049   1.052 -0.9495 -0.4771  0.9975
 8936SOL     OW27202   6.791   6.344   2.995 -0.1048 -0.3316 -0.1165
 8936SOL    HW127203   6.726   6.298   3.048 -0.3877  2.0011  1.7541
 8936SOL    HW227204   6.828   6.410   3.054  1.6060  0.5956 -2.0706
 8937SOL     OW27205   1.655   3.577   0.319 -0.1554 -0.3033 -0.7400
 8937SOL    HW127206   1.676   3.640   0.388 -0.0514 -1.6532  0.5128
 8937SOL    HW227207   1.577   3.532   0.350  0.4679 -1.6242 -0.9982
 8938SOL     OW27208   5.862   2.712   0.756  0.0688  0.1675  0.1116
 8938SOL    HW127209   5.862   2.795   0.709  1.0939  0.0267 -0.1516
 8938SOL    HW227210   5.920   2.727   0.831 -0.2005 -0.1342  0.3852
 8939SOL     OW27211   4.826   6.456   6.169  0.3320  0.0736  0.2120
 8939SOL    HW127212   4.867   6.374   6.140  1.4438 -0.4333  2.9483
 8939SOL    HW227213   4.896   6.521   6.165 -0.5908  1.0335 -2.1240
 8940SOL     OW27214   5.269   4.130   6.666 -0.3237 -0.0663 -0.1078
 8940SOL    HW127215   5.319   4.200   6.624 -0.5797  0.4758  0.4755
 8940SOL    HW227216   5.183   4.134   6.624 -0.1147 -0.4993 -0.5771
 8941SOL     OW27217   1.881   1.678   3.314  0.2079  0.0226  0.0706
 8941SOL    HW127218   1.894   1.673   3.408  0.2052  1.7166  0.1965
 8941SOL    HW227219   1.918   1.597   3.280  1.8895  0.2026  1.3587
 8942SOL     OW27220   3.806   2.720   1.233 -0.8093  0.0230 -0.2511
 8942SOL    HW127221   3.899   2.738   1.249 -0.4885 -0.6092 -1.2645
 8942SOL    HW227222   3.763   2.804   1.241 -0.0844  0.3928 -0.1538
 8943SOL     OW27223   3.851   2.327   5.761  0.1366 -0.0215  0.6457
 8943SOL    HW127224   3.850   2.232   5.751 -1.4839  0.0167  0.2438
 8943SOL    HW227225   3.940   2.352   5.736  1.1851 -1.5732  2.4675
 8944SOL     OW27226   1.507   3.889   2.524 -0.3676 -0.1544  0.5598
 8944SOL    HW127227   1.504   3.973   2.571  0.3977 -0.6607  1.5372
 8944SOL    HW227228   1.415   3.871   2.503 -0.6147  0.5801  0.9600
 8945SOL     OW27229   3.545   4.487   4.939  0.3874  0.5402 -0.1502
 8945SOL    HW127230   3.545   4.503   4.845 -0.7807 -0.0157 -0.2600
 8945SOL    HW227231   3.565   4.572   4.978 -1.1427  1.2648 -0.8534
 8946SOL     OW27232   0.181   4.531   5.762 -0.5160 -0.2571  1.1007
 8946SOL    HW127233   0.193   4.460   5.825 -0.4586 -0.3789  0.9536
 8946SOL    HW227234   0.269   4.566   5.748 -0.6788  0.5605  1.9961
 8947SOL     OW27235   4.632   3.340   0.778  0.4618  0.4524 -0.4930
 8947SOL    HW127236   4.664   3.397   0.848 -0.4339  1.8464 -1.1659
 8947SOL    HW227237   4.541   3.365   0.766 -0.6367 -2.5956  0.5618
 8948SOL     OW27238   5.469   0.538   4.422  0.0172 -0.6352 -0.1081
 8948SOL    HW127239   5.407   0.549   4.349 -0.3832  0.2512  0.3471
 8948SOL    HW227240   5.427   0.582   4.495  0.7220 -0.9480  0.4916
 8949SOL     OW27241   2.242   3.158   5.776  0.3866  0.1769  0.2014
 8949SOL    HW127242   2.276   3.091   5.835  2.5434  0.7387 -0.3160
 8949SOL    HW227243   2.163   3.190   5.819  0.7000 -0.9332  1.6956
 8950SOL     OW27244   3.003   5.039   5.774 -0.3960 -0.3839 -0.1338
 8950SOL    HW127245   2.956   4.957   5.759  1.0485 -1.0776 -1.1449
 8950SOL    HW227246   2.977   5.096   5.701 -1.8961  0.3448  0.9132
 8951SOL     OW27247   2.044   2.208   5.717  0.4090 -0.3709 -0.1868
 8951SOL    HW127248   2.104   2.133   5.716  1.2633  0.2731  0.5406
 8951SOL    HW227249   2.089   2.274   5.665 -0.0918 -0.1736 -0.3707
 8952SOL     OW27250   5.682   1.641   0.622  0.3931  0.2652  0.6415
 8952SOL    HW127251   5.688   1.730   0.585 -0.4510  0.5279  1.0936
 8952SOL    HW227252   5.741   1.588   0.568  2.0748  1.3894  1.2834
 8953SOL     OW27253   6.684   6.646   5.780 -0.2207 -0.2128 -0.2843
 8953SOL    HW127254   6.607   6.682   5.736 -0.4582  0.0230  0.2986
 8953SOL    HW227255   6.713   6.575   5.724  0.5910  1.2154 -1.7754
 8954SOL     OW27256   6.886   1.008   0.420 -0.2297 -0.0084  0.1663
 8954SOL    HW127257   6.818   0.943   0.436 -1.8074  1.2773 -0.8936
 8954SOL    HW227258   6.896   1.053   0.504 -2.7852  1.5794 -0.2384
 8955SOL     OW27259   2.934   4.898   5.202 -0.0658 -0.1503  0.0955
 8955SOL    HW127260   3.007   4.961   5.201  0.6111 -0.8776  1.2539
 8955SOL    HW227261   2.957   4.835   5.135  0.5251 -0.5243  0.6389
 8956SOL     OW27262   6.142   1.587   4.742  0.1471 -0.2390 -0.7516
 8956SOL    HW127263   6.139   1.507   4.688 -0.1294 -0.8110  0.0973
 8956SOL    HW227264   6.057   1.589   4.786  0.3429  0.2726 -0.3963
 8957SOL     OW27265   3.970   6.817   6.066  0.0838 -0.3851  0.2381
 8957SOL    HW127266   3.970   6.910   6.044 -0.6701 -0.0227  1.6705
 8957SOL    HW227267   3.896   6.806   6.126 -0.1123 -2.0015 -0.2502
 8958SOL     OW27268   0.150   4.086   1.319  0.5517 -0.0062  0.4147
 8958SOL    HW127269   0.164   4.162   1.262 -2.7786  0.0508 -0.5209
 8958SOL    HW227270   0.170   4.010   1.264  1.3217  0.1348  0.4983
 8959SOL     OW27271   2.714   6.209   1.715  0.2551  0.0363  0.3068
 8959SOL    HW127272   2.683   6.290   1.754  1.8612  0.0051  1.7926
 8959SOL    HW227273   2.679   6.209   1.627 -0.5844  1.8627  0.6035
 8960SOL     OW27274   1.950   0.088   2.057  0.4328  0.4125 -0.2279
 8960SOL    HW127275   2.043   0.072   2.071  0.2280 -0.4717  0.1457
 8960SOL    HW227276   1.940   0.183   2.069  1.0542  0.3270  1.0972
 8961SOL     OW27277   1.345   1.200   0.330  0.2276 -0.4809  0.1926
 8961SOL    HW127278   1.287   1.145   0.381  0.0813 -1.1584 -0.6771
 8961SOL    HW227279   1.287   1.261   0.284  0.2957 -0.3997  0.2138
 8962SOL     OW27280   6.458   3.353   0.000 -0.2409  0.3992  0.0887
 8962SOL    HW127281   6.473   3.264  -0.030 -1.5777 -0.3381  1.4687
 8962SOL    HW227282   6.371   3.375  -0.033 -0.8532  0.3385  1.5800
 8963SOL     OW27283   5.415   6.859   2.063 -0.0144  0.6076 -0.2819
 8963SOL    HW127284   5.452   6.771   2.060 -0.5455  0.3905 -1.4271
 8963SOL    HW227285   5.411   6.881   2.156 -1.2736 -1.2009  0.1556
 8964SOL     OW27286   0.309   5.950   0.756 -0.4847  0.1476 -0.0038
 8964SOL    HW127287   0.371   5.878   0.745 -1.7614 -1.3865  2.0523
 8964SOL    HW227288   0.232   5.923   0.707 -1.1551 -0.1818  1.1946
 8965SOL     OW27289   6.088   4.802   6.602  0.4182 -0.0138  0.8585
 8965SOL    HW127290   6.109   4.872   6.540  0.2612  0.1740  1.0187
 8965SOL    HW227291   6.118   4.722   6.558  0.6294  0.1558  0.6909
 8966SOL     OW27292   5.334   6.453   6.592 -0.3251 -0.0153  0.3385
 8966SOL    HW127293   5.342   6.395   6.516 -0.0100  0.0450  0.3279
 8966SOL    HW227294   5.355   6.540   6.559  0.1389 -0.0405  0.5720
 8967SOL     OW27295   1.697   4.760   0.368 -0.0161 -0.1895 -0.4331
 8967SOL    HW127296   1.684   4.669   0.393 -0.6287 -0.9232 -3.0814
 8967SOL    HW227297   1.612   4.788   0.334 -0.1830  1.8121  1.4387
 8968SOL     OW27298   3.871   5.431   5.398  0.4258 -0.3920 -0.4251
 8968SOL    HW127299   3.848   5.339   5.404  0.6828 -0.5230 -1.2733
 8968SOL    HW227300   3.817   5.465   5.326  1.5827 -0.3107 -1.3060
 8969SOL     OW27301   3.515   1.796   0.385  0.1533 -0.5623  0.5142
 8969SOL    HW127302   3.470   1.730   0.333 -1.2194  1.6251 -1.2886
 8969SOL    HW227303   3.605   1.796   0.353  0.0815 -1.3092  0.3007
 8970SOL     OW27304   6.762   0.293   6.935  0.1095  1.3694  0.5684
 8970SOL    HW127305   6.787   0.381   6.962  1.9577  1.2682 -0.6010
 8970SOL    HW227306   6.840   0.259   6.891 -0.7799 -0.6157  0.4236
 8971SOL     OW27307   6.314   2.907   0.258  0.5081  0.5366  0.5109
 8971SOL    HW127308   6.255   2.964   0.208  0.6193 -0.4865 -0.8421
 8971SOL    HW227309   6.395   2.905   0.207  0.3369 -1.2113  0.2316
 8972SOL     OW27310   3.368   6.468   2.711  0.2353  0.7300 -0.4687
 8972SOL    HW127311   3.304   6.477   2.782 -0.2874  1.4354 -1.0026
 8972SOL    HW227312   3.422   6.394   2.737  0.5771  1.4646  1.0598
 8973SOL     OW27313   1.734   5.614   1.538  1.0054 -0.3784 -0.1166
 8973SOL    HW127314   1.815   5.661   1.521  0.7035  0.4360  0.6089
 8973SOL    HW227315   1.695   5.659   1.613 -0.6410 -0.0926 -1.1013
 8974SOL     OW27316   2.982   4.120   0.417  0.1076  0.3902  0.4370
 8974SOL    HW127317   3.006   4.197   0.469 -0.9921  0.2420  1.2171
 8974SOL    HW227318   2.946   4.058   0.481 -0.5216 -0.1236 -0.3837
 8975SOL     OW27319   1.034   5.041   3.152  0.1729 -0.8086  0.2364
 8975SOL    HW127320   0.990   5.104   3.210  1.0514 -0.4496  0.5270
 8975SOL    HW227321   1.121   5.032   3.189  0.2270 -1.8087 -0.1129
 8976SOL     OW27322   2.989   3.649   1.583 -0.4261 -0.0531  0.2950
 8976SOL    HW127323   3.054   3.717   1.563  1.1862 -1.2518  1.2037
 8976SOL    HW227324   2.970   3.609   1.498  0.0436  0.3085  0.0112
 8977SOL     OW27325   1.321   4.145   0.105 -0.8631  0.1374  0.0719
 8977SOL    HW127326   1.370   4.214   0.149 -2.5743  1.2012  0.3936
 8977SOL    HW227327   1.265   4.108   0.173 -2.4602  0.7868 -0.8408
 8978SOL     OW27328   4.643   1.572   5.632 -1.0300  0.0059 -0.8412
 8978SOL    HW127329   4.593   1.625   5.694 -0.1964 -0.6648  0.4585
 8978SOL    HW227330   4.730   1.612   5.631 -0.8261 -0.4386 -0.9996
 8979SOL     OW27331   3.038   6.789   5.676 -0.1510  0.6328 -0.5149
 8979SOL    HW127332   3.060   6.816   5.587 -1.2038 -1.3617 -1.4591
 8979SOL    HW227333   2.947   6.818   5.687 -0.2736  0.2065 -0.3968
 8980SOL     OW27334   1.298   5.206   3.601 -0.5510 -0.9725 -0.2841
 8980SOL    HW127335   1.259   5.122   3.577 -0.4439 -0.8835 -0.7832
 8980SOL    HW227336   1.243   5.272   3.559  0.8922 -0.8815 -2.1878
 8981SOL     OW27337   4.578   0.911   5.395 -0.2885 -0.2434  0.3913
 8981SOL    HW127338   4.539   0.824   5.386 -0.6965 -0.0414  0.1894
 8981SOL    HW227339   4.503   0.970   5.401 -0.0453  0.3379 -1.6359
 8982SOL     OW27340   3.646   3.778   0.586  0.0228 -0.0995  0.7479
 8982SOL    HW127341   3.596   3.835   0.527 -0.4823 -1.2984 -0.0155
 8982SOL    HW227342   3.588   3.703   0.601  2.3500 -2.7412 -2.0821
 8983SOL     OW27343   2.698   2.287   6.823  0.6200  0.1214 -0.4417
 8983SOL    HW127344   2.717   2.361   6.880 -1.9022  0.0392  0.6589
 8983SOL    HW227345   2.606   2.300   6.798  0.4897 -1.9917 -1.2264
 8984SOL     OW27346   1.692   2.343   0.699 -0.2631 -0.2496 -0.0834
 8984SOL    HW127347   1.787   2.342   0.713 -0.3387  0.1341  0.5082
 8984SOL    HW227348   1.666   2.251   0.705  0.3188 -0.5913 -2.1865
 8985SOL     OW27349   5.947   0.629   3.671  0.3899 -0.0010  0.5094
 8985SOL    HW127350   6.039   0.602   3.674  0.0077 -1.6722 -1.1791
 8985SOL    HW227351   5.897   0.549   3.686 -0.7761  0.1771 -1.9065
 8986SOL     OW27352   5.838   2.394   5.490 -0.2642  0.1758 -0.4822
 8986SOL    HW127353   5.767   2.353   5.540 -0.9391 -0.3106 -1.8006
 8986SOL    HW227354   5.917   2.376   5.542 -0.6634 -2.0100 -0.5342
 8987SOL     OW27355   4.175   0.876   5.955  0.6530 -0.5068  0.1529
 8987SOL    HW127356   4.250   0.831   5.995  0.6186 -1.7953 -1.1236
 8987SOL    HW227357   4.172   0.841   5.865 -0.0160  1.3384 -0.5793
 8988SOL     OW27358   5.187   6.016   5.595  0.1738 -0.0349  0.0770
 8988SOL    HW127359   5.228   6.089   5.549  0.3891 -1.1053 -1.5471
 8988SOL    HW227360   5.235   5.939   5.564 -1.7663 -1.1298 -0.3984
 8989SOL     OW27361   6.204   2.904   1.746  0.0300 -0.3107 -0.2367
 8989SOL    HW127362   6.146   2.959   1.694  1.0748  2.4108  1.2860
 8989SOL    HW227363   6.279   2.887   1.688 -0.8020 -1.1715 -1.1027
 8990SOL     OW27364   0.017   4.424   0.649  0.4188 -0.0573 -0.2912
 8990SOL    HW127365   0.099   4.427   0.700 -0.6897 -0.3130  1.6209
 8990SOL    HW227366   0.028   4.349   0.591  0.4299 -2.0890  2.1268
 8991SOL     OW27367   6.223   2.377   5.148 -0.1160  0.4003  0.5809
 8991SOL    HW127368   6.198   2.422   5.229  1.8328  1.1123  0.8453
 8991SOL    HW227369   6.200   2.286   5.163  0.1081  0.5406  1.9096
 8992SOL     OW27370   3.862   0.704   2.955  0.1998 -0.4836 -0.0738
 8992SOL    HW127371   3.832   0.706   3.045 -0.4903 -0.7793 -0.2976
 8992SOL    HW227372   3.900   0.791   2.941  1.3154 -0.7968  0.8274
 8993SOL     OW27373   4.799   2.710   0.240 -0.2494 -0.4056 -0.4845
 8993SOL    HW127374   4.751   2.784   0.279  0.3555  0.0481 -0.5813
 8993SOL    HW227375   4.765   2.633   0.285  0.2571  0.0840  0.7860
 8994SOL     OW27376   4.164   0.512   5.393  0.0205 -0.2738 -0.1275
 8994SOL    HW127377   4.175   0.514   5.488  1.0581  1.5501 -0.2412
 8994SOL    HW227378   4.237   0.458   5.362  0.3350  0.0411  0.0509
 8995SOL     OW27379   6.448   4.845   1.836 -0.3426  0.1910 -0.0408
 8995SOL    HW127380   6.404   4.877   1.757 -0.7476 -0.0374  0.0883
 8995SOL    HW227381   6.412   4.757   1.849  2.0554 -1.1026 -1.4282
 8996SOL     OW27382   5.322   0.779   6.324 -0.4005  0.5471 -0.0947
 8996SOL    HW127383   5.253   0.727   6.284  0.8022 -0.2503 -1.1837
 8996SOL    HW227384   5.282   0.812   6.406 -2.4732  1.1793 -1.2740
 8997SOL     OW27385   2.865   5.161   3.685  0.1582 -0.3931 -0.3877
 8997SOL    HW127386   2.871   5.083   3.741  0.2193 -0.8728 -1.0455
 8997SOL    HW227387   2.944   5.158   3.631  0.3857  0.3828 -0.0960
 8998SOL     OW27388   4.186   2.284   2.690  0.0193  0.0339  0.0147
 8998SOL    HW127389   4.230   2.314   2.769  1.7801 -1.5749 -0.2863
 8998SOL    HW227390   4.127   2.215   2.722 -0.6531  0.6522  0.1331
 8999SOL     OW27391   6.598   2.053   1.541 -0.0966 -0.3565  0.0551
 8999SOL    HW127392   6.582   2.042   1.447  1.2364 -0.9474 -0.1317
 8999SOL    HW227393   6.637   1.970   1.568  0.8179  0.3027  0.8203
 9000SOL     OW27394   6.747   2.961   5.748  0.2781 -0.0876  0.0053
 9000SOL    HW127395   6.731   3.011   5.828 -0.9115  0.4386 -0.5298
 9000SOL    HW227396   6.716   3.018   5.678 -0.9137 -1.4668 -0.6405
 9001SOL     OW27397   2.560   3.573   6.184 -0.1703 -0.0880 -0.2528
 9001SOL    HW127398   2.511   3.507   6.233  1.1726 -1.5672 -0.8017
 9001SOL    HW227399   2.622   3.609   6.248 -0.7219  0.4827 -0.0234
 9002SOL     OW27400   3.702   3.570   4.013  0.4840 -0.2705 -0.2141
 9002SOL    HW127401   3.676   3.638   4.075 -0.8784 -0.3596 -0.6608
 9002SOL    HW227402   3.620   3.542   3.972  1.3798  0.0310 -2.3185
 9003SOL     OW27403   2.397   3.555   5.764 -0.1949  0.4094 -0.3013
 9003SOL    HW127404   2.318   3.542   5.710  1.2073  0.5284 -2.5074
 9003SOL    HW227405   2.363   3.586   5.848 -2.4384  2.1541 -1.7196
 9004SOL     OW27406   5.703   0.620   1.079  0.4799 -0.5014  0.4087
 9004SOL    HW127407   5.635   0.675   1.040  2.6070  2.8484  1.0292
 9004SOL    HW227408   5.726   0.558   1.009 -1.4127 -0.0532 -0.6815
 9005SOL     OW27409   1.040   4.066   4.453  0.1524  0.3653 -0.0119
 9005SOL    HW127410   1.080   4.148   4.424 -0.3698  0.3385 -0.8304
 9005SOL    HW227411   0.993   4.034   4.376 -1.5263  0.4354  0.9524
 9006SOL     OW27412   3.654   3.725   2.112 -0.0075 -0.1068 -0.2708
 9006SOL    HW127413   3.559   3.735   2.119 -0.1580 -0.5079 -1.5155
 9006SOL    HW227414   3.672   3.731   2.018  1.3221  1.0004  0.0235
 9007SOL     OW27415   4.502   5.518   4.424  0.2168 -0.0421 -0.3800
 9007SOL    HW127416   4.408   5.525   4.413  0.1360  0.8480  0.7481
 9007SOL    HW227417   4.532   5.473   4.345 -0.8910  1.5428 -1.7706
 9008SOL     OW27418   3.666   3.639   3.377 -0.1290  0.2151 -0.1245
 9008SOL    HW127419   3.749   3.599   3.404 -0.2105  1.6494  2.6705
 9008SOL    HW227420   3.664   3.629   3.282  4.6250  2.5001 -0.7604
 9009SOL     OW27421   6.135   4.070   3.235 -0.4015  0.3827 -0.2907
 9009SOL    HW127422   6.161   4.065   3.327 -0.4128 -2.1211 -0.3560
 9009SOL    HW227423   6.154   4.160   3.209 -1.0789  1.3556  2.3358
 9010SOL     OW27424   1.693   3.885   2.866  0.2659 -0.3387 -0.5018
 9010SOL    HW127425   1.779   3.928   2.871  0.5026 -0.9824  1.5487
 9010SOL    HW227426   1.642   3.925   2.936 -1.1159 -0.0418 -1.6277
 9011SOL     OW27427   4.383   2.023   1.813  1.3124 -0.4777  0.0812
 9011SOL    HW127428   4.463   1.987   1.775  1.2955 -0.3216 -0.1022
 9011SOL    HW227429   4.354   2.090   1.751  0.7984 -0.8400 -0.0801
 9012SOL     OW27430   1.055   1.081   3.977 -0.4621 -0.0221  0.1695
 9012SOL    HW127431   1.056   1.116   3.888 -0.4159  0.7172  0.4481
 9012SOL    HW227432   1.107   1.001   3.972 -0.8901 -0.2604 -0.5709
 9013SOL     OW27433   6.417   2.013   6.746 -0.0084 -0.7411 -0.2260
 9013SOL    HW127434   6.420   1.918   6.755  1.3967 -0.6787  0.1006
 9013SOL    HW227435   6.346   2.029   6.683 -1.2825 -1.8973  0.8563
 9014SOL     OW27436   1.645   6.317   4.824 -0.3621 -0.5666 -0.1533
 9014SOL    HW127437   1.616   6.320   4.733  0.2314  1.3232 -0.3205
 9014SOL    HW227438   1.713   6.250   4.826  0.4188  0.1661 -1.3682
 9015SOL     OW27439   4.298   0.910   5.006  0.5673 -0.0939  0.6359
 9015SOL    HW127440   4.293   0.889   5.099 -0.5062  0.3803  0.7005
 9015SOL    HW227441   4.387   0.886   4.981  0.2509 -2.1478  1.3131
 9016SOL     OW27442   0.020   4.884   5.017 -0.1284  0.4159  0.0263
 9016SOL    HW127443  -0.011   4.917   5.101 -0.9667 -0.5799  0.1294
 9016SOL    HW227444   0.049   4.794   5.035 -1.8379 -0.4144 -1.0114
 9017SOL     OW27445   0.431   5.589   2.712 -0.3768 -0.4188 -0.2595
 9017SOL    HW127446   0.496   5.653   2.743 -0.6010  1.1284 -2.7507
 9017SOL    HW227447   0.347   5.627   2.739 -0.4820  0.1169 -1.3049
 9018SOL     OW27448   2.545   1.381   1.929 -0.1108 -0.4081  0.3916
 9018SOL    HW127449   2.623   1.400   1.876  0.3813 -0.3630  1.1100
 9018SOL    HW227450   2.513   1.467   1.954  0.2359 -0.4422  0.9743
 9019SOL     OW27451   6.892   3.512   4.005 -0.8942 -0.2554 -0.1688
 9019SOL    HW127452   6.974   3.554   3.979 -0.4827 -0.8178  0.1774
 9019SOL    HW227453   6.824   3.556   3.954 -0.4682  0.7394  0.1031
 9020SOL     OW27454   1.962   2.615   6.591 -0.4514 -0.5494 -0.2517
 9020SOL    HW127455   1.948   2.698   6.637 -2.3320 -0.7333 -0.4063
 9020SOL    HW227456   1.979   2.551   6.660  0.5199 -0.1567 -0.1028
 9021SOL     OW27457   2.055   5.089   1.289  1.1344  0.3529 -0.3514
 9021SOL    HW127458   2.014   5.108   1.374  2.0714  0.4139  0.0937
 9021SOL    HW227459   2.006   5.143   1.227 -0.1567 -0.3635 -0.0074
 9022SOL     OW27460   4.052   5.368   5.095 -0.1693  0.1783 -0.2821
 9022SOL    HW127461   4.057   5.297   5.158  0.7290  0.4272 -0.0544
 9022SOL    HW227462   3.963   5.363   5.059 -0.7304  0.0992  1.0711
 9023SOL     OW27463   3.445   1.071   1.572 -0.3251  0.0471 -0.5563
 9023SOL    HW127464   3.491   1.016   1.509  0.1220  1.9586 -1.9850
 9023SOL    HW227465   3.502   1.147   1.584 -0.3548 -0.2722  2.2704
 9024SOL     OW27466   3.394   5.759   4.626 -0.1093  0.0170  1.0086
 9024SOL    HW127467   3.439   5.732   4.705 -0.5861  0.3750  1.4111
 9024SOL    HW227468   3.464   5.776   4.563  0.3918  1.4318  1.8928
 9025SOL     OW27469   1.019   1.171   3.731  0.2888 -0.2050  0.4592
 9025SOL    HW127470   0.937   1.140   3.770 -0.4141  1.1534  0.1404
 9025SOL    HW227471   0.996   1.187   3.639  1.3532 -1.3217 -0.0300
 9026SOL     OW27472   2.272   0.977   6.868 -0.1558  0.7474 -0.0028
 9026SOL    HW127473   2.351   0.983   6.815 -0.4629  1.5938 -0.3831
 9026SOL    HW227474   2.215   1.046   6.834 -1.0161  0.2209  0.3361
 9027SOL     OW27475   2.960   4.547   6.842  0.1202  0.0178  0.1918
 9027SOL    HW127476   2.891   4.499   6.888 -0.1377 -1.7376 -1.8476
 9027SOL    HW227477   2.957   4.635   6.880 -1.4778 -0.7154  1.9590
 9028SOL     OW27478   6.504   1.856   3.187 -0.3904 -0.2511  0.1064
 9028SOL    HW127479   6.462   1.927   3.236  1.0704  0.1120  0.8987
 9028SOL    HW227480   6.521   1.893   3.100  0.5192  0.4601  0.5682
 9029SOL     OW27481   3.572   4.023   6.059  0.0678 -0.2167  0.7333
 9029SOL    HW127482   3.629   3.975   6.119  0.0906 -0.6236  0.3991
 9029SOL    HW227483   3.612   4.009   5.973 -1.8899 -2.7064  0.0842
 9030SOL     OW27484   6.020   3.874   6.651 -0.2784  0.2470 -0.1594
 9030SOL    HW127485   6.097   3.844   6.700 -0.5813 -0.3899 -0.0643
 9030SOL    HW227486   5.968   3.795   6.637 -1.1115  0.7327  0.1231
 9031SOL     OW27487   2.397   3.367   3.764 -0.4933  0.0788  0.2975
 9031SOL    HW127488   2.470   3.311   3.740 -0.1487  1.3914 -1.9950
 9031SOL    HW227489   2.431   3.422   3.835 -0.0982 -0.9960  0.9621
 9032SOL     OW27490   4.554   2.697   2.164  0.4500  0.0393 -0.0507
 9032SOL    HW127491   4.474   2.687   2.216  0.3064 -0.6611 -0.4000
 9032SOL    HW227492   4.560   2.791   2.149  0.9005  0.3540  1.8545
 9033SOL     OW27493   6.077   4.574   6.842 -0.2358 -0.1498 -0.5426
 9033SOL    HW127494   6.050   4.560   6.751 -2.6821  0.8133 -0.0427
 9033SOL    HW227495   6.013   4.636   6.877  0.3362 -0.8625  1.9755
 9034SOL     OW27496   5.442   6.409   4.920 -0.3156 -0.2596 -0.0370
 9034SOL    HW127497   5.394   6.402   4.837 -0.1473  1.1391 -0.2845
 9034SOL    HW227498   5.444   6.320   4.955 -2.5500 -0.4649 -0.3208
 9035SOL     OW27499   6.897   0.868   3.492  0.5149 -0.1091  0.5586
 9035SOL    HW127500   6.936   0.945   3.450 -1.1768 -0.9254 -2.8119
 9035SOL    HW227501   6.887   0.894   3.584  2.1200  2.7848  0.0399
 9036SOL     OW27502   2.163   3.430   3.641  0.1412 -0.2321 -0.0240
 9036SOL    HW127503   2.257   3.425   3.661  0.1928 -1.6937 -0.5489
 9036SOL    HW227504   2.123   3.456   3.724  0.8675 -1.1184  0.6237
 9037SOL     OW27505   2.633   3.683   2.305  0.0813 -0.2787  0.8944
 9037SOL    HW127506   2.573   3.687   2.379 -0.6314  1.1079  0.2991
 9037SOL    HW227507   2.629   3.593   2.274 -1.1462 -0.3861  1.3309
 9038SOL     OW27508   5.094   4.447   3.579  0.4067  0.5438 -0.1337
 9038SOL    HW127509   5.056   4.363   3.601 -1.2396  1.2765 -0.0079
 9038SOL    HW227510   5.173   4.426   3.529  0.1839 -1.0543  0.1459
 9039SOL     OW27511   1.088   3.714   3.864 -0.2405 -0.2853 -0.0653
 9039SOL    HW127512   1.077   3.768   3.786 -0.2881 -0.7817 -0.4059
 9039SOL    HW227513   1.168   3.746   3.905  0.9975 -1.4351 -1.4884
 9040SOL     OW27514   3.181   6.946   1.051  0.3440 -0.6068 -0.1771
 9040SOL    HW127515   3.267   6.953   1.010 -0.3404  1.9740 -1.3667
 9040SOL    HW227516   3.183   7.009   1.123 -0.9388  0.5556 -1.0952
 9041SOL     OW27517   1.601   4.679   6.549  0.2600  0.0643 -0.1250
 9041SOL    HW127518   1.515   4.681   6.507 -0.6985  1.6688  1.7680
 9041SOL    HW227519   1.588   4.629   6.629  0.6911  1.4921  0.8758
 9042SOL     OW27520   6.050   5.297   6.286  0.1741 -0.0439  0.2857
 9042SOL    HW127521   5.971   5.248   6.312  1.9810 -1.9619  2.7032
 9042SOL    HW227522   6.066   5.271   6.196 -2.0616  0.6013 -0.3530
 9043SOL     OW27523   5.561   6.136   1.119 -0.5200 -0.2185  0.0220
 9043SOL    HW127524   5.593   6.170   1.203 -0.8786 -1.7503  0.8114
 9043SOL    HW227525   5.496   6.201   1.091  0.0479  0.6290  0.6199
 9044SOL     OW27526   0.287   4.347   2.128 -0.0988 -0.4951  0.4731
 9044SOL    HW127527   0.268   4.390   2.211 -0.1485  0.1487  0.1392
 9044SOL    HW227528   0.382   4.338   2.127  0.2597  2.3529 -0.7217
 9045SOL     OW27529   1.369   0.741   6.507 -0.4966 -0.3668  0.4172
 9045SOL    HW127530   1.332   0.809   6.563  0.6151 -0.2830  1.0684
 9045SOL    HW227531   1.463   0.761   6.503 -0.4175 -0.8679 -0.7850
 9046SOL     OW27532   5.192   1.526   5.509  0.1462 -0.1744 -0.2888
 9046SOL    HW127533   5.288   1.520   5.502  0.2355  0.3262  0.4458
 9046SOL    HW227534   5.171   1.612   5.471  0.0991  0.1817  0.5302
 9047SOL     OW27535   3.701   0.082   3.905 -0.5510 -0.0692 -0.1816
 9047SOL    HW127536   3.784   0.047   3.939 -1.0958 -0.9090  0.3089
 9047SOL    HW227537   3.634   0.046   3.964 -1.3159  0.1745 -0.8893
 9048SOL     OW27538   1.810   0.290   1.105 -0.2070  0.6151 -0.5713
 9048SOL    HW127539   1.758   0.360   1.065  1.4017  2.2337  0.0639
 9048SOL    HW227540   1.777   0.284   1.195 -0.4200  0.4577 -0.6577
 9049SOL     OW27541   4.188   0.998   1.824 -0.0135 -0.5814  0.2341
 9049SOL    HW127542   4.283   0.991   1.822 -0.0494 -1.1506  0.1289
 9049SOL    HW227543   4.157   0.917   1.783 -0.5562 -2.0481  3.2027
 9050SOL     OW27544   2.776   4.671   0.138 -0.0509  0.0507  0.4997
 9050SOL    HW127545   2.699   4.718   0.106 -0.6001 -0.3675  1.1665
 9050SOL    HW227546   2.834   4.740   0.169 -0.5080  0.3435  0.7285
 9051SOL     OW27547   4.480   3.492   4.646  0.0690 -0.0941 -0.0817
 9051SOL    HW127548   4.509   3.497   4.555  3.1651 -0.6910  0.7484
 9051SOL    HW227549   4.508   3.575   4.685 -1.4244  0.2468  0.3323
 9052SOL     OW27550   3.918   0.662   0.176 -0.3115 -0.0787  0.0590
 9052SOL    HW127551   3.940   0.569   0.162  0.4823  0.0739  0.2501
 9052SOL    HW227552   3.890   0.666   0.267 -0.3296 -0.1275  0.0559
 9053SOL     OW27553   3.166   5.207   3.106 -0.8030 -0.4533  0.0411
 9053SOL    HW127554   3.116   5.273   3.153 -1.2102 -1.5656  1.2190
 9053SOL    HW227555   3.139   5.217   3.014  0.6094  2.2936 -0.2039
 9054SOL     OW27556   1.235   5.146   6.651 -0.0631 -0.3443  0.1582
 9054SOL    HW127557   1.283   5.182   6.725  0.8412  0.1911 -0.6578
 9054SOL    HW227558   1.177   5.218   6.623  0.4771 -0.1076 -0.3873
 9055SOL     OW27559   5.687   1.639   5.751  0.0142 -0.5415 -0.0129
 9055SOL    HW127560   5.689   1.641   5.655  1.5652  0.7047  0.0030
 9055SOL    HW227561   5.757   1.578   5.775 -0.1094 -0.5491  0.3338
 9056SOL     OW27562   5.464   6.467   6.857 -0.9379  0.0317  0.1736
 9056SOL    HW127563   5.407   6.508   6.791 -0.8400 -2.1306 -1.3536
 9056SOL    HW227564   5.526   6.536   6.880 -0.3814  0.6440 -2.7416
 9057SOL     OW27565   6.478   6.707   6.047  0.2259  0.2144 -0.2962
 9057SOL    HW127566   6.510   6.619   6.069  1.0453  0.6276  0.2264
 9057SOL    HW227567   6.544   6.742   5.988  0.2799  0.7411  0.0685
 9058SOL     OW27568   3.441   2.518   1.208 -0.2822  0.6539  0.3290
 9058SOL    HW127569   3.454   2.578   1.135 -0.2288 -1.0844 -1.1641
 9058SOL    HW227570   3.529   2.505   1.245 -0.2631  1.2981  0.5223
 9059SOL     OW27571   3.584   4.927   1.638  0.3711 -0.3658 -0.0275
 9059SOL    HW127572   3.607   4.904   1.548  1.8425  2.2468 -0.4262
 9059SOL    HW227573   3.489   4.929   1.639  0.2585 -2.7247 -0.8385
 9060SOL     OW27574   3.383   3.993   3.014 -0.7507  0.0723 -0.0958
 9060SOL    HW127575   3.331   3.941   3.074  0.4391 -0.3986  0.5551
 9060SOL    HW227576   3.319   4.050   2.970 -1.5042  1.4702  2.6229
 9061SOL     OW27577   0.698   1.307   0.188  0.5710  0.1224  0.0476
 9061SOL    HW127578   0.619   1.278   0.143  0.9809 -0.6496 -0.1875
 9061SOL    HW227579   0.677   1.396   0.218 -0.4628 -0.1621  0.2012
 9062SOL     OW27580   4.708   1.371   6.295 -0.2162 -0.0025 -0.7800
 9062SOL    HW127581   4.644   1.403   6.231 -1.9760  2.3925  1.8916
 9062SOL    HW227582   4.678   1.283   6.315 -1.1927  0.1583 -1.4031
 9063SOL     OW27583   3.812   4.597   3.474 -0.8400  0.2950 -0.3550
 9063SOL    HW127584   3.861   4.518   3.498 -0.7307  0.3751 -0.3135
 9063SOL    HW227585   3.851   4.626   3.392  1.2699  2.0884  1.1648
 9064SOL     OW27586   5.221   2.125   5.982 -0.0610 -0.5325  0.0572
 9064SOL    HW127587   5.202   2.215   6.009  1.7478 -0.3217  0.7554
 9064SOL    HW227588   5.186   2.118   5.893 -1.3943  0.4286  0.4776
 9065SOL     OW27589   4.070   3.226   4.467 -0.3842 -0.0032  0.2133
 9065SOL    HW127590   4.153   3.207   4.510 -0.5507 -0.9154  0.1519
 9065SOL    HW227591   4.076   3.318   4.442 -0.2286  0.5098  2.0410
 9066SOL     OW27592   1.256   3.494   0.306 -0.4688  0.0986 -0.1898
 9066SOL    HW127593   1.240   3.402   0.286  0.4143 -0.1366  0.1602
 9066SOL    HW227594   1.268   3.536   0.221 -0.2844 -0.2168 -0.3179
 9067SOL     OW27595   6.548   6.788   2.698 -0.2855  0.2887  0.0539
 9067SOL    HW127596   6.565   6.709   2.749  0.6145  0.4646  0.0511
 9067SOL    HW227597   6.606   6.854   2.736  0.8865  0.2563 -1.5751
 9068SOL     OW27598   0.730   1.346   4.031 -1.3403 -0.0710  0.2721
 9068SOL    HW127599   0.781   1.271   4.061 -2.1301 -0.4642  0.6860
 9068SOL    HW227600   0.750   1.353   3.938  0.3754  0.5315  0.6530
 9069SOL     OW27601   6.919   1.234   3.519  0.1084 -0.4658  0.1956
 9069SOL    HW127602   6.846   1.199   3.468 -0.5643  0.4476  0.5050
 9069SOL    HW227603   6.981   1.267   3.453  0.6752 -2.0411 -0.0910
 9070SOL     OW27604   3.287   6.467   3.680 -0.2626 -0.2085 -0.1741
 9070SOL    HW127605   3.230   6.471   3.757 -1.0435 -0.7783 -0.7048
 9070SOL    HW227606   3.366   6.422   3.710  0.4268  1.5765  0.8653
 9071SOL     OW27607   6.528   3.981   0.320  0.4364 -0.9062 -0.0949
 9071SOL    HW127608   6.444   3.935   0.315 -0.5120  0.7244 -0.0141
 9071SOL    HW227609   6.519   4.053   0.257  1.9134 -0.8965 -0.3199
 9072SOL     OW27610   1.588   5.302   1.950 -0.1379 -0.3907 -0.2296
 9072SOL    HW127611   1.510   5.358   1.957 -0.2122 -0.5484  0.2514
 9072SOL    HW227612   1.657   5.351   1.995  0.2005  0.0153 -1.1647
 9073SOL     OW27613   3.095   0.534   2.923 -0.2649 -0.0764 -0.3764
 9073SOL    HW127614   3.119   0.604   2.983  0.7032 -0.2222 -0.5757
 9073SOL    HW227615   3.120   0.568   2.836  0.0641 -0.5931 -0.4904
 9074SOL     OW27616   4.451   1.397   1.680  0.1239 -0.2409  0.0189
 9074SOL    HW127617   4.534   1.391   1.633  0.7888 -0.4985  1.1772
 9074SOL    HW227618   4.388   1.351   1.624  0.7823 -0.1423 -0.8189
 9075SOL     OW27619   4.705   1.779   2.459 -0.7253 -0.1106 -0.2507
 9075SOL    HW127620   4.704   1.722   2.536 -1.5341  1.5498  1.0308
 9075SOL    HW227621   4.757   1.855   2.486 -3.5249  1.9166 -0.1928
 9076SOL     OW27622   3.836   3.624   5.397  0.1829 -0.1007  0.2099
 9076SOL    HW127623   3.816   3.604   5.306 -0.5813 -0.9351  0.5385
 9076SOL    HW227624   3.771   3.688   5.423  0.4458  0.1924  0.1572
 9077SOL     OW27625   6.093   0.455   5.018 -0.1695  0.9222 -0.1659
 9077SOL    HW127626   6.083   0.439   5.112 -1.8457 -0.7026 -0.5578
 9077SOL    HW227627   6.009   0.428   4.981  0.2396  2.1122 -2.0780
 9078SOL     OW27628   2.145   3.497   5.855 -0.3261 -0.0230 -0.0311
 9078SOL    HW127629   2.078   3.489   5.787  0.7409 -0.7992 -1.0328
 9078SOL    HW227630   2.150   3.410   5.894 -0.0077  0.0730  0.1459
 9079SOL     OW27631   0.831   4.511   3.515 -0.1261  0.4206 -0.6867
 9079SOL    HW127632   0.876   4.427   3.517 -3.2336 -1.3825 -0.8499
 9079SOL    HW227633   0.808   4.528   3.607 -0.2643  0.6769 -0.7689
 9080SOL     OW27634   0.367   3.293   6.607  0.2704  0.4539 -0.5038
 9080SOL    HW127635   0.275   3.321   6.600 -0.1994 -0.5344  1.3324
 9080SOL    HW227636   0.413   3.370   6.640  0.3410  1.2854 -2.4006
 9081SOL     OW27637   4.086   2.080   4.204  0.0945  0.3945 -0.2154
 9081SOL    HW127638   4.040   2.156   4.171  1.4319  1.4645  0.2818
 9081SOL    HW227639   4.120   2.107   4.290 -0.5784 -1.2256  0.6166
 9082SOL     OW27640   3.779   5.143   1.183  0.1285  0.0956  0.8344
 9082SOL    HW127641   3.795   5.235   1.159  1.6335 -0.1430  0.8203
 9082SOL    HW227642   3.811   5.137   1.274  0.1712 -0.4401  0.7828
 9083SOL     OW27643   0.481   4.349   5.625  0.0576 -0.1426 -0.1439
 9083SOL    HW127644   0.463   4.280   5.690 -1.5065 -0.9441 -1.3635
 9083SOL    HW227645   0.498   4.427   5.678 -0.0897 -1.0054  1.2482
 9084SOL     OW27646   1.996   1.448   3.186  0.1144  0.2591 -0.1739
 9084SOL    HW127647   1.969   1.367   3.142 -0.2633 -0.7600  1.8093
 9084SOL    HW227648   2.092   1.445   3.186  0.1171 -0.9024  1.0139
 9085SOL     OW27649   0.664   6.473   5.742  0.5360 -0.1119 -0.5467
 9085SOL    HW127650   0.737   6.419   5.712 -0.8506 -0.8844 -2.8026
 9085SOL    HW227651   0.586   6.425   5.716 -0.7870  1.4784  0.2729
 9086SOL     OW27652   3.628   2.820   4.474 -0.3937 -0.3622 -0.0032
 9086SOL    HW127653   3.648   2.905   4.513 -1.3041  0.8981 -2.1271
 9086SOL    HW227654   3.548   2.792   4.519 -0.1190 -0.1004  0.6735
 9087SOL     OW27655   4.427   4.463   3.569  0.6439 -0.5276  0.4523
 9087SOL    HW127656   4.468   4.431   3.650  2.8109  1.4798  0.2464
 9087SOL    HW227657   4.361   4.525   3.599  1.6174  0.4090  0.7296
 9088SOL     OW27658   4.830   1.075   3.086 -0.2279 -0.0330 -0.0338
 9088SOL    HW127659   4.768   1.084   3.014  1.3971  0.0534 -1.4908
 9088SOL    HW227660   4.902   1.023   3.050  0.7756  0.2656  1.4367
 9089SOL     OW27661   5.564   0.921   0.044  0.0328  0.1185 -0.8401
 9089SOL    HW127662   5.591   1.006   0.007  1.4674  1.1960  2.3125
 9089SOL    HW227663   5.640   0.865   0.032  0.5683  0.5244  0.4995
 9090SOL     OW27664   1.157   2.827   4.543  0.4364 -0.6089 -0.6561
 9090SOL    HW127665   1.078   2.855   4.589  0.9762 -1.2055  0.6661
 9090SOL    HW227666   1.222   2.894   4.565  0.8147 -1.1217 -0.1939
 9091SOL     OW27667   1.563   5.669   4.344  0.2443 -0.0706 -0.2362
 9091SOL    HW127668   1.580   5.593   4.289  1.0720 -1.2787  1.5719
 9091SOL    HW227669   1.519   5.634   4.421 -0.4851  1.4781  0.0951
 9092SOL     OW27670   3.605   3.073   2.000 -0.2678  0.2940 -0.6524
 9092SOL    HW127671   3.693   3.050   2.030 -1.5264 -1.6923  1.9969
 9092SOL    HW227672   3.605   3.053   1.907  1.4561 -1.9471 -0.2532
 9093SOL     OW27673   6.290   6.631   3.808 -0.6428  0.4104 -0.0307
 9093SOL    HW127674   6.295   6.569   3.735 -1.6869  0.5014 -0.1994
 9093SOL    HW227675   6.339   6.588   3.879 -0.0712  0.0841 -0.6104
 9094SOL     OW27676   2.487   0.381   0.622 -0.1086  0.0840  0.9772
 9094SOL    HW127677   2.456   0.403   0.534 -1.8962 -0.2127  1.5138
 9094SOL    HW227678   2.426   0.315   0.654  2.8810 -3.0217  0.8825
 9095SOL     OW27679   0.040   2.440   6.243 -0.5375 -0.0954 -0.2134
 9095SOL    HW127680   0.109   2.387   6.203  0.3226  0.9780 -0.2168
 9095SOL    HW227681   0.038   2.412   6.334 -0.9758 -1.0074 -0.4919
 9096SOL     OW27682   6.187   1.467   5.955 -0.6740 -0.1990 -0.3971
 9096SOL    HW127683   6.119   1.466   6.023 -0.4707 -1.2452 -0.1856
 9096SOL    HW227684   6.262   1.508   5.997 -0.4980 -0.9845  0.0841
 9097SOL     OW27685   1.116   0.111   2.090 -0.1352  0.6818 -0.1711
 9097SOL    HW127686   1.036   0.154   2.061  0.1892  0.0382 -2.1378
 9097SOL    HW227687   1.155   0.075   2.011  1.5479  0.0189  0.8912
 9098SOL     OW27688   2.188   1.414   6.443  0.0052  0.6262  0.1843
 9098SOL    HW127689   2.128   1.466   6.390 -0.4572  0.2660  0.3395
 9098SOL    HW227690   2.251   1.378   6.381  0.4124  1.4717  0.0950
 9099SOL     OW27691   1.852   6.606   3.821 -0.0385  0.0424 -0.6328
 9099SOL    HW127692   1.788   6.676   3.832 -1.2023 -1.0179 -0.4185
 9099SOL    HW227693   1.894   6.624   3.737  0.0060  1.2406 -0.3607
 9100SOL     OW27694   3.324   0.610   1.972 -0.2683  0.5892  0.3715
 9100SOL    HW127695   3.299   0.651   2.055 -1.0367 -0.6103  0.7667
 9100SOL    HW227696   3.275   0.527   1.971  2.3613 -1.1022  0.3837
 9101SOL     OW27697   4.971   4.412   4.979 -0.0740 -0.5394 -0.2862
 9101SOL    HW127698   5.022   4.335   5.004  0.4602  0.1096  0.6946
 9101SOL    HW227699   4.963   4.405   4.884  0.5093 -1.4735 -0.2848
 9102SOL     OW27700   6.032   1.848   5.919 -0.4126 -0.1304  0.3104
 9102SOL    HW127701   6.114   1.808   5.948  0.6519  0.7408 -1.3392
 9102SOL    HW227702   5.999   1.894   5.996  0.6705 -0.4838  1.0067
 9103SOL     OW27703   1.015   0.328   6.336  0.4747  0.7659 -0.2462
 9103SOL    HW127704   1.035   0.244   6.378 -3.2452 -0.7700 -1.0633
 9103SOL    HW227705   1.079   0.335   6.265  0.8170 -1.4885 -0.2469
 9104SOL     OW27706   1.949   6.171   6.849 -0.2909  0.2872  0.4456
 9104SOL    HW127707   1.895   6.196   6.773  0.8698  0.7532 -0.2552
 9104SOL    HW227708   1.903   6.096   6.887 -0.5547 -0.4030 -1.1259
 9105SOL     OW27709   5.788   4.596   3.837 -0.0289 -0.3869  0.2951
 9105SOL    HW127710   5.846   4.567   3.908  0.0531 -1.1258 -0.0632
 9105SOL    HW227711   5.733   4.663   3.877 -0.2444 -1.0647  1.1715
 9106SOL     OW27712   4.595   0.030   5.865 -0.1083 -0.2585  0.0226
 9106SOL    HW127713   4.608  -0.015   5.948 -0.2121  2.0815  1.3870
 9106SOL    HW227714   4.680   0.072   5.848  0.4128 -1.9052 -1.9022
 9107SOL     OW27715   1.156   5.586   4.370 -0.0064 -0.0400 -0.1250
 9107SOL    HW127716   1.232   5.527   4.367  0.2443  0.2431  0.5484
 9107SOL    HW227717   1.096   5.544   4.432  0.3049  0.5645  0.5922
 9108SOL     OW27718   5.627   2.610   5.458 -0.1821  0.0036 -0.0541
 9108SOL    HW127719   5.691   2.538   5.453 -0.7736 -0.4484 -3.4053
 9108SOL    HW227720   5.681   2.689   5.465  0.5543 -0.6070  1.5500
 9109SOL     OW27721   4.610   2.941   4.994  0.2641  0.8411 -0.3911
 9109SOL    HW127722   4.552   2.869   5.020  2.6031 -0.6722  0.9395
 9109SOL    HW227723   4.636   2.982   5.076  0.7932  1.7389 -0.9874
 9110SOL     OW27724   2.351   5.055   2.175  0.5227 -0.1331  0.5271
 9110SOL    HW127725   2.389   5.019   2.095 -0.0505 -0.7186  0.5148
 9110SOL    HW227726   2.290   4.988   2.205 -0.5465  0.7985  0.5154
 9111SOL     OW27727   6.100   2.692   2.870  0.4285 -0.4149  0.0139
 9111SOL    HW127728   6.020   2.738   2.895  0.6248  0.8817 -1.6347
 9111SOL    HW227729   6.171   2.750   2.897  0.7606 -0.8296  0.0430
 9112SOL     OW27730   0.801   6.377   0.330 -0.4458 -0.7633  0.0313
 9112SOL    HW127731   0.847   6.373   0.246 -1.2043  2.7770 -0.7189
 9112SOL    HW227732   0.711   6.401   0.308 -1.0007 -1.0217  1.8140
 9113SOL     OW27733   4.933   5.815   0.191  0.6623 -0.6798 -0.4563
 9113SOL    HW127734   4.913   5.855   0.276  1.3948 -0.5610 -0.3387
 9113SOL    HW227735   4.879   5.864   0.128 -1.8177 -2.3458  0.2102
 9114SOL     OW27736   2.828   2.388   1.933 -0.3190  0.2731  0.1955
 9114SOL    HW127737   2.850   2.384   2.026 -0.7032  0.1457  0.2869
 9114SOL    HW227738   2.751   2.332   1.925 -1.5773  1.9133  0.1877
 9115SOL     OW27739   0.980   1.717   0.533  0.0069 -0.7993  0.0067
 9115SOL    HW127740   0.904   1.763   0.570  0.8795 -0.7826  1.9227
 9115SOL    HW227741   1.043   1.713   0.605  1.9052 -0.7034 -1.5583
 9116SOL     OW27742   6.151   0.430   2.458 -0.1501 -0.3688 -0.1283
 9116SOL    HW127743   6.056   0.428   2.467 -0.2816  1.5106 -0.7614
 9116SOL    HW227744   6.180   0.494   2.523  0.5333  0.2545 -1.0323
 9117SOL     OW27745   5.867   3.427   3.980 -0.5056 -0.1517 -0.0683
 9117SOL    HW127746   5.862   3.433   4.076  0.3982 -0.6684  0.0186
 9117SOL    HW227747   5.911   3.507   3.953 -1.6314  0.4621 -0.1481
 9118SOL     OW27748   2.552   2.824   2.703  0.2365 -0.5197  0.6677
 9118SOL    HW127749   2.614   2.754   2.685  2.7471  1.1944  1.9299
 9118SOL    HW227750   2.543   2.870   2.620  0.2599 -1.0663  0.3572
 9119SOL     OW27751   4.731   3.123   2.482 -0.2613  0.1890 -0.0979
 9119SOL    HW127752   4.796   3.179   2.439 -0.5410  0.9589  0.4482
 9119SOL    HW227753   4.716   3.051   2.421  0.4744  0.4577 -0.5996
 9120SOL     OW27754   4.131   2.086   1.984 -0.5845 -0.5848  0.1977
 9120SOL    HW127755   4.036   2.084   1.968 -0.5474  1.5425 -0.7159
 9120SOL    HW227756   4.156   2.177   1.964  1.9072 -1.4800 -1.2245
 9121SOL     OW27757   1.892   3.780   4.794 -0.8442  0.2476  0.2068
 9121SOL    HW127758   1.865   3.746   4.709 -1.7929  1.2594  0.0721
 9121SOL    HW227759   1.855   3.719   4.857 -1.4447  0.3096 -0.0724
 9122SOL     OW27760   6.099   5.380   2.014 -0.5273 -0.7435  0.0678
 9122SOL    HW127761   6.010   5.381   2.049 -1.0699  0.6341 -1.2361
 9122SOL    HW227762   6.091   5.337   1.929  0.4578 -2.4573  0.7837
 9123SOL     OW27763   4.799   6.731   2.911 -0.0017 -0.4101 -0.0867
 9123SOL    HW127764   4.778   6.638   2.912 -1.7665 -0.0560  0.1872
 9123SOL    HW227765   4.714   6.774   2.917  0.6906  1.2372 -1.4159
 9124SOL     OW27766   3.400   4.261   4.875 -0.3048  0.2947  0.2751
 9124SOL    HW127767   3.460   4.307   4.934  0.8033 -0.7277 -0.0006
 9124SOL    HW227768   3.370   4.186   4.926  0.7572 -0.6646 -0.4555
 9125SOL     OW27769   5.931   6.602   2.136 -0.5313  0.1551  0.1168
 9125SOL    HW127770   5.977   6.570   2.214  0.0860  1.2415  0.2196
 9125SOL    HW227771   5.895   6.686   2.162 -1.8601 -0.2724 -0.2428
 9126SOL     OW27772   0.225   2.866   1.260 -0.0836  0.5550  0.0357
 9126SOL    HW127773   0.223   2.853   1.165  1.3200 -0.2595  0.0846
 9126SOL    HW227774   0.234   2.960   1.271 -1.6695  0.8179 -0.5816
 9127SOL     OW27775   5.323   0.889   1.317 -0.0633  0.5859 -0.7126
 9127SOL    HW127776   5.264   0.940   1.262  0.2609  0.5762 -1.0762
 9127SOL    HW227777   5.327   0.803   1.275 -0.0718  0.4728 -0.4865
 9128SOL     OW27778   6.174   1.986   4.131  0.0785 -0.0898 -0.1788
 9128SOL    HW127779   6.167   2.048   4.059 -0.2586  0.6028  0.4277
 9128SOL    HW227780   6.234   1.918   4.100  0.0596  0.2804 -1.0381
 9129SOL     OW27781   3.536   6.051   3.433 -0.2397  1.0038  0.3763
 9129SOL    HW127782   3.556   5.957   3.437 -0.2804  1.0256  1.4375
 9129SOL    HW227783   3.548   6.075   3.341 -1.1944 -0.2537 -0.1049
 9130SOL     OW27784   6.642   3.491   1.448  0.0991 -0.1919  0.2966
 9130SOL    HW127785   6.562   3.461   1.493  0.9867 -1.2922  1.1965
 9130SOL    HW227786   6.661   3.576   1.486  1.4937 -1.5763  3.0275
 9131SOL     OW27787   1.159   1.589   0.048  0.4914 -0.4513 -0.5543
 9131SOL    HW127788   1.196   1.526   0.110 -0.2416 -0.9434 -0.6005
 9131SOL    HW227789   1.158   1.542  -0.036 -2.6254 -1.4641 -0.0714
 9132SOL     OW27790   6.521   5.928   6.158  0.2099 -0.6274 -0.7066
 9132SOL    HW127791   6.532   5.941   6.064 -0.0133 -1.2243 -0.8189
 9132SOL    HW227792   6.572   5.999   6.198 -1.3630  0.8770 -1.2717
 9133SOL     OW27793   2.380   2.861   6.335 -0.7703  0.2043 -0.2117
 9133SOL    HW127794   2.357   2.841   6.245  1.2627 -1.5570 -0.4318
 9133SOL    HW227795   2.357   2.782   6.384 -1.4814  0.9883  0.7608
 9134SOL     OW27796   5.346   6.714   1.696 -0.0950  0.5331 -0.4959
 9134SOL    HW127797   5.251   6.724   1.690 -0.0944  0.6584 -0.3163
 9134SOL    HW227798   5.380   6.755   1.616 -0.3829 -2.6078 -2.4054
 9135SOL     OW27799   1.436   0.357   6.290 -0.0553  0.2481  0.2665
 9135SOL    HW127800   1.394   0.280   6.252 -0.8613  0.1377  1.3245
 9135SOL    HW227801   1.371   0.427   6.281  0.7413  0.8813 -0.8604
 9136SOL     OW27802   2.723   0.866   0.787  0.1454  0.2384  0.4664
 9136SOL    HW127803   2.706   0.825   0.871  0.1579 -0.4531  0.1440
 9136SOL    HW227804   2.801   0.821   0.754  0.8742  1.3442  0.6210
 9137SOL     OW27805   0.725   4.716   1.963  0.2939 -0.1686  0.1771
 9137SOL    HW127806   0.772   4.748   2.040 -0.7754  0.0782  0.7426
 9137SOL    HW227807   0.754   4.626   1.954 -0.2298 -0.4821  1.4099
 9138SOL     OW27808   0.389   2.710   0.470  0.2077  0.0366  0.1875
 9138SOL    HW127809   0.299   2.688   0.444  1.0241 -1.8376 -1.3028
 9138SOL    HW227810   0.429   2.743   0.390  1.1288 -0.1286  0.5749
 9139SOL     OW27811   4.525   1.964   6.228 -0.3150 -0.1632 -0.7275
 9139SOL    HW127812   4.556   1.910   6.155  1.3345  0.1743 -0.3008
 9139SOL    HW227813   4.512   2.051   6.189  1.0536  0.1427 -0.5360
 9140SOL     OW27814   6.577   1.494   5.361  0.4528  0.0027 -0.2678
 9140SOL    HW127815   6.633   1.466   5.433  0.6627  1.2825  0.0900
 9140SOL    HW227816   6.613   1.450   5.284  0.9961 -0.3863  0.2012
 9141SOL     OW27817   2.545   6.724   1.389  0.0584  0.0430  0.2987
 9141SOL    HW127818   2.613   6.768   1.441  0.3577  2.0617 -1.6504
 9141SOL    HW227819   2.569   6.631   1.392  1.9422  0.5006  1.0175
 9142SOL     OW27820   6.449   2.867   6.519  0.1272 -0.2680  0.2908
 9142SOL    HW127821   6.380   2.890   6.582 -1.0218 -3.0868  0.1817
 9142SOL    HW227822   6.451   2.941   6.458 -2.9045 -0.1364  0.2267
 9143SOL     OW27823   0.687   0.418   1.617  0.1572 -0.0708  0.5130
 9143SOL    HW127824   0.632   0.484   1.659  0.1940 -0.5135  1.2637
 9143SOL    HW227825   0.715   0.459   1.535 -0.2935  0.6219  0.6992
 9144SOL     OW27826   6.132   2.084   5.725  0.2790  0.5425  0.9943
 9144SOL    HW127827   6.086   2.006   5.757  0.0044  1.1510  2.1076
 9144SOL    HW227828   6.218   2.079   5.766  0.7675  0.1135 -0.0369
 9145SOL     OW27829   5.591   4.648   5.939  0.7047  0.5006  0.5223
 9145SOL    HW127830   5.573   4.682   6.026 -1.6124 -1.7243  1.0315
 9145SOL    HW227831   5.655   4.578   5.954  3.9598  3.0245 -0.2854
 9146SOL     OW27832   3.905   3.142   6.885  0.0268  0.4165 -0.0467
 9146SOL    HW127833   3.932   3.165   6.797 -2.8708  0.0987 -1.1100
 9146SOL    HW227834   3.830   3.198   6.903 -1.6975 -1.9642  0.7434
 9147SOL     OW27835   4.072   5.522   0.328 -0.6423 -0.8189  0.1614
 9147SOL    HW127836   3.977   5.513   0.323 -0.6158 -0.6408 -1.4756
 9147SOL    HW227837   4.106   5.434   0.314 -0.5620 -0.9163  0.9430
 9148SOL     OW27838   0.151   0.914   5.432  0.1868  0.5944 -0.1134
 9148SOL    HW127839   0.059   0.913   5.459  0.0796  1.7493 -0.3886
 9148SOL    HW227840   0.150   0.952   5.344  1.1030  2.4859  0.6461
 9149SOL     OW27841   0.554   0.053   3.701 -0.3863  0.5620 -0.2791
 9149SOL    HW127842   0.541   0.021   3.612 -1.1659  0.4445 -0.1340
 9149SOL    HW227843   0.466   0.055   3.739 -0.1858  1.5174  0.1789
 9150SOL     OW27844   3.700   2.572   2.243  0.0938 -0.1758  0.7010
 9150SOL    HW127845   3.783   2.556   2.199  1.0765  1.0806  2.0055
 9150SOL    HW227846   3.661   2.645   2.195 -0.5284 -1.0711 -0.2081
 9151SOL     OW27847   6.924   4.276   4.088  0.0960  0.1053  0.1817
 9151SOL    HW127848   6.960   4.358   4.054 -0.4787  0.6510  0.8690
 9151SOL    HW227849   6.906   4.224   4.010  0.8007  0.4818 -0.2458
 9152SOL     OW27850   3.701   6.542   3.873  0.3607  0.0397  0.3799
 9152SOL    HW127851   3.671   6.453   3.851 -1.4823  0.6475  0.2216
 9152SOL    HW227852   3.704   6.587   3.789  0.9805  0.2254  0.4975
 9153SOL     OW27853   5.094   4.474   6.897 -0.2124  0.6762 -0.5067
 9153SOL    HW127854   5.177   4.460   6.852  0.3926  0.5748  0.5873
 9153SOL    HW227855   5.114   4.540   6.964 -1.1177  0.9632 -0.5119
 9154SOL     OW27856   6.197   0.409   4.357 -0.2980 -0.2397 -0.4351
 9154SOL    HW127857   6.249   0.426   4.279 -0.1398  0.5768 -0.1607
 9154SOL    HW227858   6.126   0.352   4.327  0.1952 -0.5630 -1.0074
 9155SOL     OW27859   4.737   1.095   1.279 -1.2754 -0.0400  0.1877
 9155SOL    HW127860   4.757   1.186   1.301 -0.7370 -0.2240  0.4955
 9155SOL    HW227861   4.668   1.100   1.213 -0.2967  0.6387 -0.8114
 9156SOL     OW27862   4.592   4.794   3.149  0.2953 -0.6511 -0.3272
 9156SOL    HW127863   4.564   4.741   3.223 -0.3049  0.3435  0.1829
 9156SOL    HW227864   4.685   4.811   3.165  0.0891 -0.1592  0.3850
 9157SOL     OW27865   5.755   1.867   2.363 -0.6860  0.2272 -0.0626
 9157SOL    HW127866   5.817   1.932   2.398  1.5916 -1.0133 -1.5198
 9157SOL    HW227867   5.738   1.896   2.273 -0.2775 -0.7113 -0.4607
 9158SOL     OW27868   5.306   0.379   6.862 -0.0231 -0.6123 -0.4434
 9158SOL    HW127869   5.302   0.285   6.882  2.2481 -0.3824  1.6897
 9158SOL    HW227870   5.343   0.418   6.942  0.2191  1.9270 -1.7138
 9159SOL     OW27871   0.474   0.829   2.220  0.0803  0.0454 -0.0665
 9159SOL    HW127872   0.538   0.773   2.176 -0.2515 -0.8755  0.5934
 9159SOL    HW227873   0.400   0.833   2.159  0.9270  1.5681 -1.0885
 9160SOL     OW27874   0.982   0.525   5.928  0.2218  0.0591 -0.4290
 9160SOL    HW127875   0.939   0.596   5.975 -1.6580 -1.2881 -0.0276
 9160SOL    HW227876   1.001   0.561   5.842 -0.1832  1.2051 -0.0541
 9161SOL     OW27877   1.505   3.623   1.751  0.0940 -0.0075  0.0016
 9161SOL    HW127878   1.565   3.638   1.823  0.6316 -0.3661 -0.3611
 9161SOL    HW227879   1.480   3.710   1.721 -1.9161  0.1949  2.0509
 9162SOL     OW27880   6.562   2.341   1.951 -0.6545  0.1556 -0.5252
 9162SOL    HW127881   6.473   2.374   1.935  0.1057  2.3009 -0.6614
 9162SOL    HW227882   6.611   2.363   1.872 -0.2396 -2.1548 -0.9856
 9163SOL     OW27883   6.830   5.222   3.515  0.5041 -0.4517  0.2717
 9163SOL    HW127884   6.761   5.156   3.517  0.3422 -0.2930 -0.0218
 9163SOL    HW227885   6.891   5.196   3.584  1.3086 -1.8447 -0.9088
 9164SOL     OW27886   4.422   6.009   2.029  0.4193  0.1524  0.2726
 9164SOL    HW127887   4.390   5.934   2.079  1.1784  0.2597  0.9428
 9164SOL    HW227888   4.517   6.009   2.043  0.6018  0.4252 -0.8552
 9165SOL     OW27889   5.416   4.450   2.160 -0.3931  0.0724  0.2282
 9165SOL    HW127890   5.407   4.408   2.246 -0.3257  0.6895  0.5401
 9165SOL    HW227891   5.414   4.544   2.179 -0.9997  0.2144 -0.5117
 9166SOL     OW27892   2.218   0.466   0.923 -0.2540 -0.8507  0.2335
 9166SOL    HW127893   2.247   0.460   1.014 -0.2851 -0.0278  0.3026
 9166SOL    HW227894   2.134   0.512   0.928  0.1360 -0.0600 -0.2749
 9167SOL     OW27895   2.118   1.043   4.085 -0.8278 -0.3477 -0.7052
 9167SOL    HW127896   2.163   1.055   4.169 -1.8090  1.6885 -0.4062
 9167SOL    HW227897   2.179   1.076   4.020 -0.8587 -0.0129 -0.5677
 9168SOL     OW27898   6.916   5.909   2.676 -0.2632  0.3216  0.1992
 9168SOL    HW127899   6.902   5.999   2.707  3.9315  0.8127  1.3251
 9168SOL    HW227900   6.964   5.919   2.594  0.2275 -0.8610  0.3166
 9169SOL     OW27901   6.887   1.611   2.833  0.4375  0.4461  0.1623
 9169SOL    HW127902   6.943   1.682   2.801  0.4975  0.5810  0.5622
 9169SOL    HW227903   6.802   1.652   2.845 -0.6887 -0.4399 -3.5248
 9170SOL     OW27904   3.776   1.202   0.197  0.2359 -0.3308  0.6588
 9170SOL    HW127905   3.758   1.237   0.284 -0.9419  0.9961 -0.0865
 9170SOL    HW227906   3.791   1.109   0.211  0.3059 -0.0941  2.3014
 9171SOL     OW27907   2.997   3.475   4.484 -0.2445  0.6336  0.7816
 9171SOL    HW127908   3.001   3.430   4.569  0.0702 -1.0345 -0.0640
 9171SOL    HW227909   3.080   3.522   4.479  1.1531 -1.7082  0.1855
 9172SOL     OW27910   3.161   4.817   3.785  0.2283 -1.2632  0.3739
 9172SOL    HW127911   3.190   4.727   3.773 -0.6079 -1.7015  1.4303
 9172SOL    HW227912   3.223   4.855   3.848  0.3067 -1.2454  0.2861
 9173SOL     OW27913   5.155   1.842   3.612  0.3219 -0.0079 -0.3152
 9173SOL    HW127914   5.228   1.904   3.617 -0.0021  0.3916 -0.4813
 9173SOL    HW227915   5.157   1.811   3.521 -0.8135  1.3710 -0.8498
 9174SOL     OW27916   6.098   3.492   0.223  0.4864  0.5239 -0.2933
 9174SOL    HW127917   6.176   3.474   0.276 -0.2535  2.2984  1.5635
 9174SOL    HW227918   6.039   3.420   0.243 -0.1207  1.6047  2.1214
 9175SOL     OW27919   0.760   3.416   5.549 -0.0326  0.0445 -0.1202
 9175SOL    HW127920   0.801   3.465   5.620 -1.5067  0.4329  0.4975
 9175SOL    HW227921   0.735   3.483   5.485 -0.5596 -0.0796 -0.0472
 9176SOL     OW27922   3.385   4.250   6.510 -0.1509 -0.0914  0.1285
 9176SOL    HW127923   3.464   4.261   6.458  0.9769  0.1716  1.8315
 9176SOL    HW227924   3.314   4.269   6.450  1.0628 -0.4038 -1.4653
 9177SOL     OW27925   1.859   3.467   3.281  0.2506 -0.3568 -0.6934
 9177SOL    HW127926   1.890   3.411   3.210  0.1727 -0.7526 -0.4131
 9177SOL    HW227927   1.877   3.418   3.361  0.8967  0.3387 -0.3876
 9178SOL     OW27928   6.861   6.650   0.305 -0.1568  0.2372 -0.1918
 9178SOL    HW127929   6.932   6.703   0.270  1.1435 -1.2913  0.0109
 9178SOL    HW227930   6.804   6.713   0.349 -0.3037  1.8282 -2.4727
 9179SOL     OW27931   4.473   0.834   4.002  0.0072 -0.4988 -0.2867
 9179SOL    HW127932   4.523   0.755   3.979  0.4702 -0.4252  0.4140
 9179SOL    HW227933   4.403   0.802   4.059  0.4908 -0.3523  0.4018
 9180SOL     OW27934   3.959   5.291   5.935  0.6766 -0.2335  0.4834
 9180SOL    HW127935   4.010   5.370   5.954 -0.1779  0.4857 -0.1704
 9180SOL    HW227936   3.976   5.272   5.843  0.5858 -0.6032  0.5387
 9181SOL     OW27937   6.707   4.658   4.271 -0.0885 -0.1351 -0.1387
 9181SOL    HW127938   6.623   4.691   4.239 -0.1131 -1.0488 -1.0781
 9181SOL    HW227939   6.771   4.723   4.241 -0.2069 -0.5768 -1.4053
 9182SOL     OW27940   2.849   4.897   6.045 -0.0511  0.5050 -0.4502
 9182SOL    HW127941   2.899   4.869   5.968  1.4090  1.7334  0.0266
 9182SOL    HW227942   2.888   4.850   6.118  0.4618  1.5228 -0.0644
 9183SOL     OW27943   2.141   6.308   5.605 -0.4824 -0.2369  0.2398
 9183SOL    HW127944   2.224   6.278   5.568 -0.9139 -1.6609  0.3835
 9183SOL    HW227945   2.164   6.346   5.690 -0.1042 -1.6466  0.7829
 9184SOL     OW27946   6.845   6.038   5.143 -0.0607  0.1530  0.5650
 9184SOL    HW127947   6.813   6.041   5.234  2.3878  1.2605  1.4874
 9184SOL    HW227948   6.889   6.122   5.131 -1.3444  0.5241 -2.1009
 9185SOL     OW27949   5.507   3.146   0.952  0.1491  0.8851  0.3453
 9185SOL    HW127950   5.512   3.212   0.883 -1.3726  1.6982  0.9543
 9185SOL    HW227951   5.454   3.187   1.021 -0.0736 -0.6370  1.1285
 9186SOL     OW27952   6.328   1.913   6.271 -0.2557  0.0257 -0.0258
 9186SOL    HW127953   6.374   1.991   6.302 -0.7937  0.4062 -0.1746
 9186SOL    HW227954   6.266   1.893   6.341  1.1984 -1.4315  0.9138
 9187SOL     OW27955   1.044   4.219   6.795 -0.0129 -0.7427  0.1848
 9187SOL    HW127956   1.016   4.300   6.752 -0.4193 -0.8154  0.3112
 9187SOL    HW227957   1.005   4.223   6.883 -0.5081 -1.3438 -0.0040
 9188SOL     OW27958   2.262   0.673   0.753  0.0211 -0.3810 -0.2323
 9188SOL    HW127959   2.344   0.721   0.763  0.4593 -0.4026 -2.8293
 9188SOL    HW227960   2.282   0.584   0.784 -0.0689  0.4159  2.2775
 9189SOL     OW27961   1.288   5.513   3.802 -0.4377  0.3790  0.0071
 9189SOL    HW127962   1.347   5.525   3.727  1.7507 -1.6948  1.2516
 9189SOL    HW227963   1.200   5.518   3.764  0.5569  0.4056 -2.5215
 9190SOL     OW27964   2.227   1.518   3.044 -0.1587 -0.3631  0.2734
 9190SOL    HW127965   2.277   1.599   3.046  0.0544 -0.4709 -0.4422
 9190SOL    HW227966   2.143   1.542   3.005  0.6986 -0.8785 -2.0755
 9191SOL     OW27967   0.581   5.017   3.576 -0.6035 -0.0646  0.2694
 9191SOL    HW127968   0.672   4.992   3.561 -0.7912 -0.6787  0.1151
 9191SOL    HW227969   0.571   5.101   3.532  0.1808  0.5575  1.2272
 9192SOL     OW27970   5.124   6.382   6.247  0.1009  0.1782  0.5035
 9192SOL    HW127971   5.133   6.454   6.186  2.1784 -0.5097 -0.0806
 9192SOL    HW227972   5.075   6.315   6.199  1.4712 -0.2447 -0.3607
 9193SOL     OW27973   2.854   6.736   5.343  0.0041 -0.3267  0.1253
 9193SOL    HW127974   2.931   6.772   5.387 -0.6450 -0.8629  1.7691
 9193SOL    HW227975   2.888   6.661   5.294  0.7857  0.4392 -0.5448
 9194SOL     OW27976   2.736   6.178   2.527  0.4192  0.1889  0.3308
 9194SOL    HW127977   2.761   6.187   2.619  1.2477 -1.1709  0.2566
 9194SOL    HW227978   2.772   6.257   2.485  3.3027 -0.9042  0.5329
 9195SOL     OW27979   1.281   2.943   3.086  0.9208  0.3834 -0.7675
 9195SOL    HW127980   1.257   2.931   3.178  1.2891 -0.2911 -0.7533
 9195SOL    HW227981   1.325   3.028   3.083 -0.0673  0.9184 -0.5219
 9196SOL     OW27982   2.804   4.626   3.623 -0.0644  0.0150 -0.2769
 9196SOL    HW127983   2.866   4.694   3.596  0.9066  0.2299  2.2277
 9196SOL    HW227984   2.723   4.673   3.643 -0.2980  0.0460 -1.2714
 9197SOL     OW27985   2.150   3.678   6.762  0.5446  0.2247 -0.3032
 9197SOL    HW127986   2.119   3.588   6.755 -0.2200  0.3398  1.1225
 9197SOL    HW227987   2.070   3.729   6.780  1.2795  0.8171  1.4620
 9198SOL     OW27988   6.031   2.677   3.714 -0.6590  0.0716 -0.0434
 9198SOL    HW127989   6.033   2.738   3.640 -0.7509 -1.2964 -1.2290
 9198SOL    HW227990   6.069   2.725   3.787 -0.3504  1.3883 -1.0410
 9199SOL     OW27991   6.826   6.896   5.938  0.0162  0.3830 -0.3120
 9199SOL    HW127992   6.871   6.969   5.896 -0.1051  0.9214  0.4541
 9199SOL    HW227993   6.749   6.880   5.883  0.3763  0.4138 -0.8299
 9200SOL     OW27994   2.242   1.152   3.232  0.6522 -0.3083 -0.5100
 9200SOL    HW127995   2.329   1.123   3.205  0.9612 -0.4180  0.5339
 9200SOL    HW227996   2.258   1.235   3.278  0.0080  0.5125 -1.7137
 9201SOL     OW27997   5.551   0.550   3.317  0.3366 -0.2409 -0.1007
 9201SOL    HW127998   5.485   0.618   3.322  0.9542  0.5291 -1.6596
 9201SOL    HW227999   5.517   0.487   3.253  0.3197 -0.7747  0.4213
 9202SOL     OW28000   4.761   3.856   0.555  0.3453 -0.2876 -0.1921
 9202SOL    HW128001   4.764   3.791   0.484  0.5304 -1.9090  1.2327
 9202SOL    HW228002   4.852   3.869   0.580  0.3623  1.0126 -0.8478
 9203SOL     OW28003   6.516   0.433   6.947  0.2810 -0.2123 -0.3446
 9203SOL    HW128004   6.498   0.463   6.858  2.2219  1.4405 -0.2612
 9203SOL    HW228005   6.586   0.369   6.937  0.4603 -0.0695 -0.0120
 9204SOL     OW28006   5.061   6.511   1.559 -0.3715  0.0252 -0.3191
 9204SOL    HW128007   5.073   6.591   1.611  0.1750 -0.9006  1.0411
 9204SOL    HW228008   5.150   6.483   1.537 -0.4681 -1.1203  0.6845
 9205SOL     OW28009   0.025   3.045   1.768 -0.3311  0.2345  0.4289
 9205SOL    HW128010   0.059   2.959   1.791 -0.5482 -0.5847 -1.9948
 9205SOL    HW228011   0.103   3.098   1.752 -0.1353 -0.3986 -0.8981
 9206SOL     OW28012   0.415   1.960   2.580 -0.1026  0.2100  0.0201
 9206SOL    HW128013   0.363   2.028   2.623  0.5633  0.5490  0.2937
 9206SOL    HW228014   0.394   1.969   2.487 -0.6639  0.2265  0.1423
 9207SOL     OW28015   5.771   6.797   6.707 -0.2140 -0.0481  0.7635
 9207SOL    HW128016   5.748   6.802   6.800  0.0793  0.7301  0.7999
 9207SOL    HW228017   5.754   6.884   6.673  0.2447 -0.1657  0.2116
 9208SOL     OW28018   2.220   2.497   3.626  0.1099  0.0965  0.4629
 9208SOL    HW128019   2.170   2.490   3.545 -0.1823  0.3547  0.6198
 9208SOL    HW228020   2.293   2.555   3.605 -1.1274  1.9175  0.9400
 9209SOL     OW28021   3.169   5.768   1.095 -0.2157  0.0267  0.2936
 9209SOL    HW128022   3.155   5.815   1.177 -0.3005  2.9797 -1.2870
 9209SOL    HW228023   3.247   5.809   1.057 -1.0573 -0.2065 -1.7966
 9210SOL     OW28024   1.827   0.633   4.680 -0.2921  0.9035 -0.2403
 9210SOL    HW128025   1.816   0.688   4.603  0.8630  1.2157 -0.1863
 9210SOL    HW228026   1.856   0.693   4.749  2.8313  0.0225 -0.6326
 9211SOL     OW28027   4.227   5.041   5.020 -0.5021  0.1722 -0.3021
 9211SOL    HW128028   4.234   4.989   5.100 -2.7552  1.0285  0.5300
 9211SOL    HW228029   4.293   5.109   5.031 -1.8957  1.3080  1.7161
 9212SOL     OW28030   4.343   3.558   5.316  0.0121 -0.3691 -0.1032
 9212SOL    HW128031   4.254   3.537   5.344 -0.7161 -0.2580 -2.1606
 9212SOL    HW228032   4.361   3.494   5.247  0.7326  0.8761 -1.1008
 9213SOL     OW28033   0.026   0.791   5.777  0.1069 -0.1453 -0.6525
 9213SOL    HW128034  -0.005   0.742   5.701 -1.2286  2.1791 -1.7136
 9213SOL    HW228035   0.119   0.806   5.759  0.1735 -0.9507 -1.0333
 9214SOL     OW28036   4.476   5.129   6.308 -0.1431  0.2260 -0.0147
 9214SOL    HW128037   4.570   5.139   6.292 -0.2672 -0.3203 -1.2033
 9214SOL    HW228038   4.440   5.216   6.293  0.0958  0.3012 -0.1653
 9215SOL     OW28039   5.854   5.576   4.986  0.4941  0.0006  0.2023
 9215SOL    HW128040   5.828   5.621   5.066 -0.5137  1.6368 -0.9703
 9215SOL    HW228041   5.891   5.645   4.931 -1.8259 -0.3213 -1.9947
 9216SOL     OW28042   5.737   0.466   0.846  0.0257  0.1773 -0.1150
 9216SOL    HW128043   5.772   0.537   0.793  0.1519 -0.1046 -0.4148
 9216SOL    HW228044   5.672   0.424   0.791 -0.5321  0.4683  0.3071
 9217SOL     OW28045   5.932   1.389   5.809 -0.1105 -0.2486 -0.6050
 9217SOL    HW128046   5.918   1.346   5.893 -1.0180 -0.2784 -0.7537
 9217SOL    HW228047   6.023   1.417   5.810  0.2005 -1.2641 -0.0887
 9218SOL     OW28048   2.582   4.169   4.568  0.3081 -0.9296  0.3814
 9218SOL    HW128049   2.608   4.261   4.560 -0.6265 -0.7182 -0.4185
 9218SOL    HW228050   2.488   4.170   4.550 -0.2518 -1.6864  2.8822
 9219SOL     OW28051   2.057   4.590   4.473 -0.5759 -0.1089 -0.0263
 9219SOL    HW128052   2.122   4.659   4.465  0.2093 -0.6221  1.4289
 9219SOL    HW228053   2.100   4.512   4.438 -0.6358 -0.3124  0.3465
 9220SOL     OW28054   1.647   6.581   0.354 -0.5132 -0.0754 -0.2322
 9220SOL    HW128055   1.678   6.491   0.339  0.7752 -0.2300  2.6832
 9220SOL    HW228056   1.592   6.574   0.431 -1.7130  1.4445 -0.9125
 9221SOL     OW28057   2.199   2.376   1.260 -0.0478  0.1519  0.1336
 9221SOL    HW128058   2.243   2.315   1.201  1.6965  1.4360  0.0406
 9221SOL    HW228059   2.112   2.387   1.221 -0.3335 -2.0044  0.0041
 9222SOL     OW28060   6.816   3.022   2.106 -0.5184  0.3400  0.1166
 9222SOL    HW128061   6.895   3.033   2.158 -0.2750 -1.1816  0.0958
 9222SOL    HW228062   6.828   3.083   2.032  1.4153 -1.0024 -0.7712
 9223SOL     OW28063   2.684   2.500   4.651  0.1584 -0.6809  0.1828
 9223SOL    HW128064   2.676   2.516   4.745  0.7896 -0.8367  0.2709
 9223SOL    HW228065   2.769   2.539   4.628 -1.4329  2.4021 -0.9878
 9224SOL     OW28066   4.447   0.353   3.332  0.1969  0.0127 -0.3015
 9224SOL    HW128067   4.425   0.404   3.255  1.0722  1.3168  0.2632
 9224SOL    HW228068   4.376   0.289   3.341 -0.2743  0.3129 -1.7519
 9225SOL     OW28069   3.607   3.546   1.285  0.2435  0.1954  0.1850
 9225SOL    HW128070   3.631   3.630   1.245 -0.1091 -0.2977 -1.1121
 9225SOL    HW228071   3.522   3.525   1.246  0.9161 -1.3850 -0.5109
 9226SOL     OW28072   3.594   1.480   2.342  0.4978  0.0560 -0.1790
 9226SOL    HW128073   3.516   1.515   2.385  0.2990  0.8533 -1.1629
 9226SOL    HW228074   3.560   1.421   2.274  0.7436  0.3875 -0.5936
 9227SOL     OW28075   1.466   3.467   2.698  0.0491 -0.2039 -0.3514
 9227SOL    HW128076   1.394   3.530   2.692 -0.6081 -0.9415 -0.4319
 9227SOL    HW228077   1.492   3.468   2.790 -0.2696 -0.1487 -0.2619
 9228SOL     OW28078   3.559   6.854   6.940  0.1492 -0.3560  0.1628
 9228SOL    HW128079   3.637   6.825   6.986 -0.0044  0.8385  1.2168
 9228SOL    HW228080   3.494   6.785   6.956  0.8403 -1.1392 -0.3582
 9229SOL     OW28081   4.726   1.473   5.265 -0.3456 -0.7068 -0.0416
 9229SOL    HW128082   4.653   1.535   5.273  1.3154  1.3539 -0.2244
 9229SOL    HW228083   4.715   1.414   5.340 -2.9157 -1.3395 -0.7782
 9230SOL     OW28084   6.195   1.532   2.784 -0.2879  0.0266 -0.1438
 9230SOL    HW128085   6.148   1.579   2.715 -2.5984 -1.3489  0.3861
 9230SOL    HW228086   6.153   1.446   2.787  2.4876 -1.4178  0.2360
 9231SOL     OW28087   1.288   2.044   2.570 -0.3238 -0.3166  0.1987
 9231SOL    HW128088   1.324   2.133   2.574 -0.1036 -0.1395 -2.9387
 9231SOL    HW228089   1.322   2.008   2.488 -2.9434 -2.1130 -0.2423
 9232SOL     OW28090   4.795   1.422   2.422  0.3773 -0.4991  0.3824
 9232SOL    HW128091   4.825   1.407   2.332 -1.2581  0.1756 -0.2963
 9232SOL    HW228092   4.795   1.517   2.432 -0.0428 -0.5504  0.8844
 9233SOL     OW28093   3.541   3.236   3.388 -1.0126  0.6519 -0.8414
 9233SOL    HW128094   3.520   3.216   3.297 -1.8752  3.4265 -1.3301
 9233SOL    HW228095   3.463   3.281   3.422 -0.3400  0.5415  0.9821
 9234SOL     OW28096   5.124   0.603   6.124  0.3165 -0.4994 -0.5050
 9234SOL    HW128097   5.159   0.667   6.062  0.6205 -0.0691  0.1038
 9234SOL    HW228098   5.106   0.525   6.071 -1.7698  0.6557 -1.6140
 9235SOL     OW28099   5.063   6.249   2.324  0.3033  0.0226 -0.6483
 9235SOL    HW128100   5.001   6.278   2.258 -1.0328  1.0028  0.9388
 9235SOL    HW228101   5.047   6.308   2.399  2.0153 -0.7628  0.3956
 9236SOL     OW28102   1.350   0.405   3.951  0.3007  0.2316  0.4844
 9236SOL    HW128103   1.305   0.448   3.878  0.2050 -0.7685 -0.0720
 9236SOL    HW228104   1.442   0.404   3.924  0.4467  0.9255  0.9325
 9237SOL     OW28105   0.098   6.498   0.095  0.1036 -0.3332 -0.0665
 9237SOL    HW128106   0.119   6.468   0.006  0.6230 -0.3560  0.0615
 9237SOL    HW228107   0.010   6.533   0.088  0.6742  1.0033 -0.9122
 9238SOL     OW28108   3.497   2.864   1.271 -1.0124 -0.8341  0.1125
 9238SOL    HW128109   3.542   2.947   1.256 -0.3873 -1.2905 -0.5619
 9238SOL    HW228110   3.423   2.887   1.327 -0.3846  0.0440  0.5987
 9239SOL     OW28111   3.248   3.857   1.133  0.1196 -0.1102 -0.1927
 9239SOL    HW128112   3.202   3.937   1.160  1.4500  0.6842 -0.1960
 9239SOL    HW228113   3.181   3.788   1.138 -0.7559  0.7787  0.9970
 9240SOL     OW28114   2.115   5.778   0.865  0.2449 -0.5898  0.6476
 9240SOL    HW128115   2.119   5.685   0.847  0.7087 -0.8898  2.1617
 9240SOL    HW228116   2.087   5.818   0.782  3.3690 -1.6866 -1.0963
 9241SOL     OW28117   6.248   4.215   2.893 -0.4537 -0.8888 -0.0957
 9241SOL    HW128118   6.295   4.195   2.812 -0.0820 -1.2652  0.2093
 9241SOL    HW228119   6.280   4.301   2.919  0.8531 -1.5673  0.6543
 9242SOL     OW28120   4.753   2.446   2.723 -0.2624 -0.2710  0.3456
 9242SOL    HW128121   4.778   2.498   2.799 -0.7863 -0.5170  0.6901
 9242SOL    HW228122   4.720   2.364   2.759 -1.4065 -0.0268 -0.0932
 9243SOL     OW28123   0.092   2.090   3.798  0.5072 -0.4823  0.3061
 9243SOL    HW128124   0.054   2.167   3.756  1.7626  1.0275  1.8305
 9243SOL    HW228125   0.063   2.016   3.743  0.5560  1.1740 -2.0983
 9244SOL     OW28126   5.194   4.237   2.472  0.1909  0.7858 -0.4722
 9244SOL    HW128127   5.143   4.157   2.485 -2.0388  2.2384  0.3979
 9244SOL    HW228128   5.146   4.286   2.405  0.3220  2.2655  0.4556
 9245SOL     OW28129   5.020   5.196   5.418  0.0107 -0.0492 -0.3413
 9245SOL    HW128130   4.939   5.247   5.421 -0.6850 -1.1335  0.1142
 9245SOL    HW228131   5.089   5.259   5.439 -0.8741  0.6092  0.6976
 9246SOL     OW28132   3.438   3.462   3.981 -0.4512  0.2909  0.2933
 9246SOL    HW128133   3.411   3.376   4.014 -1.2246  0.9890  1.5328
 9246SOL    HW228134   3.374   3.484   3.914 -0.0459 -0.2402 -0.2818
 9247SOL     OW28135   2.520   1.376   1.114 -0.4338  0.7079  0.4390
 9247SOL    HW128136   2.545   1.460   1.152  0.4957  1.3938 -1.5294
 9247SOL    HW228137   2.598   1.347   1.066 -1.0975 -0.7433  0.1823
 9248SOL     OW28138   1.105   0.500   3.641 -0.0251 -0.3015 -0.1182
 9248SOL    HW128139   1.161   0.561   3.595  1.3820 -1.8846 -0.6058
 9248SOL    HW228140   1.098   0.424   3.583 -1.3907 -0.7817  0.6167
 9249SOL     OW28141   6.432   5.869   3.617  0.5650 -0.5520  0.2990
 9249SOL    HW128142   6.431   5.856   3.712 -1.7829 -0.7242  0.2911
 9249SOL    HW228143   6.365   5.934   3.600  0.8942 -0.5762 -1.2673
 9250SOL     OW28144   5.020   1.479   1.143  0.6645  0.0021  0.3866
 9250SOL    HW128145   4.944   1.526   1.179  0.5866 -0.2178  0.5080
 9250SOL    HW228146   5.004   1.478   1.048  0.6311  0.1585  0.3890
 9251SOL     OW28147   1.464   3.489   2.126  0.2279 -0.4304  0.2687
 9251SOL    HW128148   1.444   3.486   2.219 -0.0776 -0.9602  0.1928
 9251SOL    HW228149   1.379   3.481   2.083  0.3244  0.2485 -0.0545
 9252SOL     OW28150   4.673   6.347   1.572 -0.1919  0.1765  0.0139
 9252SOL    HW128151   4.637   6.307   1.650  0.8026 -0.7503  0.0254
 9252SOL    HW228152   4.598   6.358   1.513 -0.7048 -0.4372  0.5439
 9253SOL     OW28153   2.834   3.549   2.625 -0.2034  0.1580  0.6944
 9253SOL    HW128154   2.847   3.644   2.622  0.8747  0.0391  1.3070
 9253SOL    HW228155   2.795   3.533   2.711 -1.2577  0.1344  0.2242
 9254SOL     OW28156   4.826   0.068   1.142  0.1854  0.0596 -0.0948
 9254SOL    HW128157   4.828   0.126   1.066  0.6310 -0.0442 -0.1647
 9254SOL    HW228158   4.918   0.053   1.164  0.0743 -0.5071  0.0120
 9255SOL     OW28159   2.995   2.533   2.477  0.0965  0.0525 -0.1362
 9255SOL    HW128160   3.076   2.569   2.515  0.7557 -0.2013 -1.2566
 9255SOL    HW228161   2.945   2.503   2.553  1.5484 -0.8080  0.5419
 9256SOL     OW28162   0.192   5.933   3.060  0.1457 -0.0532 -0.1344
 9256SOL    HW128163   0.160   6.018   3.091 -0.9751 -0.0550 -1.2373
 9256SOL    HW228164   0.123   5.872   3.086  0.8787 -0.6200  0.5137
 9257SOL     OW28165   2.889   5.143   2.763 -0.0727 -0.0234 -0.1854
 9257SOL    HW128166   2.830   5.143   2.687 -0.1084 -0.4562 -0.1594
 9257SOL    HW228167   2.893   5.051   2.790  0.5071  0.0270 -0.0996
 9258SOL     OW28168   2.015   2.855   5.165 -0.0040 -0.0706  0.1199
 9258SOL    HW128169   1.936   2.809   5.194  0.6704 -1.4621 -0.1611
 9258SOL    HW228170   1.985   2.943   5.144 -1.5256 -0.6186 -0.1411
 9259SOL     OW28171   0.972   5.541   5.756 -0.3170  0.5413  0.1619
 9259SOL    HW128172   0.929   5.542   5.671 -1.0465 -1.4635  0.4448
 9259SOL    HW228173   0.900   5.540   5.819  0.2119  1.7115  0.8189
 9260SOL     OW28174   0.630   4.652   1.477  0.1449  0.0730 -0.1251
 9260SOL    HW128175   0.550   4.690   1.440 -0.5173  0.3576  1.4860
 9260SOL    HW228176   0.626   4.675   1.570  1.7673 -0.5082  0.1224
 9261SOL     OW28177   6.243   5.440   0.010 -0.3360 -0.0123 -0.2297
 9261SOL    HW128178   6.172   5.443  -0.054  1.1930 -0.5310 -2.0368
 9261SOL    HW228179   6.274   5.350   0.008  1.1257  0.4612 -0.3910
 9262SOL     OW28180   4.166   5.867   2.516 -0.2033 -0.2563 -0.5667
 9262SOL    HW128181   4.200   5.950   2.481 -0.7169  0.9118  1.5168
 9262SOL    HW228182   4.233   5.802   2.494  1.4893  1.2268 -0.0165
 9263SOL     OW28183   4.578   4.547   0.154 -0.5287 -0.1661 -0.3128
 9263SOL    HW128184   4.574   4.527   0.247 -1.2446  0.3878 -0.2196
 9263SOL    HW228185   4.521   4.483   0.112 -0.6953 -0.0254 -0.3024
 9264SOL     OW28186   6.923   2.691   0.653 -0.1710  0.0741 -0.2708
 9264SOL    HW128187   6.926   2.631   0.727 -0.3234  1.3021  0.7653
 9264SOL    HW228188   6.864   2.761   0.681 -1.5786 -0.2255 -2.1869
 9265SOL     OW28189   2.389   3.363   6.944  0.4293  0.7055  0.0604
 9265SOL    HW128190   2.353   3.322   6.866 -1.2352  1.2289  0.5130
 9265SOL    HW228191   2.465   3.309   6.966  0.1004 -0.2848 -1.1001
 9266SOL     OW28192   6.923   4.957   3.028  0.4373  0.0899 -0.3268
 9266SOL    HW128193   6.976   4.932   2.952  0.6776  0.8627 -0.4272
 9266SOL    HW228194   6.863   5.024   2.995 -1.2147 -1.3617 -0.4128
 9267SOL     OW28195   4.850   4.497   5.841 -0.0485 -0.8648 -0.3512
 9267SOL    HW128196   4.906   4.422   5.862  0.9663 -0.6276 -2.0582
 9267SOL    HW228197   4.909   4.562   5.804 -0.6327  1.4123  2.3133
 9268SOL     OW28198   3.206   4.074   2.493  0.1714 -0.3689 -0.1351
 9268SOL    HW128199   3.193   3.992   2.542 -0.2458 -0.1934  0.0522
 9268SOL    HW228200   3.277   4.054   2.432 -2.2309 -2.0073 -2.6152
 9269SOL     OW28201   3.943   0.485   6.722 -0.0416 -0.1190 -0.4490
 9269SOL    HW128202   3.869   0.491   6.782  0.6626 -1.2225  0.5857
 9269SOL    HW228203   3.985   0.570   6.727 -0.7679  0.2451 -0.4287
 9270SOL     OW28204   5.218   3.351   4.770 -0.0536 -0.3142 -0.2104
 9270SOL    HW128205   5.265   3.318   4.693  0.2660 -1.1840  0.3351
 9270SOL    HW228206   5.159   3.280   4.794  0.2909 -0.2995  0.7055
 9271SOL     OW28207   5.204   2.551   4.823  0.5413 -0.3300  0.0728
 9271SOL    HW128208   5.112   2.556   4.849  0.1110 -1.0128 -1.2211
 9271SOL    HW228209   5.227   2.641   4.798 -0.3397 -0.4460 -1.3078
 9272SOL     OW28210   0.170   1.230   6.585  0.2524  0.0677 -0.3877
 9272SOL    HW128211   0.233   1.159   6.595  0.2115  0.1250  0.3759
 9272SOL    HW228212   0.165   1.270   6.672 -2.0778 -0.9927  0.0431
 9273SOL     OW28213   1.689   1.796   3.174 -0.1722 -0.0404  0.1018
 9273SOL    HW128214   1.648   1.721   3.132 -1.3707  0.7327 -0.1529
 9273SOL    HW228215   1.761   1.759   3.225 -0.5833 -1.3267 -0.2315
 9274SOL     OW28216   3.885   4.883   6.855  0.0491  0.5268  0.2233
 9274SOL    HW128217   3.947   4.831   6.805 -1.8797 -3.0347  1.2194
 9274SOL    HW228218   3.822   4.915   6.790  1.3562  1.8740 -0.4269
 9275SOL     OW28219   0.271   3.844   1.197 -0.0182 -0.3393 -0.1928
 9275SOL    HW128220   0.341   3.882   1.144 -0.5840  0.8436 -0.1178
 9275SOL    HW228221   0.316   3.784   1.257  0.8121 -0.3652 -0.8261
 9276SOL     OW28222   1.988   2.490   5.788 -0.2052 -0.1632  0.2111
 9276SOL    HW128223   2.033   2.569   5.818  0.3155 -0.3259 -0.1313
 9276SOL    HW228224   1.936   2.519   5.713  0.2585 -0.2188 -0.1302
 9277SOL     OW28225   5.588   1.345   3.365  0.1663  0.3584  0.0358
 9277SOL    HW128226   5.550   1.285   3.429  0.1548  1.9225  1.5436
 9277SOL    HW228227   5.665   1.299   3.332 -0.1036 -0.6769  0.7958
 9278SOL     OW28228   3.851   4.645   4.781  0.0710 -0.0664  0.4366
 9278SOL    HW128229   3.939   4.676   4.801  0.1528 -0.6986  1.0876
 9278SOL    HW228230   3.813   4.714   4.726  0.5046  0.8224  1.2306
 9279SOL     OW28231   4.845   4.703   3.676  0.2224 -0.5058 -0.4437
 9279SOL    HW128232   4.928   4.712   3.723 -1.0749  0.9847  1.7087
 9279SOL    HW228233   4.865   4.644   3.603  3.4352  0.7054 -0.6854
 9280SOL     OW28234   5.265   1.912   6.450  0.0668  0.3923  0.1830
 9280SOL    HW128235   5.288   1.881   6.363  1.5027 -1.6877  1.2198
 9280SOL    HW228236   5.249   2.006   6.439 -0.3790  0.0771 -2.3837
 9281SOL     OW28237   4.054   6.947   2.272  0.4768 -0.0581  0.2566
 9281SOL    HW128238   4.072   6.978   2.182 -0.6711  0.0632  0.0562
 9281SOL    HW228239   3.959   6.948   2.279  0.5400  2.3878  2.3245
 9282SOL     OW28240   6.579   5.544   0.263 -0.4614 -0.5440  0.1270
 9282SOL    HW128241   6.553   5.636   0.263  2.1627  0.3794 -2.6157
 9282SOL    HW228242   6.592   5.522   0.355 -0.8033  1.9511  0.8310
 9283SOL     OW28243   5.146   6.912   4.936 -0.0682  0.5914 -0.1562
 9283SOL    HW128244   5.208   6.865   4.881 -0.0128  0.5936 -0.0950
 9283SOL    HW228245   5.082   6.846   4.962  1.0092  0.1189  1.4310
 9284SOL     OW28246   5.757   2.443   3.478  0.2626  0.3710 -0.2197
 9284SOL    HW128247   5.792   2.380   3.541 -3.2051 -0.9858  0.6286
 9284SOL    HW228248   5.755   2.526   3.525 -0.2355 -0.1591  0.7279
 9285SOL     OW28249   2.583   1.303   5.286 -0.0085 -0.4054 -0.2747
 9285SOL    HW128250   2.674   1.314   5.313 -0.3954 -0.7400  1.2442
 9285SOL    HW228251   2.549   1.392   5.279  0.1798 -0.3043  0.0839
 9286SOL     OW28252   0.543   6.350   1.748  0.4667 -0.1062 -0.3697
 9286SOL    HW128253   0.616   6.308   1.702 -0.1844  0.0992 -1.6316
 9286SOL    HW228254   0.478   6.365   1.680 -0.6290  0.0018  0.6825
 9287SOL     OW28255   0.428   0.077   3.070 -0.0893 -0.6692 -0.0521
 9287SOL    HW128256   0.431   0.136   3.145 -1.2791 -0.0176 -0.4921
 9287SOL    HW228257   0.505   0.022   3.080  1.4385  1.3831  0.0267
 9288SOL     OW28258   4.657   5.809   4.178 -0.2574  0.4583 -0.0223
 9288SOL    HW128259   4.575   5.845   4.211 -0.5135 -0.3810  0.2962
 9288SOL    HW228260   4.715   5.808   4.255 -0.0618  0.7358 -0.1669
 9289SOL     OW28261   4.853   0.459   0.376 -0.0495  0.1375 -0.3615
 9289SOL    HW128262   4.773   0.485   0.331 -0.6545 -1.1768 -0.0855
 9289SOL    HW228263   4.909   0.537   0.373 -1.4142  1.1506 -0.3599
 9290SOL     OW28264   5.388   6.759   3.047  0.2412  0.2211  0.0282
 9290SOL    HW128265   5.461   6.797   3.097  0.2137 -2.5737  2.4997
 9290SOL    HW228266   5.430   6.703   2.982  0.2809  0.4904 -0.1798
 9291SOL     OW28267   2.175   4.005   0.237  0.7181  0.1216 -0.0307
 9291SOL    HW128268   2.186   4.057   0.157  1.2089  0.1456  0.0459
 9291SOL    HW228269   2.081   3.991   0.244  0.6030  0.7461 -0.2215
 9292SOL     OW28270   5.545   3.697   5.917 -0.1192 -0.1269  0.3126
 9292SOL    HW128271   5.509   3.620   5.961 -0.7032  0.2158  0.4541
 9292SOL    HW228272   5.486   3.713   5.844 -0.3499  0.5344  0.6338
 9293SOL     OW28273   5.347   0.197   3.926  0.3127 -0.2106  0.0825
 9293SOL    HW128274   5.292   0.227   3.998  1.5769 -1.7741  1.7768
 9293SOL    HW228275   5.401   0.274   3.904 -0.0118  0.2510  0.8584
 9294SOL     OW28276   5.058   3.985   2.859 -0.3484  0.2873 -0.4918
 9294SOL    HW128277   5.017   3.904   2.889 -0.0124  0.2883 -0.0162
 9294SOL    HW228278   5.144   3.958   2.825 -0.1191  0.4719 -0.0728
 9295SOL     OW28279   3.317   4.951   3.969  0.3429 -0.4430  0.1906
 9295SOL    HW128280   3.397   4.938   4.020  1.4742  1.1030 -1.0651
 9295SOL    HW228281   3.300   5.045   3.975 -0.8791 -0.6155 -0.2975
 9296SOL     OW28282   5.540   3.702   6.264  0.0752 -0.2411 -0.2551
 9296SOL    HW128283   5.622   3.674   6.306  0.0276  0.8454  0.6224
 9296SOL    HW228284   5.548   3.672   6.174  1.4219 -0.1915 -0.1770
 9297SOL     OW28285   3.566   3.262   1.533 -0.7000  0.6323  0.5978
 9297SOL    HW128286   3.566   3.338   1.475  2.5649 -0.1120 -0.6225
 9297SOL    HW228287   3.653   3.263   1.573 -1.3700 -1.2467  2.2501
 9298SOL     OW28288   2.919   2.462   0.086 -0.1524  0.2142 -0.3884
 9298SOL    HW128289   2.977   2.538   0.088 -0.3752  0.3867 -0.4801
 9298SOL    HW228290   2.840   2.492   0.041  0.0305 -0.2611 -1.0426
 9299SOL     OW28291   3.645   5.915   3.856 -0.4691 -0.0550 -0.0628
 9299SOL    HW128292   3.590   5.846   3.820  1.5444 -1.2379 -1.0402
 9299SOL    HW228293   3.656   5.890   3.948 -0.4752 -0.5726 -0.1955
 9300SOL     OW28294   0.693   5.135   4.120  0.1713  0.1678 -0.8723
 9300SOL    HW128295   0.659   5.193   4.188  0.9484 -0.3868  0.0168
 9300SOL    HW228296   0.744   5.192   4.063 -0.8895  0.7242 -1.2912
 9301SOL     OW28297   6.682   3.292   2.945  0.3956  0.2037 -0.0670
 9301SOL    HW128298   6.659   3.213   2.896  2.2260  0.1331 -0.9026
 9301SOL    HW228299   6.706   3.261   3.032  0.0107 -0.0033 -0.0288
 9302SOL     OW28300   0.287   5.897   0.468 -0.7548 -0.1105 -0.0616
 9302SOL    HW128301   0.379   5.872   0.466 -0.3094  1.4059  0.2751
 9302SOL    HW228302   0.288   5.991   0.487 -2.4179 -0.3489  1.4539
 9303SOL     OW28303   0.445   2.450   6.599  0.3053  0.1393  0.2468
 9303SOL    HW128304   0.460   2.511   6.526 -0.4607  0.1551  0.0943
 9303SOL    HW228305   0.438   2.364   6.558 -0.3740  0.1799  0.2702
 9304SOL     OW28306   2.192   1.401   4.974  0.4612 -0.2534  0.4094
 9304SOL    HW128307   2.262   1.347   4.936  0.3071 -0.2630  0.1393
 9304SOL    HW228308   2.114   1.379   4.923 -0.0652 -1.2746  1.5980
 9305SOL     OW28309   6.422   1.173   1.002  0.1140 -0.4378  0.1203
 9305SOL    HW128310   6.341   1.202   1.044 -0.1141 -1.9621  0.7724
 9305SOL    HW228311   6.406   1.189   0.908 -1.2656 -1.4446  0.1564
 9306SOL     OW28312   1.908   4.387   2.492  0.1271  0.3898 -0.4635
 9306SOL    HW128313   1.881   4.358   2.579 -1.9023 -0.0749 -1.1972
 9306SOL    HW228314   1.892   4.312   2.435 -0.4222  1.2878 -1.5495
 9307SOL     OW28315   0.224   4.305   6.543  0.2968  1.2003  0.2226
 9307SOL    HW128316   0.245   4.212   6.550 -0.3568  1.0023 -0.3871
 9307SOL    HW228317   0.150   4.318   6.602 -0.5914  1.0094 -0.8253
 9308SOL     OW28318   2.977   2.138   6.565 -0.0914 -0.0173 -0.4784
 9308SOL    HW128319   2.908   2.204   6.572 -0.4209 -0.4475  0.5702
 9308SOL    HW228320   3.024   2.144   6.648  0.2771 -0.6677 -0.6291
 9309SOL     OW28321   3.453   3.620   0.059  0.6062  0.0563  0.4690
 9309SOL    HW128322   3.461   3.620  -0.037  0.4563  0.5577  0.4500
 9309SOL    HW228323   3.441   3.528   0.082  0.9345 -0.1032  0.0298
 9310SOL     OW28324   5.273   5.095   2.990  0.4052  0.2917  0.5243
 9310SOL    HW128325   5.308   5.041   3.061 -1.6469  0.9752  2.1720
 9310SOL    HW228326   5.324   5.070   2.913  2.0576 -1.2121  2.0217
 9311SOL     OW28327   6.891   4.658   2.940  0.0049  0.3424  0.5275
 9311SOL    HW128328   6.910   4.693   2.853  1.2720 -1.4884  0.0028
 9311SOL    HW228329   6.796   4.671   2.951  0.1050  2.1553 -0.3601
 9312SOL     OW28330   5.851   6.485   1.342  0.3118  0.5658  0.3616
 9312SOL    HW128331   5.876   6.537   1.266 -1.1148  1.1653  0.2764
 9312SOL    HW228332   5.908   6.407   1.338  0.1574  0.5063 -1.3949
 9313SOL     OW28333   6.885   6.399   0.455  0.4542 -0.4775 -0.8651
 9313SOL    HW128334   6.806   6.355   0.488  1.3848 -2.6357 -1.3006
 9313SOL    HW228335   6.852   6.469   0.399 -1.1286 -0.0990  0.4454
 9314SOL     OW28336   0.482   4.803   6.327  0.1971 -0.2453  0.2402
 9314SOL    HW128337   0.467   4.885   6.374 -0.3266  0.4795 -1.1463
 9314SOL    HW228338   0.402   4.751   6.343  0.1436 -0.1259  0.3641
 9315SOL     OW28339   4.092   5.860   4.340  0.1575 -0.1213  0.0828
 9315SOL    HW128340   4.030   5.787   4.334 -0.4747  0.1040  2.8654
 9315SOL    HW228341   4.038   5.938   4.330  0.3650  0.0323  0.1574
 9316SOL     OW28342   5.079   6.770   1.675 -0.7291 -0.5842  0.2529
 9316SOL    HW128343   5.056   6.841   1.735  0.3752  0.1094 -0.1149
 9316SOL    HW228344   5.051   6.801   1.589  1.8883  0.5383 -0.3072
 9317SOL     OW28345   0.192   6.508   3.690  0.1907  0.1928  0.4872
 9317SOL    HW128346   0.160   6.418   3.678  1.5225 -0.2565  0.1498
 9317SOL    HW228347   0.282   6.506   3.656 -0.5653  2.2766 -2.0160
 9318SOL     OW28348   5.841   6.136   3.000  0.1912  0.0950 -0.5956
 9318SOL    HW128349   5.774   6.118   2.934 -0.4619 -1.6394  0.4588
 9318SOL    HW228350   5.791   6.145   3.081  1.0592  1.1556 -0.1596
 9319SOL     OW28351   4.279   3.381   6.168  0.5044 -0.1712 -0.5107
 9319SOL    HW128352   4.310   3.470   6.152 -0.3005  0.2668  0.3180
 9319SOL    HW228353   4.184   3.388   6.172  0.4175 -1.0973 -0.5693
 9320SOL     OW28354   1.703   0.303   1.383 -0.4815  0.4605  0.0991
 9320SOL    HW128355   1.705   0.365   1.456 -0.4038 -0.7513  1.1713
 9320SOL    HW228356   1.655   0.227   1.418 -0.3725 -0.1793 -1.0902
 9321SOL     OW28357   6.156   3.086   4.251 -0.0931  0.0982 -0.1217
 9321SOL    HW128358   6.251   3.073   4.249  0.0969  1.1707  0.8792
 9321SOL    HW228359   6.120   3.008   4.209  1.2121 -0.5222 -0.1254
 9322SOL     OW28360   5.318   3.289   6.726 -0.5376 -0.4124 -0.3230
 9322SOL    HW128361   5.412   3.271   6.725 -0.5959 -0.7512 -1.9987
 9322SOL    HW228362   5.293   3.280   6.818  1.1792  0.3369  0.2524
 9323SOL     OW28363   0.577   4.282   3.835 -0.0351  0.1003  0.0305
 9323SOL    HW128364   0.559   4.327   3.752  0.5956  2.0504  0.9001
 9323SOL    HW228365   0.499   4.229   3.851 -1.5422  2.0794 -0.2975
 9324SOL     OW28366   0.230   3.812   6.042 -0.1544  0.5312  0.0740
 9324SOL    HW128367   0.254   3.827   6.134 -1.6259  1.0148  0.3932
 9324SOL    HW228368   0.135   3.810   6.042 -0.1909  1.1611 -1.5458
 9325SOL     OW28369   5.401   1.837   3.075 -0.4298 -0.2068 -0.1648
 9325SOL    HW128370   5.396   1.741   3.078 -0.1053 -0.4087 -3.0348
 9325SOL    HW228371   5.365   1.860   2.989 -0.5248  2.2810  0.4641
 9326SOL     OW28372   6.184   1.250   1.105 -0.5686 -0.7057  0.1215
 9326SOL    HW128373   6.137   1.314   1.052  0.1537  0.9197  1.3578
 9326SOL    HW228374   6.115   1.194   1.141 -1.7010  1.6243  1.9057
 9327SOL     OW28375   3.491   3.074   2.395  0.2775  0.1054 -0.0417
 9327SOL    HW128376   3.496   3.167   2.418 -1.7268  0.1463  0.4810
 9327SOL    HW228377   3.403   3.048   2.423  0.4047 -1.6882 -1.1643
 9328SOL     OW28378   0.762   0.842   6.689  0.1382 -0.3273  0.7353
 9328SOL    HW128379   0.804   0.857   6.774 -1.6877 -0.9053  1.7911
 9328SOL    HW228380   0.710   0.763   6.702  1.0899 -1.3863 -1.4455
 9329SOL     OW28381   2.354   3.688   0.982  0.0235 -0.3149 -0.3393
 9329SOL    HW128382   2.363   3.623   0.913 -0.1279  0.1018 -0.7515
 9329SOL    HW228383   2.369   3.639   1.063  0.6406 -0.7181 -0.6889
 9330SOL     OW28384   2.808   0.722   3.040 -0.1416  0.3156 -0.2933
 9330SOL    HW128385   2.894   0.702   3.003 -0.1395 -1.1779  0.4108
 9330SOL    HW228386   2.825   0.740   3.132 -0.6625 -1.0841  0.1112
 9331SOL     OW28387   3.236   1.192   5.085  0.0856  0.0534 -0.8986
 9331SOL    HW128388   3.204   1.199   5.175 -0.9934  0.6156 -1.3109
 9331SOL    HW228389   3.196   1.265   5.039 -0.2452 -0.8353 -2.0831
 9332SOL     OW28390   6.522   0.149   6.840 -0.1431  0.2223  0.4698
 9332SOL    HW128391   6.518   0.058   6.811 -0.1460  0.4431 -0.2462
 9332SOL    HW228392   6.616   0.169   6.839 -0.2733  1.0997 -2.2585
 9333SOL     OW28393   1.837   5.995   2.230  1.0279 -0.2080 -0.3143
 9333SOL    HW128394   1.899   6.065   2.209  1.7707 -0.6464  0.3498
 9333SOL    HW228395   1.763   6.040   2.269  0.6713  0.3787 -1.6080
 9334SOL     OW28396   4.484   1.494   0.140 -0.0288 -0.3153 -0.2010
 9334SOL    HW128397   4.466   1.405   0.169 -1.5417  0.1284  0.3195
 9334SOL    HW228398   4.442   1.550   0.206 -0.4219  0.7609 -1.3060
 9335SOL     OW28399   0.953   0.397   2.791 -0.4790 -1.0689  0.0936
 9335SOL    HW128400   0.877   0.341   2.778 -1.4132  0.3215 -0.7417
 9335SOL    HW228401   0.925   0.463   2.855  0.1115 -0.7202  0.0081
 9336SOL     OW28402   6.839   3.339   1.281  0.2809  0.1291  0.5692
 9336SOL    HW128403   6.843   3.390   1.200  1.5333  0.2014  0.6518
 9336SOL    HW228404   6.795   3.397   1.344  0.8364  0.7575  0.3965
 9337SOL     OW28405   0.713   4.641   6.375  0.8479  0.5473 -0.3971
 9337SOL    HW128406   0.646   4.709   6.372  1.1347  0.8061 -1.3496
 9337SOL    HW228407   0.664   4.559   6.370  0.4838  0.6484  0.9752
 9338SOL     OW28408   4.678   0.129   1.630 -0.0294  0.2421  0.3687
 9338SOL    HW128409   4.674   0.200   1.565  1.9667 -1.1646 -1.4090
 9338SOL    HW228410   4.649   0.170   1.711 -3.3181  1.9461 -1.4408
 9339SOL     OW28411   3.997   1.780   2.966  0.3345 -0.0915  0.4780
 9339SOL    HW128412   4.053   1.727   3.022  1.0184 -1.1681 -1.1227
 9339SOL    HW228413   3.938   1.716   2.925  1.5165  0.2387 -1.9018
 9340SOL     OW28414   1.058   1.135   6.771  0.1852 -0.1343 -0.0698
 9340SOL    HW128415   1.011   1.165   6.849  1.1890 -0.5562  0.7358
 9340SOL    HW228416   1.090   1.215   6.730  1.9138  0.0250  1.4583
 9341SOL     OW28417   1.917   0.543   5.264 -0.2529 -0.2345 -0.1354
 9341SOL    HW128418   1.893   0.486   5.191  0.3404  0.1862 -0.6714
 9341SOL    HW228419   2.001   0.509   5.294 -0.9501 -1.0060  0.9962
 9342SOL     OW28420   2.251   6.655   4.501  0.1304 -0.0348 -0.0506
 9342SOL    HW128421   2.338   6.626   4.473  1.0797  1.7480  0.8281
 9342SOL    HW228422   2.241   6.742   4.462 -1.1885 -0.1301  0.0233
 9343SOL     OW28423   6.058   3.135   4.529  0.4658 -0.2330  0.5071
 9343SOL    HW128424   6.050   3.039   4.534 -1.2715 -0.1701 -0.1667
 9343SOL    HW228425   6.100   3.151   4.445 -0.4415 -0.3933  0.0068
 9344SOL     OW28426   3.151   2.439   2.280 -1.4094 -0.0796  0.5405
 9344SOL    HW128427   3.211   2.511   2.261 -0.4172 -1.3058 -1.1519
 9344SOL    HW228428   3.077   2.481   2.325 -1.0397  2.0450 -0.7235
 9345SOL     OW28429   3.586   6.300   4.948 -0.2727 -0.3638  0.0923
 9345SOL    HW128430   3.531   6.278   4.872 -0.1934  0.8890 -0.3453
 9345SOL    HW228431   3.644   6.369   4.916 -0.2224  0.1603  1.2833
 9346SOL     OW28432   3.677   1.597   5.568  0.2360  0.4917  0.2017
 9346SOL    HW128433   3.657   1.508   5.538 -0.1863  1.0452 -1.2677
 9346SOL    HW228434   3.773   1.600   5.571  0.2511 -0.0558  0.3886
 9347SOL     OW28435   4.706   3.224   1.029 -0.4102 -0.2925 -0.2004
 9347SOL    HW128436   4.690   3.201   0.938 -1.4434 -1.1815  0.1775
 9347SOL    HW228437   4.638   3.177   1.078 -1.3821  2.0011  0.8306
 9348SOL     OW28438   5.009   0.162   0.751 -0.3718 -0.0699  0.5257
 9348SOL    HW128439   5.051   0.179   0.666  1.4601  0.0142  1.3947
 9348SOL    HW228440   5.006   0.067   0.757 -2.6493 -0.1322 -0.5867
 9349SOL     OW28441   0.896   5.535   4.582 -0.0785  0.2857  0.1932
 9349SOL    HW128442   0.913   5.544   4.676  0.5266 -0.0948  0.1245
 9349SOL    HW228443   0.830   5.602   4.563 -0.3064  0.2753  0.9126
 9350SOL     OW28444   1.787   0.822   6.896  0.4990  0.3088  0.2031
 9350SOL    HW128445   1.750   0.811   6.809  0.1214  2.5406  0.0220
 9350SOL    HW228446   1.734   0.765   6.952 -1.3574  1.2304 -0.5320
 9351SOL     OW28447   5.124   2.043   1.962 -0.0258  0.2529 -0.0613
 9351SOL    HW128448   5.093   1.956   1.988 -0.3584 -0.0217 -1.3068
 9351SOL    HW228449   5.079   2.061   1.879 -0.3282  1.8284  0.4098
 9352SOL     OW28450   6.167   0.447   0.913  0.2174 -0.0167 -0.1138
 9352SOL    HW128451   6.247   0.498   0.928  0.3289 -0.2374  0.0321
 9352SOL    HW228452   6.104   0.482   0.976  0.7875 -1.1830  1.1314
 9353SOL     OW28453   3.272   5.807   0.217 -0.1293 -0.0054  0.7026
 9353SOL    HW128454   3.349   5.770   0.260 -0.8919 -2.1776  0.3126
 9353SOL    HW228455   3.200   5.748   0.240 -1.0415  0.1140 -1.5498
 9354SOL     OW28456   0.398   0.458   0.045  0.0486  0.1164  0.6481
 9354SOL    HW128457   0.402   0.420  -0.043  0.0211  0.6943  0.3947
 9354SOL    HW228458   0.420   0.385   0.103  0.5735 -0.1482  0.1295
 9355SOL     OW28459   2.473   5.139   6.041 -0.1985 -0.3003  0.3328
 9355SOL    HW128460   2.427   5.200   5.984  0.0682 -0.5119 -0.1107
 9355SOL    HW228461   2.463   5.054   5.999  2.0397 -0.1155 -0.6931
 9356SOL     OW28462   2.252   2.766   2.028 -0.8474  0.0598 -0.1433
 9356SOL    HW128463   2.283   2.697   2.088 -1.2596 -0.6954 -0.7769
 9356SOL    HW228464   2.281   2.736   1.942 -0.5323  0.9826 -0.3657
 9357SOL     OW28465   3.056   3.765   2.243 -0.1023 -0.1514  0.1233
 9357SOL    HW128466   3.040   3.737   2.153 -1.9775 -0.8798  0.6428
 9357SOL    HW228467   2.980   3.818   2.266  1.1652  1.4815  0.7377
 9358SOL     OW28468   5.145   4.184   3.773  0.6721 -0.0398  0.0118
 9358SOL    HW128469   5.210   4.236   3.820  1.1188  1.1174 -1.7862
 9358SOL    HW228470   5.068   4.184   3.830  1.5535  0.3105  1.2428
 9359SOL     OW28471   4.995   2.182   6.155 -0.1056  0.5303  0.7143
 9359SOL    HW128472   5.031   2.262   6.118 -0.8469  0.1958 -0.7903
 9359SOL    HW228473   5.016   2.114   6.091  1.2169 -0.6559  2.3359
 9360SOL     OW28474   5.508   3.966   6.684  0.0333 -0.2000  0.0059
 9360SOL    HW128475   5.559   4.025   6.628 -0.5129  2.1758  1.8573
 9360SOL    HW228476   5.422   4.007   6.690 -0.9073 -2.0671  0.1170
 9361SOL     OW28477   1.130   5.218   0.664  0.5690  0.1501  0.1341
 9361SOL    HW128478   1.076   5.277   0.610 -2.2781 -2.3866 -0.0903
 9361SOL    HW228479   1.111   5.245   0.754  0.8973  0.8239  0.0100
 9362SOL     OW28480   2.118   2.637   1.664 -0.3402 -0.0752 -0.0113
 9362SOL    HW128481   2.194   2.667   1.713 -0.1169 -0.2100 -0.2793
 9362SOL    HW228482   2.153   2.606   1.581 -0.7849  0.7588 -0.5248
 9363SOL     OW28483   5.699   1.324   5.170  0.5283 -0.7319  0.3913
 9363SOL    HW128484   5.771   1.328   5.233  1.1429 -0.2192 -0.3249
 9363SOL    HW228485   5.626   1.289   5.220  0.8320  0.2399  1.5569
 9364SOL     OW28486   3.739   0.619   4.443 -0.3432 -0.1453 -0.6280
 9364SOL    HW128487   3.790   0.700   4.451 -1.0938  0.2321  0.7161
 9364SOL    HW228488   3.670   0.640   4.380 -1.0603  0.5717  0.3675
 9365SOL     OW28489   0.676   3.367   5.189  0.2374  0.0169 -0.9309
 9365SOL    HW128490   0.695   3.277   5.163 -0.7901  0.1151 -2.1178
 9365SOL    HW228491   0.653   3.361   5.282  0.7480 -0.8492 -0.8476
 9366SOL     OW28492   4.318   0.900   2.114  0.0037  0.4498  0.2478
 9366SOL    HW128493   4.382   0.942   2.172  1.1613  0.4351 -0.9568
 9366SOL    HW228494   4.298   0.968   2.049 -1.0349  0.3696  0.4805
 9367SOL     OW28495   4.663   6.298   1.827  0.3925 -0.8491 -0.3287
 9367SOL    HW128496   4.612   6.301   1.909 -0.1651  0.4247 -0.6919
 9367SOL    HW228497   4.697   6.387   1.817  1.6670 -1.3599 -0.7547
 9368SOL     OW28498   2.579   4.073   2.000  0.5976  0.1899  0.4788
 9368SOL    HW128499   2.582   3.996   1.944 -0.9917 -1.5147  2.5860
 9368SOL    HW228500   2.663   4.072   2.046 -0.1597 -1.4933  1.9246
 9369SOL     OW28501   1.869   5.455   3.456 -0.1450  0.1182 -0.1342
 9369SOL    HW128502   1.916   5.403   3.521  0.3099 -0.3597 -0.8381
 9369SOL    HW228503   1.937   5.504   3.410 -0.5405  1.1386  0.3171
 9370SOL     OW28504   1.359   1.444   2.583 -0.5357 -0.2661  0.3915
 9370SOL    HW128505   1.278   1.440   2.634  0.4674  0.4110  2.1403
 9370SOL    HW228506   1.395   1.355   2.588 -0.4957 -0.2291  0.7950
 9371SOL     OW28507   0.242   3.676   3.218  0.7932 -0.4398 -0.0160
 9371SOL    HW128508   0.268   3.752   3.166 -0.7577 -0.5325 -0.9682
 9371SOL    HW228509   0.216   3.610   3.154  0.2366 -1.0746  0.8379
 9372SOL     OW28510   0.886   1.214   5.179  0.3580 -0.3679  0.0377
 9372SOL    HW128511   0.872   1.239   5.087  2.3544 -2.8586 -1.0532
 9372SOL    HW228512   0.917   1.295   5.220 -0.2066  0.7294 -1.5650
 9373SOL     OW28513   3.490   4.119   2.218 -0.3145  0.2157 -0.4709
 9373SOL    HW128514   3.535   4.089   2.139 -0.6525 -1.6082 -0.0292
 9373SOL    HW228515   3.447   4.040   2.252 -1.7304  1.3637  0.5102
 9374SOL     OW28516   1.818   1.286   0.900  0.2995 -0.1765  0.5773
 9374SOL    HW128517   1.764   1.235   0.840  0.7488 -0.1109  0.1064
 9374SOL    HW228518   1.810   1.376   0.869  1.4669 -0.2925 -0.1320
 9375SOL     OW28519   6.384   0.762   4.725  0.1589 -0.5219 -0.4422
 9375SOL    HW128520   6.353   0.708   4.653  0.1959 -1.1740  0.0300
 9375SOL    HW228521   6.374   0.852   4.693 -3.2035 -0.6061  0.0655
 9376SOL     OW28522   1.445   0.595   5.122  0.6866 -0.1078 -0.0305
 9376SOL    HW128523   1.520   0.542   5.149 -0.1773 -0.2541  2.2982
 9376SOL    HW228524   1.383   0.533   5.085  0.7833 -0.3388  0.1907
 9377SOL     OW28525   1.530   2.322   3.937  0.0721  0.2924 -0.2149
 9377SOL    HW128526   1.551   2.376   4.013 -0.3072  1.5054 -0.9425
 9377SOL    HW228527   1.438   2.341   3.919  0.5082  1.0542 -1.7737
 9378SOL     OW28528   6.792   6.545   6.924  0.4599 -0.4028 -0.6100
 9378SOL    HW128529   6.792   6.466   6.870  2.2523  0.0412 -1.3526
 9378SOL    HW228530   6.714   6.593   6.897 -0.0036 -1.3633 -1.0056
 9379SOL     OW28531   3.859   1.387   4.484 -0.5153  0.1221 -0.6900
 9379SOL    HW128532   3.847   1.369   4.577 -1.2777  1.8927 -0.4037
 9379SOL    HW228533   3.782   1.346   4.442  0.0668 -1.0836 -0.6397
 9380SOL     OW28534   1.668   6.310   3.255  0.6814  0.2608 -0.2057
 9380SOL    HW128535   1.614   6.253   3.310  1.5012 -0.9134 -0.5601
 9380SOL    HW228536   1.693   6.383   3.312  1.3979 -0.8482  0.9721
 9381SOL     OW28537   1.128   2.302   5.805 -0.6467 -0.1779  0.5637
 9381SOL    HW128538   1.134   2.370   5.738  1.5424  1.8839  2.6363
 9381SOL    HW228539   1.053   2.327   5.858 -0.0368  0.4857  1.1343
 9382SOL     OW28540   3.642   4.022   2.011  0.0802  0.2237  0.2031
 9382SOL    HW128541   3.704   3.961   2.052 -1.8754 -1.0216  1.4866
 9382SOL    HW228542   3.686   4.050   1.931  2.2095 -0.7290  0.9620
 9383SOL     OW28543   2.625   6.812   4.889 -0.0666 -0.2972 -0.2963
 9383SOL    HW128544   2.542   6.812   4.842 -0.5267 -1.8393  0.4311
 9383SOL    HW228545   2.666   6.729   4.864  0.2461 -0.5661  1.0290
 9384SOL     OW28546   5.670   1.641   0.912 -0.7637 -0.2697 -0.1457
 9384SOL    HW128547   5.579   1.661   0.933 -0.9026  0.4404 -1.3747
 9384SOL    HW228548   5.684   1.676   0.824  0.7950 -0.0613  0.1413
 9385SOL     OW28549   6.064   6.269   4.973  0.4106  0.3034  0.1618
 9385SOL    HW128550   6.124   6.326   5.020  0.7641  0.3573 -0.3439
 9385SOL    HW228551   6.038   6.319   4.897 -0.6194  0.4421  0.6009
 9386SOL     OW28552   5.648   3.964   4.306 -0.3028 -0.1344  0.5787
 9386SOL    HW128553   5.738   3.930   4.305  0.3265  1.4062  1.6602
 9386SOL    HW228554   5.657   4.056   4.328 -2.1570  0.1173  0.4574
 9387SOL     OW28555   0.577   1.621   5.681 -0.3522  0.5092 -1.3592
 9387SOL    HW128556   0.512   1.665   5.627 -0.4916  1.8395 -0.1743
 9387SOL    HW228557   0.638   1.690   5.707  0.5660 -0.3821 -1.0486
 9388SOL     OW28558   2.509   0.422   1.909  0.4245 -0.4333 -0.2322
 9388SOL    HW128559   2.566   0.350   1.936 -1.3470 -1.8767 -0.1676
 9388SOL    HW228560   2.453   0.438   1.985 -0.2288 -0.0228 -0.7956
 9389SOL     OW28561   4.332   1.335   3.230 -0.0447 -0.8000  0.4891
 9389SOL    HW128562   4.248   1.348   3.273 -0.4142 -0.0755 -0.3956
 9389SOL    HW228563   4.383   1.412   3.254 -0.4560 -0.0924 -0.7573
 9390SOL     OW28564   1.635   1.535   4.446  0.5322 -0.7326 -0.3213
 9390SOL    HW128565   1.645   1.588   4.366 -0.4683 -0.9241 -0.5946
 9390SOL    HW228566   1.688   1.457   4.430  0.5723 -0.6350 -0.6802
 9391SOL     OW28567   0.008   4.826   6.407 -0.2515 -0.4236 -0.2417
 9391SOL    HW128568   0.088   4.777   6.387 -0.0294 -0.4827  0.7527
 9391SOL    HW228569   0.030   4.917   6.385  0.3248 -0.3369  0.6467
 9392SOL     OW28570   5.575   3.314   2.069  0.7119  0.5484 -0.1294
 9392SOL    HW128571   5.515   3.376   2.110  1.6860  1.6062 -0.2679
 9392SOL    HW228572   5.532   3.290   1.987  0.5519  1.4326 -0.3101
 9393SOL     OW28573   1.984   2.706   1.992  0.0957 -0.3450 -0.4638
 9393SOL    HW128574   1.995   2.611   1.987  0.8895 -0.2543 -0.5012
 9393SOL    HW228575   2.072   2.740   2.006 -0.2876  0.3310  0.4115
 9394SOL     OW28576   0.160   4.782   5.423  0.1538 -0.0827 -0.2638
 9394SOL    HW128577   0.244   4.749   5.393  0.3120 -1.3093  1.3770
 9394SOL    HW228578   0.104   4.705   5.427 -0.1951  0.2168  1.3717
 9395SOL     OW28579   4.570   4.001   2.753  0.3469 -0.8472  0.0050
 9395SOL    HW128580   4.528   3.921   2.787 -0.8481  0.3087  1.4119
 9395SOL    HW228581   4.621   4.034   2.827 -1.3954  1.1306  0.4291
 9396SOL     OW28582   1.853   5.883   0.853 -0.3236 -0.2359  0.3830
 9396SOL    HW128583   1.915   5.854   0.920 -0.7314  0.0103  0.8762
 9396SOL    HW228584   1.818   5.803   0.815 -1.1724 -0.4122  1.4822
 9397SOL     OW28585   3.006   0.521   3.863 -0.3879 -0.4038  0.9889
 9397SOL    HW128586   2.963   0.549   3.782 -0.3553 -2.8171  0.0396
 9397SOL    HW228587   3.099   0.531   3.845 -0.2184 -3.2977 -0.3896
 9398SOL     OW28588   3.602   6.164   3.993 -0.4589  0.2228 -0.1405
 9398SOL    HW128589   3.615   6.077   3.954 -0.1796  0.6877 -1.1204
 9398SOL    HW228590   3.657   6.163   4.071 -0.8007 -0.6380  0.0963
 9399SOL     OW28591   2.158   6.366   4.493 -0.0173 -0.2737 -0.2600
 9399SOL    HW128592   2.135   6.370   4.400  0.8969 -0.5955 -0.5182
 9399SOL    HW228593   2.188   6.454   4.515 -0.1802 -0.2117 -0.2889
 9400SOL     OW28594   1.995   2.278   2.706 -0.2325  0.1290 -0.1897
 9400SOL    HW128595   1.930   2.239   2.647  1.5909  0.2144 -2.3985
 9400SOL    HW228596   2.006   2.368   2.674  1.5140 -0.1240 -0.4333
 9401SOL     OW28597   2.924   6.536   0.488 -0.0946  0.3671 -0.1904
 9401SOL    HW128598   2.896   6.520   0.578 -0.1541 -2.3452 -0.5934
 9401SOL    HW228599   3.018   6.555   0.496 -0.0680  0.0199  0.4515
 9402SOL     OW28600   0.252   5.039   0.470  0.0682  0.2340  0.2392
 9402SOL    HW128601   0.231   4.949   0.492  1.6252 -0.7844 -2.0231
 9402SOL    HW228602   0.348   5.044   0.480 -0.1903  2.3970  2.6962
 9403SOL     OW28603   4.557   2.139   6.010  0.3804 -0.7068  0.2151
 9403SOL    HW128604   4.629   2.097   5.964  0.7490  0.0820  0.0630
 9403SOL    HW228605   4.584   2.230   6.020 -0.5717 -0.4111  0.2027
 9404SOL     OW28606   6.379   4.334   3.911 -0.0036 -0.0424  0.4927
 9404SOL    HW128607   6.422   4.300   3.832  2.5616  0.5826  1.5354
 9404SOL    HW228608   6.304   4.384   3.878  0.6398 -0.3233 -1.5010
 9405SOL     OW28609   0.316   5.404   4.173  0.4919 -0.4515 -0.2092
 9405SOL    HW128610   0.375   5.338   4.208  0.0877 -0.1067  1.1818
 9405SOL    HW228611   0.367   5.485   4.173 -0.0173 -0.0839  1.2978
 9406SOL     OW28612   3.739   5.127   6.161 -0.4366 -0.0707  0.0638
 9406SOL    HW128613   3.822   5.080   6.159  1.9703  3.7192  0.0000
 9406SOL    HW228614   3.717   5.133   6.254  0.3265  0.2847  0.2348
 9407SOL     OW28615   5.000   0.042   5.169 -0.3056  0.0843 -0.2860
 9407SOL    HW128616   5.012  -0.042   5.215  0.4006  0.8120  0.9089
 9407SOL    HW228617   5.053   0.033   5.090 -2.5347 -1.6724 -1.7453
 9408SOL     OW28618   1.783   3.144   5.937  0.7081  0.0749  0.1696
 9408SOL    HW128619   1.797   3.187   6.022  0.6338  0.9703 -0.2554
 9408SOL    HW228620   1.738   3.062   5.959  1.7567 -0.2774  1.0830
 9409SOL     OW28621   5.257   5.211   4.588 -0.3183  0.5254  0.6757
 9409SOL    HW128622   5.217   5.253   4.664  2.9129  2.9686  1.2244
 9409SOL    HW228623   5.302   5.281   4.542  1.9042 -1.6590 -0.7627
 9410SOL     OW28624   2.320   2.921   1.274  0.0309 -0.3405 -0.4265
 9410SOL    HW128625   2.284   2.934   1.186 -0.1350  0.1560 -0.2927
 9410SOL    HW228626   2.250   2.877   1.322 -0.2542  0.2482 -0.2842
 9411SOL     OW28627   6.685   2.411   6.323  0.0548 -0.1217  0.0354
 9411SOL    HW128628   6.765   2.362   6.306  0.9117  1.1382  0.2967
 9411SOL    HW228629   6.667   2.395   6.416 -0.0759 -0.5070 -0.0545
 9412SOL     OW28630   4.271   2.609   1.446 -0.2633 -0.0192 -0.1747
 9412SOL    HW128631   4.353   2.562   1.438 -1.7345 -2.5787 -1.1960
 9412SOL    HW228632   4.267   2.633   1.539  1.4650 -0.0900 -0.0451
 9413SOL     OW28633   0.921   5.718   3.155  0.0982  0.2263  0.5143
 9413SOL    HW128634   0.963   5.779   3.095  0.4182 -0.2682  0.2307
 9413SOL    HW228635   0.904   5.769   3.234 -0.1454  0.8289  0.0765
 9414SOL     OW28636   2.310   6.780   3.096  0.0058 -0.0244 -0.1434
 9414SOL    HW128637   2.343   6.746   3.013  0.3531  0.4595 -0.2114
 9414SOL    HW228638   2.258   6.709   3.133 -1.3138  0.2261 -1.4225
 9415SOL     OW28639   5.826   4.698   1.740 -0.1358 -0.3539 -0.0857
 9415SOL    HW128640   5.771   4.768   1.704 -0.7651 -1.3201 -1.0557
 9415SOL    HW228641   5.799   4.619   1.693  0.5162 -1.2738  1.0282
 9416SOL     OW28642   2.455   1.741   2.196 -0.0523  0.3642 -0.3125
 9416SOL    HW128643   2.444   1.836   2.193 -0.9517  0.3077  0.7226
 9416SOL    HW228644   2.520   1.728   2.266  0.0802  0.2164 -0.4643
 9417SOL     OW28645   3.781   4.672   4.013 -0.4279  0.4158 -0.5005
 9417SOL    HW128646   3.871   4.640   4.000  1.0022  3.9523 -0.3761
 9417SOL    HW228647   3.742   4.668   3.926  0.2633 -0.0175 -0.8056
 9418SOL     OW28648   6.900   5.332   4.341  0.0168  0.0441 -0.1937
 9418SOL    HW128649   6.938   5.415   4.369 -2.1704  0.8886  0.5474
 9418SOL    HW228650   6.946   5.266   4.392  0.1705  1.0467  1.0180
 9419SOL     OW28651   0.367   2.702   0.951 -0.0299 -0.1760 -0.4802
 9419SOL    HW128652   0.334   2.792   0.954  0.1505 -0.1378  0.9808
 9419SOL    HW228653   0.414   2.697   0.867  0.0329  1.1087 -0.5512
 9420SOL     OW28654   5.463   5.366   4.210  0.9082 -0.5540  0.2854
 9420SOL    HW128655   5.552   5.386   4.183  0.3147 -0.3812 -1.7728
 9420SOL    HW228656   5.417   5.450   4.205 -0.3314 -1.2749 -3.0737
 9421SOL     OW28657   6.642   6.586   3.940  0.3632 -0.0074  0.0688
 9421SOL    HW128658   6.738   6.578   3.941  0.3076 -1.0292  1.5325
 9421SOL    HW228659   6.618   6.567   3.849  1.5136 -0.4808 -0.1663
 9422SOL     OW28660   5.376   3.657   2.482 -0.4332 -0.2873  0.5220
 9422SOL    HW128661   5.350   3.740   2.442 -1.6908 -1.6691 -1.7482
 9422SOL    HW228662   5.308   3.595   2.455 -0.1760 -1.8468  3.1144
 9423SOL     OW28663   3.698   4.508   1.107  0.0508 -0.0821 -0.2506
 9423SOL    HW128664   3.708   4.485   1.199  1.8065  2.5451  0.3396
 9423SOL    HW228665   3.757   4.449   1.060  2.7539  1.5014  0.9249
 9424SOL     OW28666   1.453   2.017   5.050  0.5006 -0.0549  0.3579
 9424SOL    HW128667   1.402   2.045   4.974 -0.0082  2.0676  1.4168
 9424SOL    HW228668   1.529   2.075   5.050  0.3883  0.1006  1.5744
 9425SOL     OW28669   2.059   5.463   4.114 -0.2205 -0.0284  0.4830
 9425SOL    HW128670   2.010   5.512   4.180 -0.4733  0.4990 -0.0835
 9425SOL    HW228671   2.003   5.466   4.036  1.7096  2.7182 -0.9606
 9426SOL     OW28672   1.013   6.075   3.999 -0.3786  0.7752  0.5666
 9426SOL    HW128673   1.057   6.118   4.073  2.2973  0.1214 -0.5190
 9426SOL    HW228674   0.980   6.146   3.945  1.2208  1.4106  0.3844
 9427SOL     OW28675   1.139   2.843   4.250  0.0669 -0.1919 -0.0733
 9427SOL    HW128676   1.085   2.907   4.203 -0.0085  0.4555  0.8500
 9427SOL    HW228677   1.106   2.847   4.340  1.1161 -0.3790  0.3337
 9428SOL     OW28678   3.060   3.489   6.748 -0.2783  0.0458 -0.0743
 9428SOL    HW128679   3.067   3.530   6.834  0.9741  0.4321 -0.3369
 9428SOL    HW228680   2.971   3.511   6.718 -1.0654 -0.8597  1.4679
 9429SOL     OW28681   5.226   6.428   0.138  0.1352  0.2572  0.5005
 9429SOL    HW128682   5.313   6.407   0.172  0.9845 -0.6616 -2.0205
 9429SOL    HW228683   5.167   6.370   0.185  1.1280 -0.3824  0.9877
 9430SOL     OW28684   2.859   0.649   2.189  0.4113 -0.1655  0.3854
 9430SOL    HW128685   2.771   0.681   2.171  0.4768  0.0491  0.4423
 9430SOL    HW228686   2.849   0.554   2.195  0.2327 -0.1670  0.1173
 9431SOL     OW28687   6.257   6.203   4.208 -0.6919 -0.4896  0.9771
 9431SOL    HW128688   6.338   6.154   4.226  0.0648  0.8599  1.4470
 9431SOL    HW228689   6.259   6.275   4.272 -1.3422  0.6073 -0.1979
 9432SOL     OW28690   6.671   2.411   4.756 -0.2401 -0.1643 -0.7918
 9432SOL    HW128691   6.652   2.333   4.806 -0.6343  1.5222  1.8754
 9432SOL    HW228692   6.765   2.426   4.767 -0.5979  1.1047  0.9663
 9433SOL     OW28693   1.512   0.633   2.186 -0.3262 -0.0820 -0.1764
 9433SOL    HW128694   1.471   0.564   2.238 -0.1072 -0.9834 -1.1802
 9433SOL    HW228695   1.549   0.588   2.110  2.8400  0.5760  0.7957
 9434SOL     OW28696   6.053   0.521   2.730 -0.1623  0.3059  0.1573
 9434SOL    HW128697   6.061   0.616   2.738 -0.5692  0.4756 -1.2999
 9434SOL    HW228698   6.103   0.487   2.804  1.0287  1.6347  0.0024
 9435SOL     OW28699   6.643   6.254   2.344 -0.4343 -0.1505  0.3154
 9435SOL    HW128700   6.615   6.205   2.421 -0.6435 -1.5219 -0.6070
 9435SOL    HW228701   6.564   6.298   2.313 -0.4253  0.1215  0.6796
 9436SOL     OW28702   2.499   3.032   5.281  0.1290  0.2791 -0.2432
 9436SOL    HW128703   2.447   3.102   5.321 -0.2131  0.0676 -0.3194
 9436SOL    HW228704   2.435   2.967   5.253  0.4033  0.2122 -0.7243
 9437SOL     OW28705   6.830   3.906   3.708  0.4247 -0.4389  0.1209
 9437SOL    HW128706   6.862   3.884   3.621 -0.6191  1.1227 -0.7098
 9437SOL    HW228707   6.751   3.853   3.719  0.0642  0.0211 -0.2526
 9438SOL     OW28708   0.306   1.468   6.007 -0.6692  0.2047 -0.2365
 9438SOL    HW128709   0.338   1.399   6.064 -0.1872  2.1196  1.9541
 9438SOL    HW228710   0.385   1.512   5.976 -1.0020  1.0132  0.0360
 9439SOL     OW28711   2.673   2.511   4.951 -0.4124  0.3542  0.5297
 9439SOL    HW128712   2.723   2.578   4.997 -1.1996  1.6383 -0.4053
 9439SOL    HW228713   2.610   2.479   5.016 -0.0840  0.5866  0.9609
 9440SOL     OW28714   0.949   6.156   0.446  0.0667  0.0363 -0.6398
 9440SOL    HW128715   0.885   6.089   0.424 -0.5428 -0.0669  1.3258
 9440SOL    HW228716   0.940   6.222   0.376 -1.8737 -0.1821 -0.6326
 9441SOL     OW28717   0.324   4.679   4.240 -0.6663 -0.2374 -0.1285
 9441SOL    HW128718   0.363   4.764   4.220 -0.6296 -0.2888 -0.2738
 9441SOL    HW228719   0.238   4.682   4.198 -0.8959 -0.0531  0.3474
 9442SOL     OW28720   0.448   5.688   0.737 -0.0529 -0.5881  0.0639
 9442SOL    HW128721   0.453   5.642   0.821 -1.7342  0.3326  0.7169
 9442SOL    HW228722   0.433   5.620   0.672 -0.3486 -1.1700  0.7301
 9443SOL     OW28723   1.991   2.900   0.243  0.1077 -0.4964 -0.7326
 9443SOL    HW128724   2.039   2.983   0.253  0.1791 -0.6669  0.4740
 9443SOL    HW228725   1.992   2.861   0.330 -1.9070 -0.6906 -0.7519
 9444SOL     OW28726   4.634   3.507   1.012  0.1985 -0.1328 -0.0319
 9444SOL    HW128727   4.551   3.500   1.060 -0.2916  1.8635 -0.5020
 9444SOL    HW228728   4.691   3.441   1.053 -1.8171 -2.1106 -0.2160
 9445SOL     OW28729   5.366   3.040   3.315 -0.3106 -0.2533  0.1063
 9445SOL    HW128730   5.389   3.107   3.380 -0.3157 -1.6292  1.5890
 9445SOL    HW228731   5.385   2.957   3.359 -0.2437 -1.2370 -1.7075
 9446SOL     OW28732   5.355   1.722   4.556  0.7866 -0.2256  0.2380
 9446SOL    HW128733   5.325   1.747   4.469  1.7274 -0.0139 -0.0404
 9446SOL    HW228734   5.277   1.690   4.600  0.5061 -1.4887 -1.0925
 9447SOL     OW28735   0.510   5.391   3.098  0.2273  0.1384 -0.0826
 9447SOL    HW128736   0.586   5.433   3.059 -0.2393  0.7304 -0.3702
 9447SOL    HW228737   0.486   5.447   3.172  0.4742 -0.4132  0.4267
 9448SOL     OW28738   0.587   5.367   5.779  0.2434 -0.7172 -0.0090
 9448SOL    HW128739   0.639   5.288   5.790  0.0348 -0.7154  1.0971
 9448SOL    HW228740   0.629   5.432   5.835  0.4123 -0.0232 -0.9024
 9449SOL     OW28741   4.529   2.726   1.741 -0.0585  0.2089 -0.3260
 9449SOL    HW128742   4.488   2.812   1.751  1.5695  1.0922 -0.6900
 9449SOL    HW228743   4.567   2.728   1.653  2.4701  0.2977  0.6840
 9450SOL     OW28744   2.438   5.110   1.550  0.3584 -0.1181 -0.0305
 9450SOL    HW128745   2.359   5.123   1.603  0.1721 -3.1898  0.6217
 9450SOL    HW228746   2.405   5.087   1.463  0.5450 -0.2494 -0.0680
 9451SOL     OW28747   1.119   4.542   5.132 -0.3423 -0.2574 -0.0302
 9451SOL    HW128748   1.092   4.618   5.184  0.4518  0.4358 -0.6004
 9451SOL    HW228749   1.199   4.510   5.175 -0.3744 -0.4412 -0.1057
 9452SOL     OW28750   3.663   0.457   1.985 -0.3443 -0.0747  0.2598
 9452SOL    HW128751   3.616   0.398   1.926 -1.1372  0.1994  0.6025
 9452SOL    HW228752   3.730   0.402   2.025  0.5592 -0.1386 -1.2846
 9453SOL     OW28753   2.983   0.655   0.923  0.3025  0.4927 -0.1511
 9453SOL    HW128754   3.000   0.634   1.015 -0.4030 -0.5463 -0.2383
 9453SOL    HW228755   2.971   0.570   0.881  1.7777  0.8744 -1.4605
 9454SOL     OW28756   5.321   3.935   5.451  0.3240  0.2841 -0.3797
 9454SOL    HW128757   5.260   4.001   5.485  1.2022  1.3877 -0.8601
 9454SOL    HW228758   5.273   3.892   5.381 -0.0296  0.9098 -0.5331
 9455SOL     OW28759   1.737   2.508   5.455 -0.3292 -0.3392 -0.1744
 9455SOL    HW128760   1.689   2.575   5.503 -0.3782 -0.7948  0.4231
 9455SOL    HW228761   1.829   2.530   5.468 -0.3487 -0.2952 -0.1090
 9456SOL     OW28762   3.047   4.283   6.811  0.7459 -0.5275  0.5558
 9456SOL    HW128763   3.027   4.377   6.817  0.0766 -0.6939  0.9133
 9456SOL    HW228764   3.039   4.250   6.900 -0.2319 -1.1688  0.2427
 9457SOL     OW28765   2.608   2.871   3.534 -0.2770  0.1834 -0.4473
 9457SOL    HW128766   2.655   2.917   3.603  1.7344 -1.1658 -0.8186
 9457SOL    HW228767   2.674   2.855   3.467 -0.8727 -2.9999 -0.4255
 9458SOL     OW28768   6.208   3.429   6.839  0.0293 -0.3788  0.1832
 9458SOL    HW128769   6.129   3.474   6.807  0.4795 -1.4813 -2.8597
 9458SOL    HW228770   6.186   3.336   6.835  0.7777 -0.6371  1.4940
 9459SOL     OW28771   1.294   5.172   5.634 -0.9688  0.1261 -0.0633
 9459SOL    HW128772   1.219   5.118   5.607 -1.4515  1.2494 -1.0841
 9459SOL    HW228773   1.334   5.123   5.706 -1.2951 -1.6416 -1.0344
 9460SOL     OW28774   6.489   2.909   5.909  0.4525 -0.1216  0.1385
 9460SOL    HW128775   6.565   2.892   5.965 -0.3187  0.0467  1.2708
 9460SOL    HW228776   6.467   2.823   5.874  0.7833 -0.2816  0.3069
 9461SOL     OW28777   0.147   5.920   2.464  0.3998 -0.3362  0.0404
 9461SOL    HW128778   0.151   5.848   2.402  0.4746  0.1743 -0.5498
 9461SOL    HW228779   0.238   5.936   2.489  0.3701 -0.5402  0.2889
 9462SOL     OW28780   1.430   3.129   5.247  0.1624 -0.1069 -0.0779
 9462SOL    HW128781   1.384   3.157   5.326 -0.3601 -0.3679 -0.2836
 9462SOL    HW228782   1.365   3.136   5.177  0.3144 -0.8445 -0.3060
 9463SOL     OW28783   4.200   5.757   0.400  0.6298  0.7865  0.0930
 9463SOL    HW128784   4.147   5.679   0.416  1.3178  0.3285  0.1473
 9463SOL    HW228785   4.144   5.813   0.346 -0.1168  0.5475  0.6047
 9464SOL     OW28786   2.702   6.737   3.725  0.2176 -0.3677 -0.7402
 9464SOL    HW128787   2.789   6.700   3.709  0.8897  1.0898 -0.5732
 9464SOL    HW228788   2.642   6.677   3.680  1.0376 -2.7766  1.1600
 9465SOL     OW28789   6.484   0.103   3.693 -0.0120  0.6475  0.0491
 9465SOL    HW128790   6.537   0.052   3.753  1.1356 -0.0295 -1.4615
 9465SOL    HW228791   6.394   0.083   3.717  0.4150 -1.3619  0.1313
 9466SOL     OW28792   6.503   2.478   1.644  0.1589  0.1854 -0.1215
 9466SOL    HW128793   6.495   2.573   1.651  0.3798  0.1259  1.1757
 9466SOL    HW228794   6.446   2.455   1.570  2.9362  1.6840 -3.0052
 9467SOL     OW28795   2.423   5.681   5.394 -0.4696 -0.3665 -0.9063
 9467SOL    HW128796   2.489   5.642   5.338 -1.5046 -1.9882 -1.0587
 9467SOL    HW228797   2.415   5.621   5.468 -1.0614  0.3233 -0.3946
 9468SOL     OW28798   0.546   5.283   4.305 -0.0033  0.4683  0.2356
 9468SOL    HW128799   0.592   5.343   4.365  0.9080 -0.7724  0.8261
 9468SOL    HW228800   0.509   5.216   4.363  1.9781 -1.4746 -0.6254
 9469SOL     OW28801   1.740   1.291   6.777 -0.3180 -0.7004 -0.2642
 9469SOL    HW128802   1.817   1.344   6.798 -0.2849 -0.3637 -1.1954
 9469SOL    HW228803   1.758   1.206   6.817  0.6577 -0.7039 -0.6820
 9470SOL     OW28804   6.880   4.642   1.440  0.1934 -0.0850  0.4644
 9470SOL    HW128805   6.860   4.585   1.366 -0.9102  1.4100 -0.4201
 9470SOL    HW228806   6.795   4.658   1.481  0.3175  1.8071  0.0316
 9471SOL     OW28807   6.637   1.226   4.224 -0.3419 -0.0431 -0.5593
 9471SOL    HW128808   6.667   1.252   4.137 -1.8817  2.0980 -0.5240
 9471SOL    HW228809   6.617   1.133   4.215  0.1991 -0.0323 -2.2890
 9472SOL     OW28810   1.653   6.795   5.799 -0.0532  0.7241  0.0437
 9472SOL    HW128811   1.719   6.863   5.788 -0.1645  0.5805 -2.0648
 9472SOL    HW228812   1.575   6.842   5.828  0.5967  1.0786  1.2798
 9473SOL     OW28813   1.707   1.511   3.575 -0.5228 -0.5922  0.4091
 9473SOL    HW128814   1.714   1.454   3.498  1.3341  0.4456 -0.2580
 9473SOL    HW228815   1.780   1.572   3.566 -1.8023  1.2230  1.6526
 9474SOL     OW28816   4.176   0.160   1.475 -0.3577 -0.1277  0.0504
 9474SOL    HW128817   4.221   0.120   1.401  0.5162  0.6302  0.1603
 9474SOL    HW228818   4.244   0.208   1.522 -1.0616  0.0866  0.8771
 9475SOL     OW28819   5.251   4.150   3.258 -0.6172 -0.4374 -0.2318
 9475SOL    HW128820   5.203   4.096   3.321  0.3813 -1.2475 -0.1517
 9475SOL    HW228821   5.186   4.168   3.189 -1.5164 -0.1161  0.6699
 9476SOL     OW28822   4.212   1.946   2.577 -0.5102 -0.2722 -0.3074
 9476SOL    HW128823   4.276   1.883   2.609 -2.1055 -2.0663 -0.4743
 9476SOL    HW228824   4.162   1.972   2.655  1.3502  2.3932  0.1286
 9477SOL     OW28825   6.191   2.281   4.847 -0.7020 -0.2998 -0.1159
 9477SOL    HW128826   6.238   2.277   4.930  1.5516 -0.6795 -1.3141
 9477SOL    HW228827   6.260   2.290   4.781 -2.3064 -1.3116 -2.0582
 9478SOL     OW28828   6.607   3.454   4.753 -0.2966 -0.0867 -0.3145
 9478SOL    HW128829   6.680   3.397   4.775 -0.3887 -0.2030 -0.3074
 9478SOL    HW228830   6.647   3.534   4.720 -0.1553  0.0434  0.1640
 9479SOL     OW28831   5.734   5.716   6.465 -0.1105  0.2828  0.1445
 9479SOL    HW128832   5.716   5.809   6.483  1.4509  0.4281  1.2253
 9479SOL    HW228833   5.825   5.705   6.491  0.1566 -1.2474 -1.3077
 9480SOL     OW28834   2.172   0.463   5.336 -0.2159 -0.3125  0.2664
 9480SOL    HW128835   2.211   0.534   5.284 -0.5159 -0.1482  0.2620
 9480SOL    HW228836   2.222   0.385   5.311  0.3180 -0.0494  0.4967
 9481SOL     OW28837   3.875   5.044   3.707  0.0331 -0.5394 -0.2936
 9481SOL    HW128838   3.886   5.104   3.633  0.0269 -2.1372 -1.6356
 9481SOL    HW228839   3.836   4.965   3.669  0.0228 -1.4084  1.4219
 9482SOL     OW28840   6.336   1.672   0.250  0.3659 -0.2413  0.5785
 9482SOL    HW128841   6.314   1.706   0.163  3.7287  1.2670  0.1382
 9482SOL    HW228842   6.349   1.578   0.237  0.2118 -0.1352 -0.4018
 9483SOL     OW28843   6.921   5.688   1.207 -0.2900  0.0871 -0.3960
 9483SOL    HW128844   6.839   5.701   1.160 -1.6107  1.8465  2.1101
 9483SOL    HW228845   6.906   5.609   1.260  0.0028 -0.1374 -0.6482
 9484SOL     OW28846   4.788   5.827   1.594  0.4436  0.2537  0.7539
 9484SOL    HW128847   4.747   5.885   1.530 -0.9449 -0.8823  0.5658
 9484SOL    HW228848   4.853   5.882   1.638  0.3225  1.4881 -0.5292
 9485SOL     OW28849   6.467   6.815   3.038 -0.2622  0.3868  0.1982
 9485SOL    HW128850   6.408   6.878   3.079 -0.5401  0.6253 -0.5480
 9485SOL    HW228851   6.554   6.853   3.048 -0.5375  1.5164 -1.2992
 9486SOL     OW28852   3.606   1.211   3.597  0.3639  0.3622  1.0899
 9486SOL    HW128853   3.603   1.135   3.539  0.1278 -0.0289  1.6075
 9486SOL    HW228854   3.698   1.218   3.623  0.8443  1.6551 -0.7726
 9487SOL     OW28855   0.147   1.005   4.404 -0.3895 -0.0775 -0.0577
 9487SOL    HW128856   0.099   1.038   4.481  0.5270  1.1430  0.0231
 9487SOL    HW228857   0.213   1.072   4.387 -0.4013 -0.4718 -1.7614
 9488SOL     OW28858   3.805   0.344   5.151 -0.0775 -0.3897  0.7942
 9488SOL    HW128859   3.750   0.390   5.214  0.7153  0.6190  0.7703
 9488SOL    HW228860   3.883   0.318   5.201  0.3807  0.0780  0.3296
 9489SOL     OW28861   3.012   5.631   1.487  0.3024 -0.1501 -0.3766
 9489SOL    HW128862   3.104   5.608   1.494  0.2739 -0.5318 -1.2432
 9489SOL    HW228863   2.967   5.549   1.469 -0.2755 -0.0471  0.4869
 9490SOL     OW28864   0.272   3.728   3.581  0.3718 -0.5514  0.1367
 9490SOL    HW128865   0.265   3.645   3.534  0.4805  0.0002 -0.8814
 9490SOL    HW228866   0.357   3.763   3.555  0.2887 -0.0703  0.4983
 9491SOL     OW28867   5.530   2.721   6.375 -0.0975  0.0163  0.3160
 9491SOL    HW128868   5.607   2.696   6.324 -1.4679 -2.0680 -0.8863
 9491SOL    HW228869   5.558   2.712   6.466  1.4264  0.5872 -0.0568
 9492SOL     OW28870   5.331   0.619   5.293 -0.1269  0.4223  0.0677
 9492SOL    HW128871   5.236   0.632   5.295  0.0050  1.5302  2.7623
 9492SOL    HW228872   5.366   0.703   5.262  0.0121  0.1388 -0.5643
 9493SOL     OW28873   4.863   1.854   6.290  0.2506 -0.1797 -0.1194
 9493SOL    HW128874   4.908   1.918   6.234 -0.1431 -0.4880 -0.7963
 9493SOL    HW228875   4.933   1.801   6.328  0.4656 -0.6787 -1.1926
 9494SOL     OW28876   1.472   3.583   3.722  0.1233 -0.7959 -0.5349
 9494SOL    HW128877   1.536   3.592   3.651  2.1065 -0.5556  1.1657
 9494SOL    HW228878   1.470   3.670   3.762 -0.4070 -1.1168  0.1449
 9495SOL     OW28879   5.352   5.367   3.024  0.1157  0.0319 -0.0287
 9495SOL    HW128880   5.292   5.292   3.023  2.0001 -1.6236  1.5922
 9495SOL    HW228881   5.438   5.329   3.004  1.2134  1.6641  1.3632
 9496SOL     OW28882   1.956   2.531   1.290 -0.0051  0.4269  0.4371
 9496SOL    HW128883   1.878   2.545   1.237 -1.0053 -0.5721  1.5778
 9496SOL    HW228884   1.925   2.535   1.380  0.4599 -3.5203  0.9729
 9497SOL     OW28885   0.937   0.604   2.019  1.0284  0.5276  0.5415
 9497SOL    HW128886   0.966   0.540   2.083 -1.1425 -0.6096  0.4989
 9497SOL    HW228887   0.961   0.566   1.934  0.6510  0.2552  0.5551
 9498SOL     OW28888   1.031   6.412   5.923  0.4436  0.1266 -0.1505
 9498SOL    HW128889   0.987   6.396   5.839  0.9347  0.6080 -0.5159
 9498SOL    HW228890   0.961   6.436   5.983 -0.0590 -1.3596 -0.1086
 9499SOL     OW28891   6.420   6.231   2.806 -0.0059 -0.9426  0.7508
 9499SOL    HW128892   6.458   6.242   2.893 -0.9484  0.2385  1.0353
 9499SOL    HW228893   6.326   6.218   2.822 -0.4234  0.7486 -0.1354
 9500SOL     OW28894   1.104   6.694   1.826 -0.6765 -0.2578 -0.5321
 9500SOL    HW128895   1.009   6.683   1.836 -0.6338  1.2265  2.3439
 9500SOL    HW228896   1.135   6.606   1.805 -2.6693 -0.7164 -1.9857
 9501SOL     OW28897   0.827   1.338   2.295  0.1029 -0.1473 -0.3226
 9501SOL    HW128898   0.860   1.248   2.295 -1.5149 -0.9428  3.1605
 9501SOL    HW228899   0.891   1.387   2.347 -0.5349 -0.0468  0.3866
 9502SOL     OW28900   5.220   5.740   5.476  0.2286 -0.3019  0.0762
 9502SOL    HW128901   5.202   5.776   5.389 -1.0644  0.2049  0.5408
 9502SOL    HW228902   5.315   5.748   5.486  0.4012 -0.4282 -1.3103
 9503SOL     OW28903   0.172   2.796   6.300  0.1345 -0.0429 -0.1176
 9503SOL    HW128904   0.122   2.791   6.218  0.1902 -2.2978 -0.0931
 9503SOL    HW228905   0.129   2.732   6.357  1.5985 -0.3073  0.7361
 9504SOL     OW28906   3.110   0.986   4.504  0.0758 -0.0869 -0.3884
 9504SOL    HW128907   3.094   1.000   4.598 -2.3182  0.6952 -0.8468
 9504SOL    HW228908   3.132   0.893   4.497  1.1055  0.0063  1.0066
 9505SOL     OW28909   1.002   0.467   5.318 -0.0065  0.4021  0.4319
 9505SOL    HW128910   1.079   0.412   5.334  1.2610  1.8848 -0.3095
 9505SOL    HW228911   0.928   0.416   5.351  1.2216 -1.3281  0.5960
 9506SOL     OW28912   1.129   4.925   0.568  0.0314  0.0408 -0.3482
 9506SOL    HW128913   1.132   5.019   0.585 -0.4715 -0.2669  1.8545
 9506SOL    HW228914   1.167   4.886   0.647 -0.9382 -1.6412 -0.6688
 9507SOL     OW28915   1.388   2.293   2.683  0.6302  0.7615  0.3639
 9507SOL    HW128916   1.462   2.344   2.714  1.9965 -0.9562  0.1252
 9507SOL    HW228917   1.319   2.308   2.747  1.7795  1.0482  1.5874
 9508SOL     OW28918   4.633   0.489   5.668 -1.0280 -0.4385  0.3721
 9508SOL    HW128919   4.560   0.519   5.722 -1.0172 -1.4162  0.9651
 9508SOL    HW228920   4.594   0.426   5.608 -0.9592  0.3131 -0.4758
 9509SOL     OW28921   0.926   1.833   2.531  0.6935  0.5929 -0.4967
 9509SOL    HW128922   0.929   1.928   2.543 -0.3054  0.6725 -0.8178
 9509SOL    HW228923   0.835   1.814   2.513  0.6334 -0.6028  0.8733
 9510SOL     OW28924   3.916   3.666   3.471 -0.6627 -0.0446  0.5092
 9510SOL    HW128925   3.975   3.733   3.503  0.0662 -0.0149 -0.8091
 9510SOL    HW228926   3.966   3.621   3.402 -1.5863 -1.0982  0.4967
 9511SOL     OW28927   1.070   0.744   3.480 -0.1342 -0.0808  0.1860
 9511SOL    HW128928   0.975   0.733   3.473 -0.0941 -0.0283 -0.5126
 9511SOL    HW228929   1.081   0.808   3.551 -0.6212 -0.0003  0.1968
 9512SOL     OW28930   0.264   6.837   1.747 -0.8274 -0.1955 -0.5401
 9512SOL    HW128931   0.227   6.754   1.778 -0.1685  0.1102  1.1308
 9512SOL    HW228932   0.240   6.901   1.814  1.7148  0.2270  0.0442
 9513SOL     OW28933   2.862   1.135   2.251 -0.1110  0.0062 -0.3360
 9513SOL    HW128934   2.863   1.046   2.287  0.1011 -0.3235 -1.1368
 9513SOL    HW228935   2.951   1.167   2.263  0.4774 -0.8088 -2.2441
 9514SOL     OW28936   0.130   1.483   4.971 -0.0254 -0.0430 -0.1736
 9514SOL    HW128937   0.083   1.423   5.030  1.3839 -1.7881 -0.7216
 9514SOL    HW228938   0.067   1.501   4.901 -0.6678 -0.4523  0.2851
 9515SOL     OW28939   1.572   0.908   4.467  0.5792  0.4305  0.4185
 9515SOL    HW128940   1.613   0.947   4.389 -0.0888  1.0115  0.3448
 9515SOL    HW228941   1.557   0.982   4.526  2.4207 -0.2006  1.7478
 9516SOL     OW28942   6.269   0.262   1.321 -0.0645  0.7183 -0.1927
 9516SOL    HW128943   6.347   0.313   1.299  0.3400 -0.0395 -0.5503
 9516SOL    HW228944   6.244   0.219   1.239  0.2823 -0.5759  0.3528
 9517SOL     OW28945   4.478   2.718   2.533 -0.5896  0.3707  0.5978
 9517SOL    HW128946   4.574   2.720   2.543 -0.6688  0.6348  1.4135
 9517SOL    HW228947   4.445   2.755   2.615 -1.3850  1.0826 -0.0325
 9518SOL     OW28948   6.724   1.783   2.968 -0.1844  0.3461 -0.2217
 9518SOL    HW128949   6.745   1.852   3.030  0.4123  0.6936 -0.8069
 9518SOL    HW228950   6.681   1.716   3.021  2.2586 -0.3398  1.0115
 9519SOL     OW28951   0.775   0.178   6.209 -0.0098 -0.6099  0.1021
 9519SOL    HW128952   0.842   0.203   6.274 -0.1410  0.1752 -0.0609
 9519SOL    HW228953   0.808   0.213   6.126  0.0947 -1.5049 -0.2457
 9520SOL     OW28954   6.555   4.254   2.171 -0.1521  0.3416 -0.4190
 9520SOL    HW128955   6.520   4.334   2.133 -2.8131 -1.3161 -1.7756
 9520SOL    HW228956   6.578   4.200   2.095  0.3706 -0.6587  0.4344
 9521SOL     OW28957   2.159   0.694   5.152 -0.2612  0.1320  0.3242
 9521SOL    HW128958   2.157   0.666   5.061  1.0464 -0.1457  0.3704
 9521SOL    HW228959   2.066   0.704   5.175 -0.6796 -1.2954 -0.5729
 9522SOL     OW28960   1.150   1.527   3.176  0.1376  0.7468 -0.4818
 9522SOL    HW128961   1.075   1.566   3.132 -0.5313  0.0381 -0.0017
 9522SOL    HW228962   1.201   1.486   3.106 -0.9426 -0.4220 -0.6093
 9523SOL     OW28963   6.611   3.857   4.771 -0.1801 -0.4816  0.1574
 9523SOL    HW128964   6.607   3.893   4.859  0.4996 -0.2560  0.1076
 9523SOL    HW228965   6.520   3.846   4.744 -0.4098  0.8521  0.3237
 9524SOL     OW28966   1.384   4.310   3.302  0.4869  0.0097 -0.2730
 9524SOL    HW128967   1.305   4.357   3.331 -0.6044 -1.0911 -1.3457
 9524SOL    HW228968   1.435   4.298   3.382 -0.4251  0.7688  0.4480
 9525SOL     OW28969   5.008   4.440   6.617 -0.2079 -0.3005 -0.1569
 9525SOL    HW128970   5.078   4.499   6.588  0.9444 -1.7581 -0.4777
 9525SOL    HW228971   5.011   4.444   6.712 -0.2720  0.3035 -0.1781
 9526SOL     OW28972   1.749   3.169   5.351 -0.1577  0.1485 -0.5431
 9526SOL    HW128973   1.670   3.154   5.403 -0.1970 -1.0674 -0.9157
 9526SOL    HW228974   1.821   3.151   5.411 -0.1903 -0.0101 -0.5490
 9527SOL     OW28975   0.706   4.078   5.033 -0.3429  0.1234  0.3095
 9527SOL    HW128976   0.616   4.047   5.030  0.2063 -1.5271 -0.5910
 9527SOL    HW228977   0.726   4.085   5.126 -0.7785 -1.4714  0.5487
 9528SOL     OW28978   5.787   2.178   6.372 -0.2861 -0.0297 -0.2272
 9528SOL    HW128979   5.691   2.176   6.375 -0.2637 -1.9327  1.4284
 9528SOL    HW228980   5.812   2.246   6.435 -0.5078  0.9201 -1.1272
 9529SOL     OW28981   2.866   1.798   5.166 -0.7126  0.4862 -0.8704
 9529SOL    HW128982   2.819   1.768   5.088 -1.5548 -0.2309 -0.1056
 9529SOL    HW228983   2.893   1.888   5.144  0.2323 -0.1355 -2.4814
 9530SOL     OW28984   4.126   3.334   3.943  0.1133  0.0052 -0.7817
 9530SOL    HW128985   4.074   3.359   4.019  0.4327 -1.5903  0.0062
 9530SOL    HW228986   4.106   3.401   3.877 -0.6751  1.0460  0.4711
 9531SOL     OW28987   2.808   5.464   0.135  0.4528  0.3590  0.5421
 9531SOL    HW128988   2.736   5.438   0.192  0.6779 -0.6013  0.4179
 9531SOL    HW228989   2.884   5.415   0.168  0.4008 -0.9012 -1.0693
 9532SOL     OW28990   4.691   0.692   6.422  0.1424  0.8197  0.3398
 9532SOL    HW128991   4.627   0.763   6.427 -0.3713  0.3815  0.1067
 9532SOL    HW228992   4.760   0.726   6.366  0.0184  1.2288  0.4317
 9533SOL     OW28993   3.022   4.668   1.982 -0.5494  0.6373  0.1551
 9533SOL    HW128994   3.095   4.664   2.044  0.3289  1.0075 -0.8283
 9533SOL    HW228995   3.010   4.761   1.964 -0.4757  0.5122 -0.5844
 9534SOL     OW28996   6.482   3.848   6.578 -0.2119 -0.3484  0.1457
 9534SOL    HW128997   6.545   3.891   6.521  0.3521 -1.8774 -0.4445
 9534SOL    HW228998   6.522   3.850   6.665 -0.5233  0.9273  0.2673
 9535SOL     OW28999   5.717   2.511   0.882  0.1569  0.2082  0.0406
 9535SOL    HW129000   5.782   2.446   0.856 -0.1268 -0.1690  0.2638
 9535SOL    HW229001   5.751   2.593   0.848  0.4216 -0.0859 -0.4196
 9536SOL     OW29002   5.285   4.071   2.049 -0.1049 -0.0442 -0.1142
 9536SOL    HW129003   5.325   4.051   2.134  1.0688 -0.8705 -0.8187
 9536SOL    HW229004   5.325   4.153   2.022 -2.8470  1.9899  1.5094
 9537SOL     OW29005   6.434   1.339   1.576  0.0433  0.5466 -0.3334
 9537SOL    HW129006   6.528   1.352   1.584  0.7462 -2.9801 -1.1114
 9537SOL    HW229007   6.422   1.299   1.490 -1.8786 -0.6929  0.4320
 9538SOL     OW29008   1.884   2.516   1.561 -0.1323 -0.6096  0.4613
 9538SOL    HW129009   1.815   2.487   1.621 -1.2883  1.7878  0.3913
 9538SOL    HW229010   1.958   2.534   1.618 -0.1504 -1.4155  0.7585
 9539SOL     OW29011   1.256   5.465   2.936  0.6343 -0.1727 -0.0757
 9539SOL    HW129012   1.190   5.435   2.999  0.3517  0.8623  0.1433
 9539SOL    HW229013   1.235   5.558   2.923  1.6683  0.0070 -0.4813
 9540SOL     OW29014   6.229   6.819   6.029 -0.0030 -0.7502  0.1981
 9540SOL    HW129015   6.318   6.786   6.013 -0.2283 -0.7176 -1.2310
 9540SOL    HW229016   6.201   6.775   6.109  0.7148 -1.9499 -0.1862
 9541SOL     OW29017   3.687   5.061   6.451 -0.2478 -0.0416 -0.3484
 9541SOL    HW129018   3.745   4.991   6.480 -1.2352  0.0074  1.9171
 9541SOL    HW229019   3.618   5.017   6.402 -0.2931 -0.5225  0.1500
 9542SOL     OW29020   3.891   1.403   1.517 -0.2722  0.4210 -0.2776
 9542SOL    HW129021   3.821   1.371   1.574 -0.8986  0.2757 -1.1117
 9542SOL    HW229022   3.877   1.357   1.434  1.7314 -0.8053 -0.0190
 9543SOL     OW29023   4.423   2.492   1.996 -0.3026  0.0546  0.2869
 9543SOL    HW129024   4.497   2.503   1.936 -0.9282  0.3024 -0.4468
 9543SOL    HW229025   4.437   2.559   2.063 -1.1971  1.8542 -1.2293
 9544SOL     OW29026   1.320   1.416   3.000  0.3413 -0.3007 -0.0125
 9544SOL    HW129027   1.313   1.334   2.950 -0.8457  1.0970 -2.2789
 9544SOL    HW229028   1.397   1.460   2.963  0.9910 -0.3446  1.2136
 9545SOL     OW29029   0.063   0.795   2.281  0.0822 -0.0977 -0.1766
 9545SOL    HW129030   0.005   0.741   2.227  0.9437 -1.2437 -0.0000
 9545SOL    HW229031   0.133   0.823   2.222  0.5842 -0.6668  0.1397
 9546SOL     OW29032   0.614   2.262   0.356 -0.2578 -0.1149 -0.3912
 9546SOL    HW129033   0.618   2.214   0.439 -1.6714  1.5200  0.6834
 9546SOL    HW229034   0.572   2.201   0.296 -0.9191 -0.6832  0.6107
 9547SOL     OW29035   6.676   3.346   2.183  0.1477 -0.0488 -0.1998
 9547SOL    HW129036   6.662   3.308   2.270 -0.1140  0.9388  0.2104
 9547SOL    HW229037   6.769   3.331   2.165  0.2141 -0.2374  0.2692
 9548SOL     OW29038   0.808   1.639   4.584 -0.2632  0.0857  0.1295
 9548SOL    HW129039   0.803   1.683   4.499 -1.5238  1.0083  0.6474
 9548SOL    HW229040   0.901   1.640   4.605 -0.1915  2.2693 -0.0399
 9549SOL     OW29041   3.516   1.630   3.535  0.4580 -0.1096 -0.0947
 9549SOL    HW129042   3.521   1.582   3.618 -1.9600 -0.5844 -0.1513
 9549SOL    HW229043   3.499   1.562   3.470 -1.9810  0.6408 -0.3300
 9550SOL     OW29044   1.853   5.068   5.651  0.3889 -0.0856 -0.2258
 9550SOL    HW129045   1.778   5.116   5.684  0.9556  1.0575 -0.5459
 9550SOL    HW229046   1.911   5.135   5.615  0.5603 -1.1251 -2.0015
 9551SOL     OW29047   6.542   0.137   5.023  0.1960  0.2133 -0.3838
 9551SOL    HW129048   6.505   0.183   5.098  0.7414  0.9945 -0.5845
 9551SOL    HW229049   6.467   0.097   4.979 -0.2206  0.4705  0.0906
 9552SOL     OW29050   1.296   2.797   2.220 -0.1269  0.0287  0.4425
 9552SOL    HW129051   1.252   2.866   2.169  1.2141  0.3199 -0.3668
 9552SOL    HW229052   1.273   2.817   2.311 -0.1948  1.2574  0.1815
 9553SOL     OW29053   2.920   5.307   0.690 -0.2213  0.1169 -0.5862
 9553SOL    HW129054   2.990   5.295   0.754  1.0633 -0.9183 -2.1188
 9553SOL    HW229055   2.914   5.402   0.678 -0.0485  0.2894  0.5683
 9554SOL     OW29056   0.760   2.131   3.201 -0.1427  0.0276 -0.1329
 9554SOL    HW129057   0.842   2.086   3.217 -1.1328 -1.1810  2.0184
 9554SOL    HW229058   0.745   2.123   3.106  1.5928 -0.7745 -0.3643
 9555SOL     OW29059   2.330   2.654   2.786  0.3325 -0.2817 -0.0451
 9555SOL    HW129060   2.356   2.601   2.711  1.0777  2.1792 -1.6340
 9555SOL    HW229061   2.235   2.650   2.786  0.3495 -0.8656 -0.7011
 9556SOL     OW29062   6.636   3.620   2.455  0.2202 -0.2095 -0.7155
 9556SOL    HW129063   6.545   3.651   2.461  0.8311  1.8651 -1.3967
 9556SOL    HW229064   6.688   3.699   2.442  2.6943 -0.6753  3.9639
 9557SOL     OW29065   3.110   0.681   4.460  0.4740 -0.0521 -0.3214
 9557SOL    HW129066   3.113   0.607   4.399  0.0703  0.0731 -0.4948
 9557SOL    HW229067   3.032   0.730   4.435  1.2727  0.9841 -0.8401
 9558SOL     OW29068   0.071   1.736   0.000 -0.4483  0.2482 -0.5411
 9558SOL    HW129069   0.035   1.765   0.084 -0.3502 -0.6043 -0.1930
 9558SOL    HW229070   0.071   1.641   0.005  1.7308  0.1789 -0.5638
 9559SOL     OW29071   3.972   3.427   6.393  0.1033  0.2074 -0.4026
 9559SOL    HW129072   4.015   3.341   6.387  0.3902  0.2453  0.9250
 9559SOL    HW229073   3.936   3.441   6.305 -0.8390 -1.7269 -0.3949
 9560SOL     OW29074   5.485   3.795   2.133 -0.0642 -0.2046  0.3213
 9560SOL    HW129075   5.477   3.820   2.225 -0.4645 -0.4126  0.3444
 9560SOL    HW229076   5.535   3.866   2.093 -0.7377  0.3783  0.4963
 9561SOL     OW29077   3.498   4.485   2.628 -0.9095 -0.2669  0.0665
 9561SOL    HW129078   3.542   4.553   2.680 -0.5846 -0.6298  0.2748
 9561SOL    HW229079   3.502   4.407   2.683  0.5960 -1.0031 -1.0271
 9562SOL     OW29080   2.726   6.703   0.906  0.0663 -0.7671 -0.1914
 9562SOL    HW129081   2.679   6.784   0.885 -0.2893 -0.8319  0.3153
 9562SOL    HW229082   2.818   6.723   0.887 -0.1548 -0.6327 -1.1785
 9563SOL     OW29083   6.432   1.699   2.313 -0.7943  0.4357  0.3644
 9563SOL    HW129084   6.491   1.743   2.375 -1.7503 -0.6330  2.1127
 9563SOL    HW229085   6.344   1.721   2.344 -1.2938 -0.8054 -0.1093
 9564SOL     OW29086   0.847   6.788   2.102 -0.2600 -0.1936 -0.1897
 9564SOL    HW129087   0.939   6.772   2.124 -0.3432 -0.4923 -0.0573
 9564SOL    HW229088   0.809   6.701   2.092 -0.5618 -0.0729 -0.1118
 9565SOL     OW29089   5.247   2.280   0.627 -0.1611  0.1914 -0.6456
 9565SOL    HW129090   5.216   2.334   0.554 -0.9329 -1.2308 -1.3920
 9565SOL    HW229091   5.219   2.191   0.606 -1.5595 -0.0901  2.0189
 9566SOL     OW29092   3.355   4.940   5.240 -0.0099  0.1479 -0.6735
 9566SOL    HW129093   3.300   5.002   5.288  1.8867  1.4594 -0.0694
 9566SOL    HW229094   3.419   4.909   5.304 -1.8160 -3.8149 -0.4983
 9567SOL     OW29095   1.131   1.955   5.205  0.3198 -0.2817 -0.1916
 9567SOL    HW129096   1.172   1.902   5.274  0.8599  0.3986  0.0198
 9567SOL    HW229097   1.181   1.934   5.126  0.8395  0.2575 -0.0118
 9568SOL     OW29098   0.388   6.702   4.698 -0.0284 -0.0958 -0.0370
 9568SOL    HW129099   0.368   6.765   4.767  1.3923  1.1757 -0.7257
 9568SOL    HW229100   0.307   6.653   4.686 -0.4546 -0.0074  2.1622
 9569SOL     OW29101   3.685   0.686   1.304 -0.1026 -0.3209  0.2352
 9569SOL    HW129102   3.608   0.632   1.322 -0.0021 -0.5716 -0.0641
 9569SOL    HW229103   3.744   0.670   1.378  0.5091 -1.7112 -0.5002
 9570SOL     OW29104   6.749   3.264   3.237  0.0719  0.4552  0.1594
 9570SOL    HW129105   6.792   3.349   3.243 -0.8069  0.8029  2.7206
 9570SOL    HW229106   6.705   3.253   3.321  0.1570 -2.5541 -0.0739
 9571SOL     OW29107   4.191   0.212   3.048  0.1869  0.1487  0.1858
 9571SOL    HW129108   4.253   0.284   3.052 -0.2327  0.5984 -1.0565
 9571SOL    HW229109   4.244   0.134   3.059  0.6935  0.6165  1.1866
 9572SOL     OW29110   1.127   4.531   4.853  0.3043 -0.4629 -0.4730
 9572SOL    HW129111   1.148   4.614   4.810 -0.7455 -0.3426 -0.7916
 9572SOL    HW229112   1.099   4.557   4.941 -1.7593 -0.2702 -1.1340
 9573SOL     OW29113   5.266   6.782   4.711  0.6363  0.3647  0.0116
 9573SOL    HW129114   5.331   6.732   4.660 -0.3269  0.7879 -1.6947
 9573SOL    HW229115   5.296   6.872   4.706 -0.3676  0.6423 -1.2707
 9574SOL     OW29116   3.428   6.302   2.341  0.1093 -0.2339  0.4421
 9574SOL    HW129117   3.517   6.277   2.365  1.7166  2.0535 -2.4585
 9574SOL    HW229118   3.423   6.287   2.247 -2.2421  0.6390  0.3551
 9575SOL     OW29119   1.435   1.914   3.211 -0.0684 -0.2539 -0.1505
 9575SOL    HW129120   1.530   1.901   3.208  0.0730  0.8959 -1.2605
 9575SOL    HW229121   1.422   1.984   3.274 -0.1201  0.0905 -0.5436
 9576SOL     OW29122   1.153   1.353   0.222 -0.0827  0.4761 -0.7303
 9576SOL    HW129123   1.072   1.367   0.271  0.8559  1.3672  0.6304
 9576SOL    HW229124   1.137   1.272   0.173 -1.4083  0.0660  0.3078
 9577SOL     OW29125   0.475   2.364   4.503 -0.4836  0.2750 -0.3904
 9577SOL    HW129126   0.435   2.436   4.553 -1.7960 -1.1302  0.6927
 9577SOL    HW229127   0.518   2.310   4.569  0.3042 -0.0705 -1.1675
 9578SOL     OW29128   6.703   5.853   5.834  0.2394  0.1856 -0.0888
 9578SOL    HW129129   6.728   5.761   5.841 -1.5359 -0.2879  0.7910
 9578SOL    HW229130   6.769   5.900   5.884  1.5731 -0.5086 -1.1448
 9579SOL     OW29131   5.127   0.398   5.960 -0.3263 -0.3275  0.4706
 9579SOL    HW129132   5.098   0.437   5.878  0.4224 -0.8347 -0.0539
 9579SOL    HW229133   5.084   0.312   5.963  0.7264 -0.8910 -0.0870
 9580SOL     OW29134   5.981   5.427   2.951 -0.4604 -0.0779 -0.4870
 9580SOL    HW129135   5.927   5.414   3.029 -0.1388  0.6826 -0.1328
 9580SOL    HW229136   6.031   5.346   2.943  0.5531  0.3658  0.9337
 9581SOL     OW29137   6.394   5.611   6.592  0.1756 -0.0070 -0.6426
 9581SOL    HW129138   6.314   5.580   6.550 -1.1219  0.1403  1.5450
 9581SOL    HW229139   6.423   5.684   6.538 -0.2774 -1.0278 -2.3345
 9582SOL     OW29140   2.205   4.615   3.016  0.1993  0.3710  0.0377
 9582SOL    HW129141   2.278   4.587   3.070 -0.2557 -1.1883 -0.0945
 9582SOL    HW229142   2.203   4.551   2.945 -2.2784 -0.6297  0.9206
 9583SOL     OW29143   1.859   6.745   1.218 -0.3699  0.3691 -0.2654
 9583SOL    HW129144   1.825   6.827   1.183  0.7578  1.3176  0.7853
 9583SOL    HW229145   1.950   6.764   1.241 -0.4608 -0.7793  1.2165
 9584SOL     OW29146   6.709   5.948   1.291  1.1585 -0.6512 -0.3354
 9584SOL    HW129147   6.684   5.856   1.275 -1.7662  0.3822 -2.6766
 9584SOL    HW229148   6.757   5.973   1.212 -0.2558  0.4191 -0.9127
 9585SOL     OW29149   6.473   1.112   1.791  0.1916  0.5356 -0.5191
 9585SOL    HW129150   6.443   1.175   1.726 -2.2555 -0.8923 -0.9075
 9585SOL    HW229151   6.422   1.131   1.869  0.2382 -0.2274 -0.2926
 9586SOL     OW29152   6.368   2.278   5.578 -0.1164  0.4965  0.1858
 9586SOL    HW129153   6.414   2.289   5.495 -2.3042  1.6363 -0.9790
 9586SOL    HW229154   6.437   2.271   5.643  1.7239  2.9786 -1.3203
 9587SOL     OW29155   6.380   0.150   1.715 -0.9151 -0.2555  0.1421
 9587SOL    HW129156   6.465   0.171   1.676 -0.6152  0.2739  1.0559
 9587SOL    HW229157   6.340   0.235   1.734 -2.6654 -0.4379 -2.3399
 9588SOL     OW29158   1.685   1.291   5.454 -0.5560 -0.1892  0.3979
 9588SOL    HW129159   1.699   1.349   5.380 -1.6597  0.9656  1.0530
 9588SOL    HW229160   1.770   1.250   5.470  0.2281  1.1801 -0.1431
 9589SOL     OW29161   4.664   4.297   1.691 -0.2476  0.0139  0.0583
 9589SOL    HW129162   4.715   4.230   1.645  0.3757  1.7424 -1.9140
 9589SOL    HW229163   4.709   4.307   1.775  1.2999 -0.1575 -0.7105
 9590SOL     OW29164   0.084   3.354   6.637 -0.2194 -0.5550  0.7057
 9590SOL    HW129165   0.008   3.330   6.585  0.5079 -2.4955  0.4603
 9590SOL    HW229166   0.071   3.446   6.658 -3.3354 -1.1399  1.8348
 9591SOL     OW29167   6.067   6.881   3.044  0.0561 -0.1952  0.4507
 9591SOL    HW129168   6.150   6.926   3.026 -1.5363  2.6960 -0.2012
 9591SOL    HW229169   6.057   6.887   3.139  1.0565 -1.5445  0.6712
 9592SOL     OW29170   1.421   0.949   3.917  0.2499 -0.5601  0.5860
 9592SOL    HW129171   1.421   1.045   3.914  1.3220 -0.5640  0.2000
 9592SOL    HW229172   1.408   0.928   4.010 -1.2833 -0.0758  0.5162
 9593SOL     OW29173   4.936   0.322   3.101  0.4685 -0.1219 -0.0364
 9593SOL    HW129174   4.856   0.280   3.070  0.4339  0.1202 -0.2745
 9593SOL    HW229175   4.954   0.391   3.037  1.1339 -0.4887 -0.2614
 9594SOL     OW29176   0.219   2.513   2.878 -0.1181 -0.5057  0.0292
 9594SOL    HW129177   0.134   2.552   2.858  0.3343  1.8115  2.1576
 9594SOL    HW229178   0.275   2.537   2.804 -0.8819 -0.5648 -0.5706
 9595SOL     OW29179   5.455   4.439   2.907 -0.3791  0.1760  0.4108
 9595SOL    HW129180   5.543   4.459   2.877  0.0328  2.2677  2.7111
 9595SOL    HW229181   5.408   4.414   2.827  2.2201 -0.9598 -0.8827
 9596SOL     OW29182   5.504   2.774   1.110 -0.4736 -0.0914 -0.0274
 9596SOL    HW129183   5.439   2.823   1.159 -0.0698  0.4202  0.0036
 9596SOL    HW229184   5.453   2.717   1.052 -0.9620 -0.8803  1.1327
 9597SOL     OW29185   6.141   4.995   2.213  0.6024 -0.2066 -0.1156
 9597SOL    HW129186   6.150   4.951   2.298 -0.7136 -0.9111 -0.3070
 9597SOL    HW229187   6.215   5.056   2.209  0.3389  0.3120  1.8204
 9598SOL     OW29188   6.857   1.944   1.121 -0.2135  0.2170  0.0273
 9598SOL    HW129189   6.851   1.904   1.207  1.0326  0.4651  0.2495
 9598SOL    HW229190   6.808   2.026   1.128 -2.5136 -1.0695 -0.3438
 9599SOL     OW29191   4.237   3.454   6.484  0.2665 -0.5706 -0.6131
 9599SOL    HW129192   4.272   3.487   6.401  2.1614  0.3079  0.4584
 9599SOL    HW229193   4.143   3.448   6.470  0.3799  0.9021 -2.3743
 9600SOL     OW29194   3.520   6.208   0.447 -0.3050 -0.6363  0.0074
 9600SOL    HW129195   3.457   6.137   0.442  0.3738 -1.4005  1.5531
 9600SOL    HW229196   3.507   6.245   0.535  1.4842 -0.9342  0.4345
 9601SOL     OW29197   4.344   5.556   4.123 -0.0377  0.1769 -0.0587
 9601SOL    HW129198   4.292   5.549   4.203 -0.6214 -2.7201 -0.5897
 9601SOL    HW229199   4.401   5.479   4.125  0.5374  0.5043 -2.0206
 9602SOL     OW29200   4.286   4.904   4.137  0.6059  0.4038  0.1854
 9602SOL    HW129201   4.250   4.862   4.215 -2.2282 -1.1871 -1.7782
 9602SOL    HW229202   4.209   4.934   4.089  2.3387  5.4833  0.0070
 9603SOL     OW29203   1.074   4.115   4.724  0.2516  0.0761 -0.4604
 9603SOL    HW129204   1.043   4.108   4.634  2.0350 -0.4132 -1.0962
 9603SOL    HW229205   1.127   4.035   4.737 -0.5054 -0.1840  1.2508
 9604SOL     OW29206   5.440   4.503   3.900  0.5121  0.2609  0.7393
 9604SOL    HW129207   5.426   4.520   3.807  1.8299 -0.9613  0.2812
 9604SOL    HW229208   5.381   4.564   3.945 -2.2097 -1.0267 -0.8914
 9605SOL     OW29209   4.273   0.848   2.579 -0.6325 -0.7442  0.0732
 9605SOL    HW129210   4.178   0.838   2.569 -0.6088 -0.7178 -0.1864
 9605SOL    HW229211   4.294   0.927   2.529 -0.3195 -1.3605 -0.7868
 9606SOL     OW29212   4.064   1.449   2.459  0.2978 -0.1646 -0.6515
 9606SOL    HW129213   3.973   1.427   2.480  0.7001  0.2807  1.8349
 9606SOL    HW229214   4.057   1.516   2.391 -1.3772  1.7927  1.3010
 9607SOL     OW29215   2.918   1.578   4.111 -0.6552  0.5315 -0.1557
 9607SOL    HW129216   3.006   1.601   4.081 -0.6138  0.7187  0.0990
 9607SOL    HW229217   2.865   1.655   4.091 -0.6097  0.6882  0.3121
 9608SOL     OW29218   3.563   5.714   2.910  0.1250  0.1124 -0.6343
 9608SOL    HW129219   3.563   5.779   2.840  1.5045  0.0155 -0.7385
 9608SOL    HW229220   3.558   5.765   2.991 -0.2009  0.2749 -0.7556
 9609SOL     OW29221   0.876   3.489   0.189 -0.2110  0.6461  0.1661
 9609SOL    HW129222   0.889   3.581   0.210  0.3978  0.9052 -1.2488
 9609SOL    HW229223   0.929   3.474   0.111  0.7846 -1.2514  1.1260
 9610SOL     OW29224   2.208   4.970   1.022  0.9192 -0.1102 -0.1093
 9610SOL    HW129225   2.233   4.994   0.933  2.2949 -1.1333 -0.0221
 9610SOL    HW229226   2.228   5.048   1.074 -0.2428  0.6315 -0.7229
 9611SOL     OW29227   3.511   5.137   3.745 -0.2935 -0.0288  0.1267
 9611SOL    HW129228   3.581   5.170   3.802 -0.9726  1.7766 -0.0357
 9611SOL    HW229229   3.517   5.191   3.666 -2.5225  0.9028  0.5313
 9612SOL     OW29230   4.795   2.969   2.025 -0.2836 -0.6773  0.4692
 9612SOL    HW129231   4.878   2.955   1.980  0.5457  0.3398  1.5921
 9612SOL    HW229232   4.814   3.039   2.088 -2.0689 -0.2389  0.5726
 9613SOL     OW29233   2.697   2.357   0.606 -0.3692 -0.2926  0.2606
 9613SOL    HW129234   2.710   2.366   0.512  0.0067 -0.5756  0.2835
 9613SOL    HW229235   2.770   2.407   0.645 -0.9019  0.3874  0.4072
 9614SOL     OW29236   0.507   2.603   5.319  0.4031  0.2687  0.4927
 9614SOL    HW129237   0.529   2.558   5.401  0.5762  0.1713  0.3917
 9614SOL    HW229238   0.491   2.694   5.346  2.2021  0.6514  0.3997
 9615SOL     OW29239   1.616   3.731   6.188 -0.6114  0.1317 -0.2332
 9615SOL    HW129240   1.571   3.653   6.156  0.7081 -0.7655  0.0671
 9615SOL    HW229241   1.705   3.724   6.154  0.6044 -0.3936  2.7468
 9616SOL     OW29242   0.462   5.145   1.010  0.5712  0.1022 -0.0937
 9616SOL    HW129243   0.373   5.175   0.991  0.4910 -0.6032 -0.9058
 9616SOL    HW229244   0.497   5.211   1.070 -0.7915 -0.0839  0.9424
 9617SOL     OW29245   0.913   2.080   5.119  0.0184  0.0003 -0.1540
 9617SOL    HW129246   0.972   2.021   5.165 -0.4368 -0.0256  0.4083
 9617SOL    HW229247   0.859   2.023   5.065  0.1192 -0.0281 -0.2242
 9618SOL     OW29248   1.025   2.332   0.200  0.0991 -0.3018  0.6838
 9618SOL    HW129249   0.934   2.360   0.212  0.2884 -0.1856  2.0090
 9618SOL    HW229250   1.020   2.237   0.193  0.0186 -0.5183  2.8753
 9619SOL     OW29251   4.799   2.099   1.054 -0.2040  0.4000  0.0075
 9619SOL    HW129252   4.802   2.074   0.962 -0.8821  0.1967  0.0294
 9619SOL    HW229253   4.871   2.161   1.065  1.4148 -1.3671 -0.0993
 9620SOL     OW29254   3.525   0.307   0.712  0.3276 -0.6124  0.0589
 9620SOL    HW129255   3.523   0.283   0.620  0.5053  0.9661 -0.3779
 9620SOL    HW229256   3.438   0.285   0.745 -0.6686  1.2538 -1.1596
 9621SOL     OW29257   6.079   6.149   0.114  0.3899  0.2244  0.0186
 9621SOL    HW129258   6.174   6.163   0.109  0.4038  1.3612  2.1938
 9621SOL    HW229259   6.045   6.188   0.033  1.7847 -0.5565 -0.9885
 9622SOL     OW29260   0.667   2.222   1.833  0.0942  0.8099 -0.5766
 9622SOL    HW129261   0.639   2.283   1.764 -0.3393 -0.2982 -1.4065
 9622SOL    HW229262   0.649   2.135   1.797  1.7345  0.1335  0.1351
 9623SOL     OW29263   2.879   3.124   6.647  0.4212  0.1386  0.0821
 9623SOL    HW129264   2.971   3.142   6.625  0.5388  0.6836  0.9626
 9623SOL    HW229265   2.884   3.063   6.721  0.0378 -1.7672 -1.3737
 9624SOL     OW29266   3.395   3.914   5.481  0.3650 -0.0575 -0.0660
 9624SOL    HW129267   3.372   3.864   5.560 -0.0656 -0.4896 -0.4549
 9624SOL    HW229268   3.335   3.880   5.414  0.8869  0.1403 -0.6345
 9625SOL     OW29269   3.711   3.414   5.513  0.1386 -1.1583 -0.4317
 9625SOL    HW129270   3.743   3.405   5.602  0.8203 -2.2712 -0.7712
 9625SOL    HW229271   3.763   3.487   5.477  0.8896 -1.6485 -0.3593
 9626SOL     OW29272   2.468   6.476   3.288  0.3181 -0.1135 -0.3837
 9626SOL    HW129273   2.530   6.508   3.353  1.8052 -1.5135 -1.0407
 9626SOL    HW229274   2.394   6.443   3.338  0.6917  0.3487  0.4854
 9627SOL     OW29275   0.656   1.935   4.481 -0.5665 -0.4146  0.6129
 9627SOL    HW129276   0.597   1.952   4.555 -0.6822 -0.5557  0.5528
 9627SOL    HW229277   0.744   1.941   4.519 -0.6360 -1.9001  1.0833
 9628SOL     OW29278   6.492   4.290   3.658 -0.3097 -0.3795  0.2753
 9628SOL    HW129279   6.439   4.284   3.578 -2.0964  0.0697  1.3620
 9628SOL    HW229280   6.560   4.354   3.638 -1.6565  0.8954 -0.4198
 9629SOL     OW29281   1.909   3.356   3.503  0.0510 -0.2914  0.3899
 9629SOL    HW129282   1.905   3.261   3.510  0.9514 -0.5773 -2.0114
 9629SOL    HW229283   1.972   3.382   3.570 -0.5872 -1.2922  1.4258
 9630SOL     OW29284   3.719   1.223   1.259  0.5506 -0.6487 -0.2926
 9630SOL    HW129285   3.783   1.265   1.201  0.8514  0.8661  1.0537
 9630SOL    HW229286   3.670   1.164   1.202  1.1395  0.4096 -1.9719
 9631SOL     OW29287   4.224   4.814   0.300  0.0767 -0.2711  0.5835
 9631SOL    HW129288   4.183   4.899   0.316 -0.4960  0.0055 -1.9169
 9631SOL    HW229289   4.151   4.755   0.282  0.5906 -0.6689 -0.2421
 9632SOL     OW29290   2.959   0.388   6.741  0.2363  0.3381 -0.2940
 9632SOL    HW129291   2.890   0.452   6.758 -0.4824 -0.7948  1.2938
 9632SOL    HW229292   2.960   0.380   6.645 -4.2403 -2.0105 -0.4051
 9633SOL     OW29293   4.611   0.721   1.971 -0.2667  0.0308  0.2198
 9633SOL    HW129294   4.573   0.797   1.928  0.6913  0.3946 -0.0184
 9633SOL    HW229295   4.706   0.737   1.968 -0.1228 -0.5377  1.3439
 9634SOL     OW29296   0.699   2.750   6.544 -0.2985 -0.3079  0.0951
 9634SOL    HW129297   0.734   2.816   6.605  0.0287 -1.0331  0.7069
 9634SOL    HW229298   0.777   2.709   6.507 -0.4712  0.7729 -1.5762
 9635SOL     OW29299   5.080   1.868   6.934 -0.1681 -0.0494 -0.7756
 9635SOL    HW129300   5.111   1.778   6.939 -0.3963 -0.1288 -0.7906
 9635SOL    HW229301   5.048   1.877   6.844 -0.0099  0.0894 -0.8178
 9636SOL     OW29302   1.154   5.709   2.840 -0.2054  0.2528 -0.6355
 9636SOL    HW129303   1.132   5.777   2.904  2.0169  0.4144  0.0731
 9636SOL    HW229304   1.219   5.750   2.783  1.2413 -1.2282 -0.1503
 9637SOL     OW29305   4.635   0.987   4.959  0.0954  0.1361 -0.0215
 9637SOL    HW129306   4.658   1.022   5.046 -0.4932  0.3488  0.0499
 9637SOL    HW229307   4.719   0.963   4.921  0.3220 -0.5130  0.8435
 9638SOL     OW29308   5.456   1.092   0.677 -0.4729  0.1122  0.1136
 9638SOL    HW129309   5.528   1.155   0.665  0.5200 -0.7538  1.2336
 9638SOL    HW229310   5.444   1.088   0.772 -0.4589 -1.4325  0.0685
 9639SOL     OW29311   6.915   0.239   6.283 -0.1713 -0.2153  0.3041
 9639SOL    HW129312   6.904   0.277   6.196  1.1577  1.0340  0.6232
 9639SOL    HW229313   6.843   0.275   6.335 -0.3782 -0.1483 -0.0342
 9640SOL     OW29314   4.638   4.028   5.974 -0.7436  0.1133 -0.2610
 9640SOL    HW129315   4.674   4.042   5.887 -0.0189 -0.3654 -0.0472
 9640SOL    HW229316   4.693   3.960   6.012 -0.8883  0.5038  0.6715
 9641SOL     OW29317   1.344   1.606   4.900 -0.5133 -0.2330 -0.5165
 9641SOL    HW129318   1.356   1.576   4.810  1.2199 -2.2398  0.3017
 9641SOL    HW229319   1.301   1.533   4.945 -0.1764  0.2030  0.5628
 9642SOL     OW29320   3.185   2.685   0.692  0.1157 -0.2536 -0.1089
 9642SOL    HW129321   3.108   2.654   0.739 -0.3522 -0.1312 -0.7746
 9642SOL    HW229322   3.150   2.746   0.627  0.8087  0.0541 -0.1960
 9643SOL     OW29323   5.544   2.127   0.491  0.3135  0.4530  0.1621
 9643SOL    HW129324   5.449   2.118   0.490  0.2805  0.2933  1.6116
 9643SOL    HW229325   5.562   2.183   0.567  1.4406 -0.9385  0.9873
 9644SOL     OW29326   3.426   4.113   0.549 -0.2599  0.4379 -0.5686
 9644SOL    HW129327   3.347   4.152   0.585 -0.7790 -0.8092 -0.2982
 9644SOL    HW229328   3.498   4.164   0.588 -0.7883 -0.7984  2.2674
 9645SOL     OW29329   5.451   5.795   3.383 -0.1651  0.0322  0.2939
 9645SOL    HW129330   5.460   5.887   3.409 -0.5045 -0.6266  3.0730
 9645SOL    HW229331   5.357   5.783   3.372 -0.2998 -0.3549  1.6801
 9646SOL     OW29332   4.014   2.819   3.324  0.0493 -0.8926  0.8296
 9646SOL    HW129333   4.018   2.914   3.313 -0.7398 -0.8857  0.5369
 9646SOL    HW229334   4.033   2.805   3.417 -0.6042 -0.3852  1.0451
 9647SOL     OW29335   4.842   5.379   2.459 -0.0667 -0.0254  0.6035
 9647SOL    HW129336   4.798   5.296   2.476 -1.5177  1.1817  3.5914
 9647SOL    HW229337   4.794   5.417   2.385 -0.1903 -1.2654  0.0175
 9648SOL     OW29338   1.892   3.968   0.225 -0.4241 -0.3007  0.1200
 9648SOL    HW129339   1.816   4.007   0.183  0.4397  0.7381 -0.5518
 9648SOL    HW229340   1.856   3.909   0.291 -1.7986  0.7377  0.3367
 9649SOL     OW29341   4.860   0.195   2.341 -0.6405  0.5363 -0.1935
 9649SOL    HW129342   4.936   0.150   2.378 -1.8715 -0.5675  1.1093
 9649SOL    HW229343   4.844   0.151   2.257  0.8368  1.5717 -1.0577
 9650SOL     OW29344   1.844   3.530   0.997  0.0148  0.8963 -0.0766
 9650SOL    HW129345   1.852   3.435   1.000  2.7482  0.9795 -1.4499
 9650SOL    HW229346   1.912   3.562   1.056 -0.0394  2.0004 -0.5751
 9651SOL     OW29347   3.864   1.131   1.994  0.4771 -0.2690  0.0533
 9651SOL    HW129348   3.793   1.075   2.026 -0.7450  0.7600 -0.7735
 9651SOL    HW229349   3.876   1.196   2.062  0.2271 -0.1110 -0.0507
 9652SOL     OW29350   1.418   4.044   1.894  0.0313  0.0486  0.4155
 9652SOL    HW129351   1.463   4.126   1.913 -0.9019  0.4400  1.0049
 9652SOL    HW229352   1.325   4.065   1.904 -0.1861 -1.3978  1.8670
 9653SOL     OW29353   4.240   4.857   3.137  0.4172 -0.5108  0.4145
 9653SOL    HW129354   4.256   4.800   3.062 -0.9767 -0.9900  0.4438
 9653SOL    HW229355   4.257   4.803   3.213  0.0638 -0.5993  0.4356
 9654SOL     OW29356   6.915   6.345   6.580 -0.2759 -0.0384 -0.3871
 9654SOL    HW129357   6.903   6.420   6.523 -2.0956  0.3352  0.4312
 9654SOL    HW229358   6.947   6.275   6.522  2.2106  1.5030 -1.0269
 9655SOL     OW29359   1.189   5.683   5.038  0.3641  0.4457 -0.6955
 9655SOL    HW129360   1.128   5.704   5.109  1.9683  1.7392  0.3640
 9655SOL    HW229361   1.240   5.610   5.072  0.3318  0.2703 -1.0234
 9656SOL     OW29362   1.107   3.354   5.198  0.2788  0.2077  0.1990
 9656SOL    HW129363   1.104   3.407   5.118 -3.1336 -1.2025 -0.8211
 9656SOL    HW229364   1.172   3.286   5.179  0.2005  0.4483 -1.0156
 9657SOL     OW29365   3.783   5.048   2.973 -0.5206  0.0377  0.4010
 9657SOL    HW129366   3.709   4.987   2.972 -0.2251 -0.3520 -1.4355
 9657SOL    HW229367   3.858   4.994   2.999 -0.4261 -0.2123 -0.3449
 9658SOL     OW29368   3.937   6.816   1.252  0.4144 -0.4007 -0.1629
 9658SOL    HW129369   3.963   6.743   1.196 -0.9995  0.1278 -1.5749
 9658SOL    HW229370   3.844   6.829   1.234  0.5242  1.4701  0.3614
 9659SOL     OW29371   0.847   3.243   4.833  0.4652  0.0861 -0.7664
 9659SOL    HW129372   0.757   3.245   4.865  1.1345 -2.0263  1.5644
 9659SOL    HW229373   0.840   3.202   4.746 -0.7079 -1.5147  0.0371
 9660SOL     OW29374   1.379   5.169   3.237 -0.3271 -0.4735 -0.5361
 9660SOL    HW129375   1.438   5.199   3.306 -0.9306 -0.0102 -0.2145
 9660SOL    HW229376   1.334   5.248   3.208 -3.0032 -1.1853  1.3325
 9661SOL     OW29377   3.400   2.628   4.537  0.2410  0.1277  0.0010
 9661SOL    HW129378   3.393   2.555   4.477  1.7822 -2.3624  2.6067
 9661SOL    HW229379   3.328   2.616   4.599  1.9592 -0.8158  1.9455
 9662SOL     OW29380   3.256   0.977   2.767 -0.0093 -0.2652  0.5521
 9662SOL    HW129381   3.162   0.970   2.782 -0.1290 -2.1244 -0.6670
 9662SOL    HW229382   3.265   1.039   2.695 -0.6338 -2.3104 -1.4225
 9663SOL     OW29383   1.938   2.233   1.410 -0.1004  0.1867 -0.2194
 9663SOL    HW129384   1.967   2.205   1.324  0.4881  1.5665 -0.5127
 9663SOL    HW229385   1.885   2.311   1.393  0.9000  1.1045  0.7060
 9664SOL     OW29386   2.405   6.135   2.975 -0.1187  0.7971 -0.3561
 9664SOL    HW129387   2.495   6.142   3.006 -0.0188  4.1063 -0.9373
 9664SOL    HW229388   2.378   6.046   2.996  2.8790  0.0719  0.8925
 9665SOL     OW29389   0.009   3.605   6.726  0.7962 -0.6404  0.4460
 9665SOL    HW129390  -0.084   3.609   6.706  1.4672  1.1969 -2.9873
 9665SOL    HW229391   0.015   3.631   6.818 -1.9789  0.4789  0.3918
 9666SOL     OW29392   0.212   3.906   2.381 -0.4714  0.0415 -0.0577
 9666SOL    HW129393   0.259   3.916   2.463 -0.0229  0.0042 -0.3098
 9666SOL    HW229394   0.248   3.826   2.341 -1.3721 -0.4904  0.1656
 9667SOL     OW29395   5.916   2.208   5.100  0.1767  0.4030 -0.2188
 9667SOL    HW129396   6.002   2.200   5.142  0.1869  1.1552 -0.0886
 9667SOL    HW229397   5.904   2.302   5.086 -1.3695  0.4743  1.3129
 9668SOL     OW29398   1.074   0.950   2.897  0.1136  0.4893  0.1499
 9668SOL    HW129399   1.010   1.006   2.941 -0.7433  0.5488 -1.1200
 9668SOL    HW229400   1.023   0.901   2.833  1.2172 -0.0734 -0.3225
 9669SOL     OW29401   6.209   4.846   6.873 -0.4045  0.1696 -0.1162
 9669SOL    HW129402   6.244   4.891   6.796  0.3484  0.1708  0.2174
 9669SOL    HW229403   6.155   4.776   6.837 -0.1340  0.2245 -0.6436
 9670SOL     OW29404   2.720   4.488   6.548 -0.4392  0.0053 -0.0354
 9670SOL    HW129405   2.721   4.407   6.497  1.5544 -0.6482  0.9186
 9670SOL    HW229406   2.674   4.465   6.629  1.3530 -0.6515  0.8496
 9671SOL     OW29407   5.478   2.445   6.607 -0.6149 -0.3860  0.6545
 9671SOL    HW129408   5.527   2.522   6.637 -0.9510 -0.4710  1.4639
 9671SOL    HW229409   5.387   2.475   6.602 -0.6317 -0.5124  0.1771
 9672SOL     OW29410   0.087   2.113   4.353 -0.0259  0.1877 -0.0497
 9672SOL    HW129411   0.031   2.054   4.302  0.6475 -0.7945  0.3182
 9672SOL    HW229412   0.067   2.200   4.319  0.7118 -0.4506 -2.3216
 9673SOL     OW29413   4.080   6.741   6.621 -0.2700 -0.1074  0.5724
 9673SOL    HW129414   4.037   6.827   6.630 -0.7081 -0.2454 -0.1629
 9673SOL    HW229415   4.167   6.762   6.588 -0.1623  0.0911  0.9658
 9674SOL     OW29416   1.152   3.077   5.635 -0.2307 -0.2805  0.0196
 9674SOL    HW129417   1.074   3.029   5.662  0.1464 -1.0456 -0.2364
 9674SOL    HW229418   1.202   3.088   5.716  0.4502 -1.7535 -0.1676
 9675SOL     OW29419   4.819   1.512   5.929  0.0163  0.0757  0.3975
 9675SOL    HW129420   4.749   1.483   5.988  0.6153 -1.3441  0.4734
 9675SOL    HW229421   4.812   1.607   5.928 -1.9405 -0.0286  0.3508
 9676SOL     OW29422   2.047   1.556   1.078  0.9476  0.3123  0.0332
 9676SOL    HW129423   2.063   1.472   1.035 -1.2914 -0.5078  0.6550
 9676SOL    HW229424   2.091   1.548   1.163 -0.5335 -0.9089  0.7318
 9677SOL     OW29425   5.161   4.667   0.143 -0.2379  0.4095  0.2776
 9677SOL    HW129426   5.251   4.676   0.173 -0.1105  0.1827 -0.0308
 9677SOL    HW229427   5.117   4.745   0.176 -0.1359  0.0980  1.1693
 9678SOL     OW29428   3.011   6.245   0.710 -0.2932 -0.0774  0.2493
 9678SOL    HW129429   3.067   6.283   0.778  0.6265 -1.5105  0.3292
 9678SOL    HW229430   2.922   6.266   0.739  0.1418  1.7684  0.4005
 9679SOL     OW29431   0.620   4.095   3.283  0.2289 -0.2549 -0.2629
 9679SOL    HW129432   0.557   4.104   3.355  0.8583 -1.5828  0.4803
 9679SOL    HW229433   0.567   4.107   3.204 -0.5514  0.7879  0.3888
 9680SOL     OW29434   3.187   2.692   2.958  0.3187 -0.3589  0.3271
 9680SOL    HW129435   3.164   2.736   2.877  0.7308  0.3781  0.5985
 9680SOL    HW229436   3.280   2.672   2.949  0.3662 -0.2743  0.6129
 9681SOL     OW29437   3.968   1.254   5.930  0.2580  0.0098 -0.4865
 9681SOL    HW129438   4.047   1.291   5.891  0.8948 -1.4333 -0.6111
 9681SOL    HW229439   3.979   1.160   5.924  0.4500 -0.3646  3.2920
 9682SOL     OW29440   3.773   4.753   1.745 -0.1386  0.0540 -0.0769
 9682SOL    HW129441   3.687   4.753   1.703 -0.2579 -0.6840  0.1450
 9682SOL    HW229442   3.826   4.813   1.692 -0.5308 -0.1937 -0.7584
 9683SOL     OW29443   5.678   2.880   0.893 -0.2535  0.1149 -0.3730
 9683SOL    HW129444   5.587   2.882   0.864 -0.3972  0.6354  0.1046
 9683SOL    HW229445   5.674   2.836   0.978  0.2030 -1.6960 -1.2412
 9684SOL     OW29446   2.962   5.794   2.470  0.2845  0.4564 -0.0922
 9684SOL    HW129447   2.934   5.806   2.561 -0.0016  1.6834 -0.3356
 9684SOL    HW229448   3.003   5.877   2.445  2.8052 -0.7130 -0.2624
 9685SOL     OW29449   1.519   5.038   2.062  0.0011  0.5719 -0.4013
 9685SOL    HW129450   1.454   4.977   2.024  0.7362 -0.8431  0.5457
 9685SOL    HW229451   1.473   5.122   2.065 -1.5228 -0.2182 -0.4870
 9686SOL     OW29452   4.514   3.222   5.308 -0.4177  0.1275  0.4208
 9686SOL    HW129453   4.451   3.170   5.356 -0.8816  0.8503  0.6050
 9686SOL    HW229454   4.462   3.286   5.259  0.1034  0.0694 -0.2426
 9687SOL     OW29455   0.937   1.253   0.456  0.5538  0.3324  0.0831
 9687SOL    HW129456   0.864   1.223   0.510  0.4153 -0.6108 -0.5935
 9687SOL    HW229457   0.915   1.343   0.433 -0.6033 -0.0645 -0.4388
 9688SOL     OW29458   5.962   5.442   0.890  0.0309  0.4166  0.1858
 9688SOL    HW129459   6.038   5.384   0.895 -0.9976 -0.8842  1.7121
 9688SOL    HW229460   5.905   5.413   0.961 -1.6113  1.7923 -0.5007
 9689SOL     OW29461   0.295   1.286   4.867 -0.3291  0.1398  0.2448
 9689SOL    HW129462   0.315   1.236   4.946 -1.6785  0.9437  1.1331
 9689SOL    HW229463   0.247   1.363   4.899 -0.8867  0.4902 -1.3565
 9690SOL     OW29464   2.083   3.580   3.047  0.1759  0.0126 -0.0174
 9690SOL    HW129465   2.129   3.611   2.969  1.4124 -1.6922 -0.0230
 9690SOL    HW229466   2.056   3.491   3.025 -0.7250  0.0061  1.0096
 9691SOL     OW29467   5.482   1.187   5.291  0.1163  0.2726  0.3818
 9691SOL    HW129468   5.406   1.159   5.342 -0.0599  1.3146  0.7151
 9691SOL    HW229469   5.465   1.154   5.203 -1.0580  1.0206  0.2958
 9692SOL     OW29470   6.558   0.852   6.695 -0.4618  0.3376  0.1558
 9692SOL    HW129471   6.619   0.912   6.650 -1.6801  1.2472 -0.3463
 9692SOL    HW229472   6.483   0.907   6.717 -0.0623 -0.1364  3.0999
 9693SOL     OW29473   0.370   2.533   1.917  0.2939 -0.0807 -0.3527
 9693SOL    HW129474   0.344   2.441   1.923  1.1154 -0.2051  2.8142
 9693SOL    HW229475   0.466   2.530   1.917  0.3262  0.7872 -0.2801
 9694SOL     OW29476   0.999   6.645   4.200  0.1809  0.1216  0.3578
 9694SOL    HW129477   1.002   6.738   4.220 -2.5749  0.4795 -0.4363
 9694SOL    HW229478   0.940   6.608   4.265  2.2998 -1.4228  1.5431
 9695SOL     OW29479   4.715   2.493   2.993  0.2126 -0.2943  0.3400
 9695SOL    HW129480   4.647   2.480   3.059  0.5250  0.9322  0.9328
 9695SOL    HW229481   4.765   2.569   3.024  0.7446 -0.0646 -1.0011
 9696SOL     OW29482   4.505   2.428   1.403 -0.0075  0.1875 -0.7988
 9696SOL    HW129483   4.565   2.428   1.328  0.7124  1.5935 -0.2798
 9696SOL    HW229484   4.514   2.341   1.441  1.8846  0.3820 -0.6606
 9697SOL     OW29485   4.048   6.640   4.902  0.3302  0.5078 -0.1819
 9697SOL    HW129486   4.100   6.663   4.980  0.8468  0.0781 -0.3923
 9697SOL    HW229487   4.030   6.547   4.912  0.7628  0.3551 -0.7804
 9698SOL     OW29488   0.036   4.493   3.964  0.2760 -0.5688  0.1168
 9698SOL    HW129489  -0.012   4.522   3.886  0.3240 -1.3676 -0.2224
 9698SOL    HW229490   0.083   4.571   3.994  0.4727 -0.3212 -0.8157
 9699SOL     OW29491   1.032   4.498   0.178 -0.0662 -0.0962  0.2598
 9699SOL    HW129492   1.003   4.541   0.098  0.5741  1.4456  0.8091
 9699SOL    HW229493   1.122   4.528   0.190  0.4918 -1.7924  0.5803
 9700SOL     OW29494   6.717   1.915   6.048 -0.1011  0.1210 -0.2959
 9700SOL    HW129495   6.800   1.955   6.022  0.4218 -0.6390  0.1316
 9700SOL    HW229496   6.657   1.988   6.061  0.3407  0.6519 -1.1565
 9701SOL     OW29497   2.071   5.755   2.762  0.0353  0.0294 -0.0883
 9701SOL    HW129498   2.109   5.843   2.755  3.1467 -1.0909  1.1854
 9701SOL    HW229499   2.074   5.722   2.672  1.8682  0.1318 -0.1080
 9702SOL     OW29500   5.308   4.368   3.400 -0.0006  0.4174 -0.2192
 9702SOL    HW129501   5.387   4.328   3.437 -0.8994 -1.6289 -0.3550
 9702SOL    HW229502   5.274   4.302   3.340 -1.7534  1.2907 -0.2393
 9703SOL     OW29503   4.144   3.798   4.038 -0.3278  0.1186 -0.0563
 9703SOL    HW129504   4.079   3.808   3.969 -0.7138  0.0881  0.3011
 9703SOL    HW229505   4.098   3.751   4.108  0.0606  0.1449  0.2211
 9704SOL     OW29506   5.315   3.168   5.748 -0.0921 -0.5777 -0.2186
 9704SOL    HW129507   5.226   3.133   5.740 -0.1143 -0.8029  0.7903
 9704SOL    HW229508   5.352   3.160   5.661 -1.4743  0.6698 -0.9706
 9705SOL     OW29509   3.959   4.311   5.480  0.2458  0.8533  0.3835
 9705SOL    HW129510   3.975   4.246   5.549 -0.5726  0.7984  0.5383
 9705SOL    HW229511   3.931   4.389   5.527  0.6353  1.1266  0.1635
 9706SOL     OW29512   3.242   0.367   3.403 -0.5916 -0.0080 -0.0299
 9706SOL    HW129513   3.329   0.406   3.396  0.3175 -1.8761  0.2699
 9706SOL    HW229514   3.213   0.389   3.492 -0.1598  0.0986  0.0870
 9707SOL     OW29515   2.675   6.447   4.251  0.5233 -0.9145  0.0774
 9707SOL    HW129516   2.743   6.507   4.280 -1.0508  0.4950  0.9657
 9707SOL    HW229517   2.718   6.395   4.182  1.8076  1.5489 -1.1097
 9708SOL     OW29518   5.312   3.269   0.080 -0.5896  0.1842  0.0115
 9708SOL    HW129519   5.300   3.174   0.075  0.6634  0.0477 -0.7674
 9708SOL    HW229520   5.402   3.280   0.112 -0.7794  1.1150  0.2622
 9709SOL     OW29521   4.393   4.406   1.661  0.5947 -0.6072 -0.6573
 9709SOL    HW129522   4.481   4.402   1.700  1.8727 -0.7295 -3.3197
 9709SOL    HW229523   4.402   4.359   1.578 -2.2191 -1.2390 -0.6953
 9710SOL     OW29524   0.755   6.452   4.131  0.1149  0.2843 -0.4959
 9710SOL    HW129525   0.690   6.383   4.120 -1.3029  1.5282 -0.2658
 9710SOL    HW229526   0.749   6.476   4.223 -0.0851  1.3360 -0.7703
 9711SOL     OW29527   5.146   0.320   5.479 -0.2705  0.3028 -0.3268
 9711SOL    HW129528   5.063   0.308   5.432 -1.3804  0.1120  1.5801
 9711SOL    HW229529   5.169   0.232   5.510  1.5407  0.0560 -2.1542
 9712SOL     OW29530   5.793   3.709   5.819  0.1305 -0.0837 -0.7824
 9712SOL    HW129531   5.809   3.803   5.812 -0.4624  0.1451  0.6230
 9712SOL    HW229532   5.702   3.701   5.847  1.3435 -0.7654  3.9689
 9713SOL     OW29533   0.255   3.219   1.064 -0.1999 -0.2272  0.6028
 9713SOL    HW129534   0.264   3.315   1.064  1.6929 -0.3549  1.5479
 9713SOL    HW229535   0.251   3.196   1.157 -2.5825 -0.9782  0.3818
 9714SOL     OW29536   6.286   6.437   6.158 -0.1046  0.0170 -0.2054
 9714SOL    HW129537   6.233   6.516   6.154 -1.7112 -0.9982  0.2337
 9714SOL    HW229538   6.257   6.393   6.238 -0.2692 -1.7028 -1.1662
 9715SOL     OW29539   3.405   0.838   6.702 -0.0718  0.5954 -0.0045
 9715SOL    HW129540   3.489   0.812   6.666 -0.4570  1.5936 -1.7173
 9715SOL    HW229541   3.426   0.906   6.766  0.5576 -0.6367  1.1360
 9716SOL     OW29542   0.643   3.492   4.236  0.4642 -0.2996  0.4716
 9716SOL    HW129543   0.587   3.439   4.179 -0.0951  0.1141  0.6305
 9716SOL    HW229544   0.732   3.464   4.215  0.1612 -1.6549  0.9038
 9717SOL     OW29545   1.190   0.607   2.287 -0.2059  0.6260  0.2142
 9717SOL    HW129546   1.194   0.521   2.246  1.9875 -0.2943  2.1289
 9717SOL    HW229547   1.193   0.589   2.381  0.9567  2.8015  0.6678
 9718SOL     OW29548   5.550   0.815   0.951  0.0084  0.3738 -0.5646
 9718SOL    HW129549   5.551   0.803   0.856  2.1887  1.3086 -0.7134
 9718SOL    HW229550   5.503   0.898   0.964 -1.8706 -0.6202 -0.6339
 9719SOL     OW29551   0.067   2.985   5.100 -0.3368 -0.0930 -0.0167
 9719SOL    HW129552   0.113   3.037   5.034 -1.1070 -0.3594 -0.7790
 9719SOL    HW229553   0.120   2.994   5.179  0.3505  0.6113 -0.5466
 9720SOL     OW29554   0.697   4.714   4.615  0.4129 -0.1441 -0.0210
 9720SOL    HW129555   0.619   4.702   4.561 -0.8736 -1.4496  1.9832
 9720SOL    HW229556   0.769   4.716   4.552 -1.0799 -0.3700 -1.8475
 9721SOL     OW29557   6.009   0.669   3.237  0.1103  0.8835 -0.1994
 9721SOL    HW129558   5.948   0.616   3.185  0.4470  0.2816  0.0003
 9721SOL    HW229559   5.953   0.709   3.304  0.0262 -0.3324  0.5049
 9722SOL     OW29560   2.723   6.472   0.717  0.3612  0.2100 -0.3904
 9722SOL    HW129561   2.726   6.549   0.773 -0.2974  0.1568 -0.2656
 9722SOL    HW229562   2.728   6.398   0.777  1.9574  0.1418 -0.5796
 9723SOL     OW29563   5.809   5.855   3.471 -0.0071  0.3166 -0.1141
 9723SOL    HW129564   5.764   5.819   3.395  2.1538  0.2877 -1.4413
 9723SOL    HW229565   5.819   5.948   3.451  1.9571  0.0309 -0.6474
 9724SOL     OW29566   2.782   3.983   1.621 -0.1910  0.2570 -0.1745
 9724SOL    HW129567   2.722   3.945   1.685 -0.1715 -0.0507 -0.3377
 9724SOL    HW229568   2.727   4.041   1.569 -0.1351  0.7855  0.3504
 9725SOL     OW29569   2.641   3.098   6.448 -0.3026 -0.3454 -0.5548
 9725SOL    HW129570   2.714   3.116   6.507  0.4739  0.5995 -1.7746
 9725SOL    HW229571   2.644   3.003   6.434  1.8831 -0.1085 -2.0582
 9726SOL     OW29572   3.595   1.711   4.051 -0.2475  0.2936 -0.1637
 9726SOL    HW129573   3.672   1.674   4.095 -0.0634 -0.9873 -1.4767
 9726SOL    HW229574   3.628   1.790   4.009 -0.6641  2.1530  2.7452
 9727SOL     OW29575   2.916   4.199   1.279  0.2206 -0.0791  0.0545
 9727SOL    HW129576   2.822   4.209   1.293  0.0783 -2.1823  0.9898
 9727SOL    HW229577   2.947   4.287   1.258 -1.9406  0.6582 -0.2508
 9728SOL     OW29578   1.967   6.191   6.403 -0.2493  0.0200 -0.6485
 9728SOL    HW129579   1.934   6.274   6.368 -0.1528 -0.4686 -1.9351
 9728SOL    HW229580   1.896   6.129   6.387  0.2058 -0.4359 -0.8998
 9729SOL     OW29581   2.461   1.913   1.772  0.7686  0.3000  0.3119
 9729SOL    HW129582   2.514   1.843   1.810  1.3788  0.4598 -0.2224
 9729SOL    HW229583   2.389   1.868   1.729  1.9840 -0.1477 -1.3635
 9730SOL     OW29584   2.917   0.253   6.495 -0.0949  0.4461 -0.0415
 9730SOL    HW129585   2.868   0.183   6.537 -0.3753 -0.5040 -1.8625
 9730SOL    HW229586   2.852   0.321   6.477  0.1380  1.1248  1.5308
 9731SOL     OW29587   4.312   5.562   1.226 -0.2137 -0.3325  0.4900
 9731SOL    HW129588   4.326   5.621   1.152  1.7449 -0.1801  0.9509
 9731SOL    HW229589   4.309   5.475   1.187  0.9175 -0.2614  0.2118
 9732SOL     OW29590   3.428   0.595   6.167  0.7500 -0.0752 -0.7303
 9732SOL    HW129591   3.448   0.519   6.223  1.5208 -0.1074 -1.0306
 9732SOL    HW229592   3.384   0.656   6.225 -0.5954 -1.0585 -0.6697
 9733SOL     OW29593   6.910   2.114   0.267  0.5730  0.2300  0.1969
 9733SOL    HW129594   6.883   2.205   0.280 -0.3988  0.0174 -0.2576
 9733SOL    HW229595   6.862   2.085   0.189  1.3771 -0.4732 -0.0593
 9734SOL     OW29596   6.510   0.963   5.865 -0.9089  0.3497 -0.1359
 9734SOL    HW129597   6.529   0.941   5.957  1.2182 -0.6371 -0.7588
 9734SOL    HW229598   6.420   0.997   5.867 -0.8997  0.4159  2.3124
 9735SOL     OW29599   3.306   5.801   1.422  0.0746 -0.0788  0.3820
 9735SOL    HW129600   3.296   5.753   1.505 -1.3405  0.5498  0.6069
 9735SOL    HW229601   3.393   5.778   1.392  0.9725  0.3397  2.4807
 9736SOL     OW29602   4.583   1.008   3.385 -1.2861  0.7427 -0.5275
 9736SOL    HW129603   4.552   1.038   3.470  0.4236 -0.0794  0.4554
 9736SOL    HW229604   4.641   1.078   3.355  0.3625 -0.1418  0.3858
 9737SOL     OW29605   5.434   0.486   1.654  0.3857 -0.4060  0.4764
 9737SOL    HW129606   5.404   0.531   1.733  0.8808  0.3018  0.2714
 9737SOL    HW229607   5.374   0.515   1.586  1.4807  0.9870  0.0726
 9738SOL     OW29608   6.879   2.864   2.791  0.8419  0.0484 -0.1503
 9738SOL    HW129609   6.939   2.886   2.720  0.6643  0.3032 -0.2235
 9738SOL    HW229610   6.806   2.926   2.781  0.9700  0.3050  0.4485
 9739SOL     OW29611   2.995   2.055   3.164 -0.3965 -0.0088  0.1316
 9739SOL    HW129612   3.060   1.985   3.169 -0.9469 -0.6022 -0.7277
 9739SOL    HW229613   3.046   2.135   3.172  0.5585 -0.4379 -1.2197
 9740SOL     OW29614   1.957   2.714   2.287 -0.6956 -0.1034  0.3608
 9740SOL    HW129615   1.864   2.694   2.296 -1.4776  2.6357 -0.4601
 9740SOL    HW229616   1.971   2.721   2.192 -0.8951  3.9592  0.4536
 9741SOL     OW29617   2.076   4.810   3.178  0.1038  0.2085  0.0726
 9741SOL    HW129618   2.098   4.766   3.260  1.2589  0.5648 -0.0248
 9741SOL    HW229619   2.091   4.743   3.110  2.4242  0.8205 -0.1330
 9742SOL     OW29620   4.489   0.356   5.030 -0.3281 -0.3761 -0.3470
 9742SOL    HW129621   4.402   0.335   5.064 -0.6312 -0.6961 -1.2744
 9742SOL    HW229622   4.472   0.414   4.955  0.3242  0.4594  0.1366
 9743SOL     OW29623   1.089   0.017   2.702  0.4127  0.2574 -0.0953
 9743SOL    HW129624   1.109   0.110   2.690 -2.3160  0.7692 -1.5015
 9743SOL    HW229625   1.069  -0.015   2.614  1.0771 -1.6483  0.3940
 9744SOL     OW29626   5.768   6.161   2.000 -0.3621  0.0256 -0.0436
 9744SOL    HW129627   5.725   6.157   1.914  0.5197  0.1530 -0.4975
 9744SOL    HW229628   5.847   6.212   1.985 -1.7893  2.9263  1.5396
 9745SOL     OW29629   0.718   5.459   5.018 -0.4749 -0.4100  0.2045
 9745SOL    HW129630   0.728   5.394   5.088 -0.0727 -0.4747  0.0893
 9745SOL    HW229631   0.625   5.457   4.997 -0.4527 -1.0078  0.1469
 9746SOL     OW29632   1.492   2.458   0.090  0.1321 -0.6079 -0.1960
 9746SOL    HW129633   1.465   2.371   0.117  0.2943 -0.0429  1.9901
 9746SOL    HW229634   1.411   2.500   0.060 -0.0925 -1.2047 -0.4511
 9747SOL     OW29635   5.913   6.384   3.847  0.1323 -0.1329  0.1389
 9747SOL    HW129636   5.993   6.335   3.870  0.0297  0.0689  0.9330
 9747SOL    HW229637   5.861   6.384   3.927 -0.6246 -0.1694 -0.3463
 9748SOL     OW29638   4.243   4.133   0.147 -0.1316 -0.3191 -0.0305
 9748SOL    HW129639   4.206   4.191   0.214 -0.0643 -0.7026  0.3385
 9748SOL    HW229640   4.335   4.126   0.170  0.2105  0.7061 -1.0020
 9749SOL     OW29641   5.818   3.252   2.541 -0.0453 -0.3524 -0.1251
 9749SOL    HW129642   5.845   3.172   2.585 -1.1109 -1.2878 -1.1325
 9749SOL    HW229643   5.724   3.243   2.528  0.0828  0.2904 -1.7648
 9750SOL     OW29644   5.189   5.401   1.247 -0.2565 -0.0891 -0.1458
 9750SOL    HW129645   5.275   5.399   1.206  0.1391  0.8065  0.5855
 9750SOL    HW229646   5.166   5.494   1.248 -1.3412 -0.3405 -0.5326
 9751SOL     OW29647   1.845   3.727   4.266  0.4278  0.3358  0.0097
 9751SOL    HW129648   1.824   3.763   4.180  2.0296  1.4794  0.0664
 9751SOL    HW229649   1.761   3.696   4.300 -0.1830 -0.4819 -2.0947
 9752SOL     OW29650   4.909   3.552   1.640  0.0512  0.3036  0.0180
 9752SOL    HW129651   4.936   3.627   1.692  0.7832  0.2853 -0.3239
 9752SOL    HW229652   4.859   3.497   1.701  1.3721  0.0023  0.8841
 9753SOL     OW29653   0.319   5.529   5.241 -0.2608 -0.0319 -0.3048
 9753SOL    HW129654   0.366   5.504   5.320 -0.2930 -0.1428 -0.3210
 9753SOL    HW229655   0.227   5.515   5.262 -0.5861  2.9730  0.7868
 9754SOL     OW29656   3.121   0.370   2.595  0.2915 -0.1569 -0.1810
 9754SOL    HW129657   3.209   0.405   2.577  0.4371 -0.8352 -0.8482
 9754SOL    HW229658   3.136   0.291   2.645  0.0703 -0.3423 -0.4023
 9755SOL     OW29659   3.841   1.359   4.754 -0.2180  0.1387  0.4784
 9755SOL    HW129660   3.806   1.273   4.778 -0.4896 -0.0825 -0.6412
 9755SOL    HW229661   3.886   1.390   4.833 -1.0942 -0.5227  1.2610
 9756SOL     OW29662   1.983   1.879   4.328  0.1461 -0.1604 -0.0037
 9756SOL    HW129663   1.986   1.874   4.423 -0.4866  1.2035  0.1019
 9756SOL    HW229664   1.968   1.971   4.308  2.4671 -0.0106 -1.4891
 9757SOL     OW29665   1.271   4.874   2.330 -0.1376 -0.1320  0.2043
 9757SOL    HW129666   1.359   4.910   2.330  0.0613 -0.5639  1.7035
 9757SOL    HW229667   1.215   4.947   2.306  0.6321  0.1009 -0.9518
 9758SOL     OW29668   1.513   1.458   5.826 -1.1589  0.5260 -0.0517
 9758SOL    HW129669   1.439   1.480   5.769 -0.3058  1.2513 -0.9315
 9758SOL    HW229670   1.590   1.469   5.770 -0.4126 -0.8202  0.6570
 9759SOL     OW29671   4.514   0.560   6.050 -0.3527 -0.0614 -0.4226
 9759SOL    HW129672   4.598   0.577   6.094 -0.7804  1.3500 -0.1037
 9759SOL    HW229673   4.511   0.465   6.040  1.0021 -0.1832  0.1314
 9760SOL     OW29674   5.953   6.665   0.481 -0.5993  0.7833  0.1617
 9760SOL    HW129675   5.987   6.585   0.442 -0.4331  1.0571 -0.2635
 9760SOL    HW229676   5.901   6.636   0.556 -1.1256  0.2370 -0.4065
 9761SOL     OW29677   4.513   2.786   1.382  0.2893  0.1121 -0.3963
 9761SOL    HW129678   4.507   2.876   1.350 -1.0952  0.6368  1.1909
 9761SOL    HW229679   4.516   2.733   1.302 -1.8247  1.4246 -1.4436
 9762SOL     OW29680   0.123   3.397   5.415 -0.6316  0.2532  0.4075
 9762SOL    HW129681   0.124   3.416   5.321 -1.3677 -1.3746  0.0416
 9762SOL    HW229682   0.167   3.473   5.455 -0.5776  1.1220 -1.2044
 9763SOL     OW29683   3.362   3.186   1.966 -0.7054 -0.7996 -0.1489
 9763SOL    HW129684   3.346   3.196   2.060 -0.4053 -1.8621  0.0255
 9763SOL    HW229685   3.456   3.167   1.960 -0.8048 -1.1601 -0.6229
 9764SOL     OW29686   5.994   2.641   5.364  0.0996 -0.0205  0.0233
 9764SOL    HW129687   5.939   2.606   5.434  1.1280  0.4368  1.0784
 9764SOL    HW229688   6.074   2.588   5.367  1.9092  2.6226  1.9931
 9765SOL     OW29689   3.457   0.204   1.508 -0.2889  0.0716  0.2505
 9765SOL    HW129690   3.529   0.222   1.568  0.2942  2.0362 -0.9319
 9765SOL    HW229691   3.379   0.230   1.556 -0.0747 -0.6062  0.9856
 9766SOL     OW29692   6.588   4.887   3.060 -0.3746 -0.1448 -0.4503
 9766SOL    HW129693   6.679   4.871   3.086  0.1483  2.1780 -0.6080
 9766SOL    HW229694   6.567   4.972   3.099 -2.6085 -0.7800 -0.1625
 9767SOL     OW29695   6.114   3.335   3.124 -0.6880  0.0712 -0.2164
 9767SOL    HW129696   6.053   3.400   3.161 -1.8831 -0.0741 -1.8010
 9767SOL    HW229697   6.082   3.321   3.035  0.9994 -0.9181 -0.7055
 9768SOL     OW29698   4.684   5.686   2.986  0.5391  0.0572 -0.0384
 9768SOL    HW129699   4.604   5.635   2.996 -0.3433  1.4488  0.2543
 9768SOL    HW229700   4.748   5.624   2.952 -0.9733 -0.8113 -1.4371
 9769SOL     OW29701   4.858   6.106   4.104 -0.0003  0.3185 -0.0723
 9769SOL    HW129702   4.837   6.019   4.070  0.0717 -0.3579  1.4922
 9769SOL    HW229703   4.950   6.099   4.131  0.0375  0.9182 -0.0415
 9770SOL     OW29704   0.554   3.077   2.162  0.1303 -0.6959 -0.0747
 9770SOL    HW129705   0.642   3.042   2.162  0.3098 -0.5105  3.2178
 9770SOL    HW229706   0.565   3.169   2.137  0.6628 -0.9907 -0.9626
 9771SOL     OW29707   4.337   2.907   3.586 -0.7219  0.0059 -0.2942
 9771SOL    HW129708   4.326   2.960   3.666  0.1037  0.5643 -0.5413
 9771SOL    HW229709   4.385   2.830   3.615  0.8665  0.8826 -0.4850
 9772SOL     OW29710   1.213   0.648   6.123 -0.0564 -0.4008  0.0869
 9772SOL    HW129711   1.172   0.734   6.112  1.5173  0.5269  1.1016
 9772SOL    HW229712   1.207   0.631   6.217  1.2732 -0.5397  0.1585
 9773SOL     OW29713   3.185   0.137   3.112 -0.3823  0.5129 -0.0777
 9773SOL    HW129714   3.272   0.170   3.134 -0.5905  0.0289  1.7115
 9773SOL    HW229715   3.202   0.053   3.068  0.0632  0.5674 -0.0156
 9774SOL     OW29716   4.081   6.619   3.287 -0.3614  0.0940 -0.2954
 9774SOL    HW129717   4.025   6.677   3.236 -2.9469  1.3067  3.5107
 9774SOL    HW229718   4.137   6.677   3.338 -0.3027 -0.8533  0.7646
 9775SOL     OW29719   3.099   1.836   4.928  0.1214 -0.1092 -0.0654
 9775SOL    HW129720   3.030   1.843   4.862  0.0586  1.4061  0.1370
 9775SOL    HW229721   3.153   1.763   4.899 -0.6176 -0.2527 -1.1200
 9776SOL     OW29722   3.137   4.031   6.705 -0.0632  0.5426 -0.2166
 9776SOL    HW129723   3.068   3.965   6.716 -0.1391  0.7480  0.5879
 9776SOL    HW229724   3.114   4.100   6.766  0.6607  0.7836 -0.2072
 9777SOL     OW29725   4.441   4.400   3.130  0.2650  0.7178  0.0543
 9777SOL    HW129726   4.429   4.321   3.076  0.6392  0.5549  0.2075
 9777SOL    HW229727   4.536   4.408   3.141  0.2112  0.9792  0.3533
 9778SOL     OW29728   3.637   0.650   4.097 -0.5930 -0.1573  0.0007
 9778SOL    HW129729   3.586   0.714   4.148 -0.5463  0.6499 -0.9276
 9778SOL    HW229730   3.726   0.683   4.099 -0.4114 -0.6556  0.2178
 9779SOL     OW29731   4.723   0.829   2.762 -0.1301  0.2541  0.1864
 9779SOL    HW129732   4.648   0.771   2.757 -0.8809  1.2800 -1.3946
 9779SOL    HW229733   4.773   0.811   2.682  0.4083  0.7475  0.3981
 9780SOL     OW29734   6.298   1.078   2.958 -0.2467  0.5735  0.4069
 9780SOL    HW129735   6.387   1.052   2.933 -0.1951  0.1917  0.9718
 9780SOL    HW229736   6.255   0.996   2.981 -0.6942  0.7804  0.3163
 9781SOL     OW29737   1.958   4.407   5.385  0.3769  0.1027  0.1358
 9781SOL    HW129738   2.038   4.357   5.366 -0.2487 -1.7760  1.9997
 9781SOL    HW229739   1.953   4.407   5.481 -1.4230  0.8952  0.0751
 9782SOL     OW29740   2.222   5.451   2.123  0.3218 -0.0025  0.1059
 9782SOL    HW129741   2.315   5.467   2.135  0.5544 -0.0535 -1.4118
 9782SOL    HW229742   2.205   5.370   2.172  0.4734  1.3392  2.5351
 9783SOL     OW29743   5.074   1.641   4.575 -0.1263 -0.4024  0.0437
 9783SOL    HW129744   5.028   1.714   4.615  0.9657  0.4222 -0.1512
 9783SOL    HW229745   5.121   1.599   4.647 -1.0479 -1.1727  0.2226
 9784SOL     OW29746   1.683   5.591   4.897 -0.2403 -0.7819  0.0828
 9784SOL    HW129747   1.588   5.580   4.890 -0.3468  0.0158  0.1320
 9784SOL    HW229748   1.712   5.520   4.954 -1.0906  0.1366  1.7231
 9785SOL     OW29749   4.668   4.275   4.845  0.2229 -0.3494 -0.6508
 9785SOL    HW129750   4.750   4.227   4.859 -0.3063 -1.0605  0.1641
 9785SOL    HW229751   4.689   4.365   4.869  1.0033 -0.3305 -1.3560
 9786SOL     OW29752   3.406   5.831   2.443 -0.1539 -0.1490 -0.2475
 9786SOL    HW129753   3.380   5.922   2.427 -0.3630 -0.1494  0.0692
 9786SOL    HW229754   3.474   5.813   2.379  0.7632  0.6309  0.4842
 9787SOL     OW29755   6.155   5.402   5.791  0.2376  0.4846  0.1000
 9787SOL    HW129756   6.167   5.395   5.696  1.1699  0.3482  0.2102
 9787SOL    HW229757   6.218   5.470   5.817  0.1165  0.3921  0.6365
 9788SOL     OW29758   4.193   2.066   1.554  0.3969  0.1576  0.3143
 9788SOL    HW129759   4.099   2.080   1.564  0.1639  1.7180 -2.7382
 9788SOL    HW229760   4.202   1.972   1.535 -0.7549  0.2548 -0.8054
 9789SOL     OW29761   1.606   4.242   1.133 -0.6807  0.1508  0.0988
 9789SOL    HW129762   1.674   4.191   1.177 -1.2886  0.5400  1.5552
 9789SOL    HW229763   1.556   4.177   1.084  0.0966 -0.2808 -0.1377
 9790SOL     OW29764   3.166   2.756   5.377 -0.4950 -0.7955 -0.1704
 9790SOL    HW129765   3.101   2.824   5.358  0.1905  0.1493  0.6621
 9790SOL    HW229766   3.220   2.751   5.298  0.9004  1.3873  0.5441
 9791SOL     OW29767   6.050   1.135   5.631 -0.2046 -0.2746 -0.2331
 9791SOL    HW129768   6.124   1.098   5.583 -0.1258  0.1699 -0.4557
 9791SOL    HW229769   6.074   1.227   5.645  0.6578 -0.7992  2.3400
 9792SOL     OW29770   1.309   6.394   6.911  0.6939 -0.2106 -0.0875
 9792SOL    HW129771   1.333   6.407   7.003  2.8078 -3.3800 -0.0540
 9792SOL    HW229772   1.392   6.398   6.864 -0.2138  0.1393 -1.7426
 9793SOL     OW29773   1.104   6.408   6.464  0.0078  0.1613 -0.4732
 9793SOL    HW129774   1.166   6.475   6.435 -1.1952  1.2193 -0.6748
 9793SOL    HW229775   1.039   6.455   6.514 -0.7012 -0.9141 -0.3423
 9794SOL     OW29776   5.814   0.040   2.045 -0.0400 -0.7820  0.3480
 9794SOL    HW129777   5.816  -0.013   1.965 -0.4384 -0.2623 -0.0140
 9794SOL    HW229778   5.726   0.078   2.046  0.5398  0.6152  0.1169
 9795SOL     OW29779   5.637   1.031   3.141  0.1016 -0.0050 -0.0447
 9795SOL    HW129780   5.569   1.089   3.105  0.9523  2.4285  1.9686
 9795SOL    HW229781   5.719   1.064   3.102  0.4477 -1.0853 -0.2640
 9796SOL     OW29782   1.299   3.846   5.390  0.1009  0.0458  0.5733
 9796SOL    HW129783   1.253   3.763   5.385 -0.7561  0.4813  1.0494
 9796SOL    HW229784   1.345   3.843   5.474  1.6744 -0.7429 -0.2784
 9797SOL     OW29785   5.011   3.229   5.152  0.3878  0.2013  0.1308
 9797SOL    HW129786   5.004   3.138   5.179  1.6215  0.4613  1.4974
 9797SOL    HW229787   4.926   3.268   5.175 -0.2785 -0.6690 -0.8182
 9798SOL     OW29788   1.752   3.239   0.993 -0.4536 -0.1045 -0.0331
 9798SOL    HW129789   1.711   3.176   0.934  0.4622  0.2744 -1.1323
 9798SOL    HW229790   1.842   3.208   1.002 -0.6012 -0.1885  1.2465
 9799SOL     OW29791   6.850   0.147   5.330 -0.5295  0.2630 -0.0356
 9799SOL    HW129792   6.814   0.216   5.276  1.1757  1.4947  0.3289
 9799SOL    HW229793   6.895   0.089   5.269 -0.8308  0.2063 -0.2038
 9800SOL     OW29794   3.112   1.849   6.598 -0.3639 -0.8196  0.5692
 9800SOL    HW129795   3.195   1.891   6.618 -0.8492 -0.7651  2.6730
 9800SOL    HW229796   3.059   1.919   6.559 -0.0868 -0.3269  1.0641
 9801SOL     OW29797   3.231   0.120   0.418  0.2247  0.7071 -0.6531
 9801SOL    HW129798   3.187   0.117   0.334  0.4326 -1.0136 -0.7423
 9801SOL    HW229799   3.250   0.028   0.439 -0.7854  0.9755  1.7735
 9802SOL     OW29800   4.507   1.615   1.123 -0.5919  0.1956 -0.0975
 9802SOL    HW129801   4.479   1.576   1.040  0.2117  0.0570 -0.3144
 9802SOL    HW229802   4.429   1.614   1.178 -0.4088 -2.6997  0.2643
 9803SOL     OW29803   5.310   1.508   6.168  0.5795  0.4466 -0.0100
 9803SOL    HW129804   5.252   1.487   6.095  0.9535  0.5137 -0.3260
 9803SOL    HW229805   5.368   1.576   6.134 -0.1634  1.5163  0.7932
 9804SOL     OW29806   5.799   6.522   6.528  0.1299 -0.3636 -0.3255
 9804SOL    HW129807   5.827   6.475   6.606 -1.4398 -2.7483 -1.1067
 9804SOL    HW229808   5.732   6.582   6.559 -0.1371 -0.9446  0.2308
 9805SOL     OW29809   4.775   2.983   6.615 -0.2730  0.1877  0.3399
 9805SOL    HW129810   4.721   3.059   6.594 -1.8452 -0.5153  1.5834
 9805SOL    HW229811   4.776   2.980   6.711 -0.5009 -1.4951  0.3295
 9806SOL     OW29812   1.756   5.459   2.609 -0.2205  0.2859  0.4977
 9806SOL    HW129813   1.823   5.421   2.666 -1.3897 -0.5606  1.3649
 9806SOL    HW229814   1.804   5.493   2.534  1.1015 -0.9636  0.7388
 9807SOL     OW29815   4.558   4.891   2.250 -0.0734 -0.1615  0.4416
 9807SOL    HW129816   4.557   4.985   2.231  2.8607 -0.0412  0.2781
 9807SOL    HW229817   4.493   4.879   2.319 -3.0911  1.3029 -1.9255
 9808SOL     OW29818   2.458   3.105   2.453  0.4955  0.3445  0.3480
 9808SOL    HW129819   2.549   3.115   2.425  0.2524  1.4223 -0.0902
 9808SOL    HW229820   2.417   3.052   2.384  0.3759  1.3407 -0.3637
 9809SOL     OW29821   4.022   2.125   3.485  0.2727 -0.2512  0.0048
 9809SOL    HW129822   3.960   2.158   3.420 -0.1506 -0.7509  0.1454
 9809SOL    HW229823   4.023   2.030   3.472  3.2740 -0.0893 -2.0083
 9810SOL     OW29824   4.783   3.828   6.097 -0.6483  0.0274  0.4249
 9810SOL    HW129825   4.794   3.871   6.181  2.3155  0.3353 -0.0091
 9810SOL    HW229826   4.708   3.770   6.109  0.1066 -0.4892  3.5316
 9811SOL     OW29827   2.640   4.221   1.332 -0.3036  0.1108  0.2927
 9811SOL    HW129828   2.629   4.126   1.336 -0.0392 -0.0260 -1.3681
 9811SOL    HW229829   2.621   4.251   1.421 -0.6543 -1.4605  0.7887
 9812SOL     OW29830   2.598   2.234   0.897  0.3881  0.2340 -0.5348
 9812SOL    HW129831   2.620   2.327   0.895  0.3529  0.2452 -0.4380
 9812SOL    HW229832   2.645   2.200   0.973 -0.2018  0.3309 -0.1148
 9813SOL     OW29833   3.419   1.561   2.582 -0.3497 -0.2871  0.0060
 9813SOL    HW129834   3.365   1.483   2.567  0.1532 -0.9518  1.4114
 9813SOL    HW229835   3.418   1.573   2.677  1.8352 -0.2578  0.0784
 9814SOL     OW29836   0.940   5.802   0.106 -0.1436 -0.1420 -0.0774
 9814SOL    HW129837   0.847   5.824   0.107 -0.3601 -1.0365 -0.1455
 9814SOL    HW229838   0.979   5.864   0.168 -0.7674  0.2743 -0.0840
 9815SOL     OW29839   5.554   1.839   2.544  0.0036 -0.2950 -0.0527
 9815SOL    HW129840   5.471   1.885   2.530 -0.3706 -0.0822  2.3712
 9815SOL    HW229841   5.604   1.854   2.464 -0.9805  2.4371 -0.2392
 9816SOL     OW29842   6.803   4.020   1.049 -0.2163 -0.8401  0.0565
 9816SOL    HW129843   6.716   3.984   1.029 -0.4227 -0.3274  0.0360
 9816SOL    HW229844   6.786   4.090   1.111  0.3476 -1.9389  1.5237
 9817SOL     OW29845   3.504   0.596   2.837 -0.2478 -0.0932 -0.0865
 9817SOL    HW129846   3.562   0.652   2.786  1.0611  0.6230  2.0648
 9817SOL    HW229847   3.562   0.531   2.876 -1.1625 -0.4907  0.6529
 9818SOL     OW29848   5.878   0.846   5.853  0.0497  0.2765  0.4365
 9818SOL    HW129849   5.873   0.929   5.806  1.1074  0.7824  1.1771
 9818SOL    HW229850   5.928   0.789   5.795  0.6745  0.6552  0.5868
 9819SOL     OW29851   1.767   5.122   6.901  0.5499 -0.1204 -0.5147
 9819SOL    HW129852   1.838   5.098   6.960  1.4556  0.7489 -1.2329
 9819SOL    HW229853   1.724   5.196   6.943  1.5167  0.8352 -1.1509
 9820SOL     OW29854   6.015   1.531   5.174  0.3951  0.3714 -0.3896
 9820SOL    HW129855   5.974   1.573   5.098  1.3989  1.4319 -0.3657
 9820SOL    HW229856   5.973   1.573   5.250 -0.1640 -0.2487 -0.3464
 9821SOL     OW29857   3.687   3.022   3.464 -0.1939  0.0817  0.1126
 9821SOL    HW129858   3.644   3.104   3.439 -0.7496  0.3263  1.7377
 9821SOL    HW229859   3.762   3.050   3.517 -0.6343 -0.4365  1.0414
 9822SOL     OW29860   1.431   2.749   2.991  0.4738 -0.2943 -0.0046
 9822SOL    HW129861   1.383   2.668   3.011 -1.8382  0.9529 -0.1954
 9822SOL    HW229862   1.391   2.815   3.046  2.0210  0.8445 -0.1839
 9823SOL     OW29863   0.570   1.312   2.461 -0.6451  0.4902 -0.3306
 9823SOL    HW129864   0.661   1.295   2.438 -0.3988  0.0852  0.8988
 9823SOL    HW229865   0.574   1.385   2.522 -1.0887  0.0963  0.1790
 9824SOL     OW29866   5.900   1.321   1.658  0.2338  0.4271  0.2714
 9824SOL    HW129867   5.844   1.389   1.620 -1.1363 -0.3988  0.7028
 9824SOL    HW229868   5.873   1.316   1.750 -1.7552 -2.4995 -0.2943
 9825SOL     OW29869   5.373   1.309   2.517 -0.0055  0.4070 -0.6974
 9825SOL    HW129870   5.301   1.280   2.573 -0.3781  1.1924 -0.7637
 9825SOL    HW229871   5.425   1.367   2.572  0.8583 -0.5206 -0.5041
 9826SOL     OW29872   5.096   0.279   1.044 -0.8292 -0.4908 -0.2791
 9826SOL    HW129873   5.184   0.290   1.078 -1.1138 -0.4139  0.4538
 9826SOL    HW229874   5.092   0.337   0.968 -0.7730  0.8073  0.6769
 9827SOL     OW29875   1.803   5.369   5.004  0.2314 -0.2452 -0.1524
 9827SOL    HW129876   1.884   5.324   5.029  0.3361  0.0955  0.1430
 9827SOL    HW229877   1.734   5.304   5.018  0.3498 -0.2334  0.5428
 9828SOL     OW29878   2.972   6.542   5.203 -0.0581 -0.2500 -0.7920
 9828SOL    HW129879   2.939   6.456   5.179  1.5956 -1.3796  0.7444
 9828SOL    HW229880   3.058   6.547   5.162 -0.3294  0.9118 -1.2740
 9829SOL     OW29881   5.037   2.569   1.755 -0.3848 -0.1349  0.0309
 9829SOL    HW129882   5.046   2.474   1.763 -0.0285 -0.1046  0.0302
 9829SOL    HW229883   4.982   2.595   1.829 -0.8857 -0.3995 -0.2465
 9830SOL     OW29884   0.512   3.134   5.359  0.0410 -0.1760 -0.3993
 9830SOL    HW129885   0.465   3.177   5.430  0.6803 -0.4727  0.2153
 9830SOL    HW229886   0.593   3.102   5.399 -0.3455 -1.8219 -0.8817
 9831SOL     OW29887   3.014   3.475   3.523  0.8010 -0.0778 -0.6759
 9831SOL    HW129888   2.950   3.474   3.452 -1.2046  1.5936  0.9905
 9831SOL    HW229889   3.011   3.386   3.559 -2.2544  0.4564  0.6799
 9832SOL     OW29890   3.992   5.139   1.861 -0.3656 -0.2724  0.1977
 9832SOL    HW129891   4.028   5.207   1.805  0.5574  0.0751  1.1764
 9832SOL    HW229892   3.905   5.122   1.826  0.2374 -0.1955 -1.4402
 9833SOL     OW29893   3.143   2.083   4.298  0.0157  0.5248 -0.1254
 9833SOL    HW129894   3.135   2.159   4.356  0.3172  0.3111  0.2036
 9833SOL    HW229895   3.207   2.027   4.341 -1.7164 -0.9069  0.7391
 9834SOL     OW29896   2.373   4.000   4.217 -0.4268  0.0810  0.3572
 9834SOL    HW129897   2.300   3.942   4.194 -1.1151  0.2692  1.9020
 9834SOL    HW229898   2.409   3.961   4.297  0.0259  0.9793  0.5937
 9835SOL     OW29899   5.429   6.077   3.336  0.5360  0.0817 -0.7387
 9835SOL    HW129900   5.334   6.071   3.324  0.2415 -0.9099  1.5170
 9835SOL    HW229901   5.445   6.169   3.358  0.0072  0.1425 -0.5989
 9836SOL     OW29902   5.873   4.049   5.971  0.5314 -0.5915  0.3383
 9836SOL    HW129903   5.859   4.068   6.064  0.7433 -0.8505  0.4245
 9836SOL    HW229904   5.930   3.971   5.971  0.3813 -0.7016 -0.0067
 9837SOL     OW29905   0.884   4.757   5.616  0.0888  0.6612 -0.5678
 9837SOL    HW129906   0.872   4.682   5.556  1.7566  1.1612 -1.5728
 9837SOL    HW229907   0.854   4.724   5.701  1.6603 -1.4989 -0.7683
 9838SOL     OW29908   1.025   4.275   2.971  0.5202 -0.0524 -0.2201
 9838SOL    HW129909   1.066   4.189   2.972 -1.7631 -1.2998 -2.0808
 9838SOL    HW229910   0.986   4.285   3.057  1.9583 -0.2152  0.4789
 9839SOL     OW29911   1.683   3.977   6.217 -0.0909 -0.0699  0.2568
 9839SOL    HW129912   1.625   4.016   6.282  0.0852 -0.3385  0.5760
 9839SOL    HW229913   1.649   3.889   6.202 -0.3415  0.1125 -0.2827
 9840SOL     OW29914   4.507   0.714   2.529 -0.0562  0.3619 -0.0832
 9840SOL    HW129915   4.441   0.782   2.541  0.2662  0.8487 -0.9745
 9840SOL    HW229916   4.509   0.667   2.612 -2.2072 -0.2922 -0.3606
 9841SOL     OW29917   5.823   4.115   5.717  0.6243  0.7745 -0.0263
 9841SOL    HW129918   5.850   4.064   5.793 -0.4377 -0.6333 -0.5411
 9841SOL    HW229919   5.739   4.154   5.742 -1.4799 -2.4295 -1.5064
 9842SOL     OW29920   0.534   6.329   2.009 -0.1294 -0.1561  0.0129
 9842SOL    HW129921   0.454   6.380   2.022 -0.8658 -1.0988 -0.6199
 9842SOL    HW229922   0.563   6.352   1.921  0.3602  0.2554  0.2774
 9843SOL     OW29923   3.578   2.199   3.166  0.3208  0.2636  0.7734
 9843SOL    HW129924   3.519   2.271   3.143  1.5843  1.4905  1.1652
 9843SOL    HW229925   3.556   2.129   3.105 -1.2931  0.7894  0.7033
 9844SOL     OW29926   5.399   0.560   6.649 -0.3831  0.8958 -0.6007
 9844SOL    HW129927   5.383   0.484   6.705  1.6073  0.7410 -0.1533
 9844SOL    HW229928   5.386   0.528   6.560 -2.9894  0.9880 -0.3241
 9845SOL     OW29929   1.837   1.357   1.508 -0.2481  0.0162 -0.3404
 9845SOL    HW129930   1.789   1.306   1.573  2.1739 -1.0410  0.7088
 9845SOL    HW229931   1.857   1.295   1.438  1.3107 -0.1123  0.1838
 9846SOL     OW29932   0.031   0.085   6.761 -0.0301 -0.2591 -0.0597
 9846SOL    HW129933   0.022   0.073   6.667 -0.9198 -0.2142  0.0142
 9846SOL    HW229934   0.016  -0.002   6.798  1.4658 -0.5349 -0.0080
 9847SOL     OW29935   3.681   6.820   1.163  0.4747  0.0943  0.1082
 9847SOL    HW129936   3.609   6.762   1.186 -0.8879  1.2951 -0.9622
 9847SOL    HW229937   3.640   6.905   1.147  2.0984  0.7896 -0.6609
 9848SOL     OW29938   4.302   4.270   3.340  0.3446  0.1057 -0.6786
 9848SOL    HW129939   4.354   4.320   3.278  0.4373  0.3275 -0.4230
 9848SOL    HW229940   4.313   4.315   3.423 -1.1819  0.8511 -0.8427
 9849SOL     OW29941   1.490   6.104   5.746 -0.2502  0.5760 -0.8661
 9849SOL    HW129942   1.572   6.110   5.795  0.3002 -2.6530 -1.1254
 9849SOL    HW229943   1.517   6.104   5.654 -0.3148 -1.6839 -0.9428
 9850SOL     OW29944   2.109   5.210   2.186 -0.0470  0.5755  0.4739
 9850SOL    HW129945   2.079   5.175   2.269 -1.1326 -0.3789 -0.2830
 9850SOL    HW229946   2.163   5.140   2.149 -1.1546  0.1884 -0.4667
 9851SOL     OW29947   2.106   5.785   3.574 -0.2954  0.3181 -0.9191
 9851SOL    HW129948   2.101   5.841   3.652 -0.8879 -0.4224 -0.4220
 9851SOL    HW229949   2.051   5.829   3.510  1.5742  1.8915 -1.5581
 9852SOL     OW29950   6.590   1.303   1.202  0.2084 -0.3318 -0.4534
 9852SOL    HW129951   6.523   1.285   1.268  0.3280  1.5036  0.2066
 9852SOL    HW229952   6.550   1.275   1.120 -1.6977  1.3664 -0.1821
 9853SOL     OW29953   2.761   4.693   2.701 -0.8543 -0.4540  0.1330
 9853SOL    HW129954   2.731   4.607   2.730 -0.9171  0.0639  1.7424
 9853SOL    HW229955   2.833   4.675   2.641 -0.8378 -1.6405  0.4864
 9854SOL     OW29956   0.889   6.790   1.584 -0.7448  0.0755  0.2947
 9854SOL    HW129957   0.833   6.821   1.513  1.7687  1.6962 -1.1319
 9854SOL    HW229958   0.868   6.698   1.593 -2.9785  0.4249 -0.7497
 9855SOL     OW29959   2.490   1.918   2.851  0.2912 -0.1331 -0.7187
 9855SOL    HW129960   2.462   2.002   2.887  0.0491 -0.0633 -1.0647
 9855SOL    HW229961   2.408   1.872   2.831  0.4119  0.1027 -1.8055
 9856SOL     OW29962   6.880   1.148   1.517 -0.2408  0.4748 -0.2639
 9856SOL    HW129963   6.924   1.181   1.596 -2.7044  1.5314  0.7835
 9856SOL    HW229964   6.933   1.181   1.445 -0.6537  4.0204  0.8553
 9857SOL     OW29965   2.401   1.658   2.504 -0.1997 -0.0670  0.0334
 9857SOL    HW129966   2.341   1.657   2.429  2.0181 -1.9385 -1.8795
 9857SOL    HW229967   2.358   1.602   2.569 -1.0258 -0.5101 -0.8550
 9858SOL     OW29968   1.862   2.377   3.969  0.3350  0.1616 -0.5478
 9858SOL    HW129969   1.933   2.314   3.982  0.5936  0.4783 -0.4280
 9858SOL    HW229970   1.795   2.349   4.031  0.1159 -0.4846 -1.0612
 9859SOL     OW29971   2.308   5.945   2.469 -0.0981  0.0175 -0.6709
 9859SOL    HW129972   2.273   5.890   2.399  1.3966 -1.2395 -0.4960
 9859SOL    HW229973   2.361   6.010   2.424  0.3843 -0.4231 -0.7479
 9860SOL     OW29974   0.463   4.551   5.837  0.1177  0.3335  0.6625
 9860SOL    HW129975   0.456   4.639   5.872 -1.9158  0.1073  0.9192
 9860SOL    HW229976   0.534   4.510   5.887  0.3719  1.4747  1.2488
 9861SOL     OW29977   2.169   4.056   3.318  0.2807 -0.0761  0.7081
 9861SOL    HW129978   2.108   4.129   3.305 -0.9842 -1.0451  1.0818
 9861SOL    HW229979   2.230   4.087   3.385  1.2762  1.5277 -0.8339
 9862SOL     OW29980   1.753   0.803   1.959 -0.3520 -0.8059  0.3987
 9862SOL    HW129981   1.692   0.877   1.962 -0.0510 -0.5767  1.0332
 9862SOL    HW229982   1.707   0.736   1.909 -1.5222 -0.9976  1.6724
 9863SOL     OW29983   5.969   0.786   0.250  0.5617  0.1161  0.1642
 9863SOL    HW129984   6.051   0.737   0.247  1.1400  1.0646  0.1546
 9863SOL    HW229985   5.995   0.876   0.270 -0.4581  0.4707 -0.0301
 9864SOL     OW29986   3.883   0.609   1.886 -0.6339 -0.2708 -0.7294
 9864SOL    HW129987   3.827   0.534   1.904 -2.4563  1.1605 -0.1442
 9864SOL    HW229988   3.925   0.629   1.970  0.8161 -1.3229 -1.1593
 9865SOL     OW29989   6.255   0.405   2.875  0.2661 -0.0108  0.1922
 9865SOL    HW129990   6.268   0.447   2.960  2.1503  2.0943 -1.0537
 9865SOL    HW229991   6.319   0.334   2.874  0.8237  0.4849  0.2203
 9866SOL     OW29992   1.356   6.237   2.790 -0.4240 -0.4957  0.4934
 9866SOL    HW129993   1.375   6.238   2.884 -2.4602  0.9864  0.9526
 9866SOL    HW229994   1.425   6.182   2.752  2.2214  1.2118  2.4417
 9867SOL     OW29995   5.284   1.528   0.755 -0.0750 -0.4574  0.5021
 9867SOL    HW129996   5.295   1.592   0.684  0.5331 -1.4293 -0.3091
 9867SOL    HW229997   5.198   1.548   0.793 -0.6914 -0.2953 -0.9209
 9868SOL     OW29998   3.299   6.014   4.709 -0.6853 -0.3894 -0.1461
 9868SOL    HW129999   3.276   6.062   4.630  0.4690 -0.8114 -0.7567
 9868SOL    HW230000   3.344   5.935   4.678 -1.5365 -1.3218  0.8804
 9869SOL     OW30001   6.778   2.323   0.364  0.1678 -0.3480 -0.1073
 9869SOL    HW130002   6.810   2.341   0.453  0.4627  0.7538 -0.4218
 9869SOL    HW230003   6.683   2.321   0.372 -0.0923  3.6224 -0.3627
 9870SOL     OW30004   0.876   5.906   0.743 -0.2818  0.0214  0.2847
 9870SOL    HW130005   0.792   5.913   0.697 -0.7605 -2.1490  0.7111
 9870SOL    HW230006   0.873   5.820   0.785  1.8711  0.2048  0.9264
 9871SOL     OW30007   5.760   3.377   1.759  0.1332 -0.2422 -0.6847
 9871SOL    HW130008   5.792   3.400   1.846 -2.0667 -0.6098  0.2909
 9871SOL    HW230009   5.820   3.421   1.699 -0.2282  2.9168  1.0389
 9872SOL     OW30010   2.919   1.029   1.679 -0.1668  0.1511 -0.2546
 9872SOL    HW130011   3.007   0.998   1.660  2.0578  4.9201  0.8790
 9872SOL    HW230012   2.911   1.022   1.774 -0.4915  0.9442 -0.2174
 9873SOL     OW30013   3.312   2.672   2.276  0.1856 -0.1095  0.0437
 9873SOL    HW130014   3.385   2.727   2.247 -1.5685  0.8774 -2.9646
 9873SOL    HW230015   3.314   2.677   2.371  1.5544  3.2808 -0.0406
 9874SOL     OW30016   3.153   1.129   5.970 -0.1880  0.2238 -0.2082
 9874SOL    HW130017   3.123   1.202   5.916  0.0072  0.5922  0.1693
 9874SOL    HW230018   3.236   1.160   6.008 -1.1165  0.6392  1.6017
 9875SOL     OW30019   0.473   5.290   3.699  0.2324 -0.0182  0.5958
 9875SOL    HW130020   0.410   5.330   3.639  0.0793 -2.1060 -0.7208
 9875SOL    HW230021   0.425   5.219   3.741  0.9549  0.0841  1.6349
 9876SOL     OW30022   6.869   3.513   2.549 -0.4567  0.2365  0.6329
 9876SOL    HW130023   6.838   3.487   2.636 -0.2021  0.0624  0.6738
 9876SOL    HW230024   6.792   3.551   2.506 -1.0899 -1.3691  0.2603
 9877SOL     OW30025   3.438   2.737   5.291 -0.5284  0.6225  0.1170
 9877SOL    HW130026   3.419   2.808   5.229 -1.3278  1.3956  1.2144
 9877SOL    HW230027   3.456   2.782   5.374 -1.4011 -0.4641  0.9269
 9878SOL     OW30028   5.568   2.326   4.658  0.2355 -0.4009 -0.2652
 9878SOL    HW130029   5.615   2.390   4.604  0.1052 -0.0234  0.0648
 9878SOL    HW230030   5.503   2.288   4.599  0.8052 -0.7670 -0.6661
 9879SOL     OW30031   2.307   4.262   6.137 -0.6415 -0.0273  0.0588
 9879SOL    HW130032   2.315   4.171   6.164  0.6119 -0.4723 -1.6740
 9879SOL    HW230033   2.396   4.290   6.118 -1.2966  0.5592 -2.4632
 9880SOL     OW30034   2.324   4.481   0.413 -0.2371 -0.1691  0.4845
 9880SOL    HW130035   2.339   4.410   0.351  0.2665 -0.1479  0.5699
 9880SOL    HW230036   2.399   4.539   0.401 -2.3034  2.2256 -2.0618
 9881SOL     OW30037   0.376   4.368   4.202  0.1701 -0.2681  0.2173
 9881SOL    HW130038   0.331   4.445   4.238 -0.0461 -0.4578  0.3614
 9881SOL    HW230039   0.331   4.350   4.119 -1.2532 -1.5411  1.2081
 9882SOL     OW30040   3.174   1.005   1.570  0.4223 -0.3228 -0.6342
 9882SOL    HW130041   3.156   0.916   1.602  1.2468 -0.9627 -1.8717
 9882SOL    HW230042   3.266   1.020   1.595 -0.0694  0.7128  0.6939
 9883SOL     OW30043   1.149   1.773   1.995 -0.1748  0.2337  0.1818
 9883SOL    HW130044   1.075   1.733   2.041 -0.3825  0.4591  0.0482
 9883SOL    HW230045   1.222   1.764   2.055 -0.6246  1.2456  0.9077
 9884SOL     OW30046   1.815   5.063   4.970  0.1841  0.5452 -0.3819
 9884SOL    HW130047   1.765   5.042   4.892  0.4588 -1.3391 -0.0930
 9884SOL    HW230048   1.906   5.066   4.941  0.0888  2.6873 -0.6496
 9885SOL     OW30049   5.457   6.195   0.786 -0.3895  0.3815 -0.0166
 9885SOL    HW130050   5.468   6.246   0.866 -1.1690  0.2916  0.1627
 9885SOL    HW230051   5.398   6.124   0.811 -1.3464  0.8442 -0.8761
 9886SOL     OW30052   6.087   4.641   1.736 -0.3900  0.2665 -0.4345
 9886SOL    HW130053   6.069   4.561   1.687  0.0451  0.3657 -0.7538
 9886SOL    HW230054   6.002   4.665   1.774 -0.2129 -1.2729  1.0597
 9887SOL     OW30055   5.619   5.554   4.588 -0.0946  0.2492  0.3206
 9887SOL    HW130056   5.637   5.505   4.668 -1.1044 -0.4381  0.1430
 9887SOL    HW230057   5.656   5.500   4.518  1.1849  1.0624  0.3341
 9888SOL     OW30058   5.847   0.357   5.011  0.3553 -0.3922  0.1797
 9888SOL    HW130059   5.773   0.308   4.974  0.9371 -0.9713 -0.2274
 9888SOL    HW230060   5.816   0.447   5.015 -0.5418 -0.6993  0.4411
 9889SOL     OW30061   2.026   0.536   2.269 -0.3878  0.5732  0.8240
 9889SOL    HW130062   2.006   0.533   2.363  1.0885 -1.5525  1.1545
 9889SOL    HW230063   2.121   0.527   2.265 -0.6405 -3.4861 -0.8592
 9890SOL     OW30064   6.259   2.953   6.703 -0.1651  0.5474  0.5697
 9890SOL    HW130065   6.213   2.877   6.740 -0.8303  1.1855  1.0685
 9890SOL    HW230066   6.235   3.026   6.760  1.9920  0.8013  1.2324
 9891SOL     OW30067   5.761   2.540   1.867 -0.0632  0.2377  0.1835
 9891SOL    HW130068   5.683   2.561   1.815  0.9171  2.2618 -0.5566
 9891SOL    HW230069   5.747   2.586   1.950 -0.3084 -0.6485  0.6540
 9892SOL     OW30070   6.858   5.493   0.086 -0.0298 -0.1569 -0.5296
 9892SOL    HW130071   6.790   5.509   0.021 -1.6283  0.4700  1.1857
 9892SOL    HW230072   6.810   5.481   0.168  1.9576  0.7119  0.8427
 9893SOL     OW30073   1.957   1.670   3.586 -0.6356  0.1300 -0.0632
 9893SOL    HW130074   2.041   1.629   3.606 -1.3037 -1.5719 -0.5695
 9893SOL    HW230075   1.979   1.759   3.558  0.9484 -0.1488  0.2415
 9894SOL     OW30076   0.425   3.202   1.624  0.0315  0.0802 -0.2140
 9894SOL    HW130077   0.491   3.271   1.622 -0.9006  0.9857  0.0260
 9894SOL    HW230078   0.476   3.121   1.631  1.2578  0.5127 -2.8383
 9895SOL     OW30079   3.043   4.244   6.533  0.2387  0.0909  0.1571
 9895SOL    HW130080   3.088   4.165   6.501  1.5969  0.6274  0.6406
 9895SOL    HW230081   3.057   4.242   6.628 -0.4075  0.5119  0.2645
 9896SOL     OW30082   1.902   3.899   1.708 -0.1869  0.1509  0.6365
 9896SOL    HW130083   1.892   3.970   1.771  1.7195 -0.1435  1.3463
 9896SOL    HW230084   1.925   3.823   1.762 -0.9665 -0.7105 -0.2181
 9897SOL     OW30085   1.815   0.915   2.794  0.6130  0.4038 -0.1847
 9897SOL    HW130086   1.848   0.945   2.709  1.3965  0.2280  0.0477
 9897SOL    HW230087   1.875   0.845   2.820  0.3880  0.4572  0.5130
 9898SOL     OW30088   0.994   6.922   1.037 -0.4151 -0.0355 -0.5990
 9898SOL    HW130089   0.935   6.977   1.088 -1.5371  0.4995 -2.3968
 9898SOL    HW230090   0.989   6.836   1.080  2.1141  1.3236  2.8566
 9899SOL     OW30091   5.207   6.817   2.284 -0.2731 -0.1918 -0.0537
 9899SOL    HW130092   5.181   6.730   2.313 -1.3367 -0.0740 -0.6100
 9899SOL    HW230093   5.279   6.841   2.342  1.1322 -2.0965 -0.9100
 9900SOL     OW30094   0.123   2.833   1.913  0.0024  0.0186  0.2244
 9900SOL    HW130095   0.168   2.907   1.954  2.1619  0.0022 -1.9304
 9900SOL    HW230096   0.122   2.765   1.980  1.6782  0.6261  0.9050
 9901SOL     OW30097   4.229   2.633   3.261  0.7448  0.6095  0.3928
 9901SOL    HW130098   4.160   2.700   3.256  2.0551  1.9742  0.0472
 9901SOL    HW230099   4.311   2.682   3.256  1.7588 -1.0846 -0.7629
 9902SOL     OW30100   2.788   4.155   4.248 -0.3003 -0.0307  0.2896
 9902SOL    HW130101   2.721   4.097   4.285 -0.2880  0.7632  1.6473
 9902SOL    HW230102   2.786   4.137   4.155 -1.7887 -0.6843  0.4084
 9903SOL     OW30103   5.900   6.537   6.280 -0.4511 -0.6137  0.1181
 9903SOL    HW130104   5.824   6.551   6.223  0.0230 -1.7393 -0.8499
 9903SOL    HW230105   5.866   6.548   6.368 -0.9107  2.6084 -0.3484
 9904SOL     OW30106   2.692   4.550   4.836  0.5752 -0.0108  0.0964
 9904SOL    HW130107   2.657   4.471   4.878  1.2818  0.4348  1.6001
 9904SOL    HW230108   2.755   4.517   4.772  0.1969 -0.6965  0.0665
 9905SOL     OW30109   3.342   4.379   2.182 -0.5363  0.0015  0.5416
 9905SOL    HW130110   3.417   4.411   2.131 -0.7949  0.8370  0.6788
 9905SOL    HW230111   3.358   4.285   2.191  0.2445  0.0882  0.1440
 9906SOL     OW30112   3.576   1.104   2.529  0.2730 -0.5051 -0.6248
 9906SOL    HW130113   3.487   1.136   2.539 -0.1740 -1.8705 -0.0275
 9906SOL    HW230114   3.627   1.154   2.593 -0.4221 -0.9829  0.3317
 9907SOL     OW30115   6.297   3.089   2.792 -0.1255 -0.4670  0.1150
 9907SOL    HW130116   6.316   3.144   2.869 -0.0841 -0.5652  0.1759
 9907SOL    HW230117   6.321   3.000   2.820 -0.1151 -0.5037 -0.0099
 9908SOL     OW30118   1.561   4.496   1.820  0.0317 -0.4303 -0.0050
 9908SOL    HW130119   1.539   4.492   1.727 -1.4567  0.7959  0.2509
 9908SOL    HW230120   1.564   4.589   1.840 -2.1742 -0.6502  1.6976
 9909SOL     OW30121   5.085   1.868   0.631  0.5728  0.0157 -0.2519
 9909SOL    HW130122   5.143   1.880   0.706 -1.1907  0.8158  1.0608
 9909SOL    HW230123   5.103   1.778   0.601  1.3357 -0.3154  1.0984
 9910SOL     OW30124   0.257   4.552   1.318  0.1616  0.0811  0.6940
 9910SOL    HW130125   0.332   4.597   1.278  0.5624 -1.0927  0.0377
 9910SOL    HW230126   0.250   4.589   1.406  1.3604  0.4079  0.6703
 9911SOL     OW30127   1.372   4.193   6.669 -0.2462  0.0680  0.3854
 9911SOL    HW130128   1.310   4.232   6.607 -0.4502  0.2126  0.6825
 9911SOL    HW230129   1.365   4.245   6.748 -0.4211 -0.4828  0.7410
 9912SOL     OW30130   4.200   4.509   0.032 -0.0384 -0.0176 -0.9569
 9912SOL    HW130131   4.262   4.446  -0.005 -0.1344 -1.0278  0.4906
 9912SOL    HW230132   4.184   4.477   0.121 -1.9849  0.6894 -0.9985
 9913SOL     OW30133   0.568   6.582   2.358  0.4968  0.2069 -0.2805
 9913SOL    HW130134   0.605   6.564   2.271 -2.5356 -1.0419 -1.4463
 9913SOL    HW230135   0.544   6.496   2.393  2.0065  0.6498  2.0464
 9914SOL     OW30136   3.188   4.719   5.723  0.7016 -0.5583 -0.4880
 9914SOL    HW130137   3.196   4.677   5.637  0.9755 -1.1778 -0.1707
 9914SOL    HW230138   3.220   4.808   5.710  0.9674 -0.7228 -0.9714
 9915SOL     OW30139   2.172   4.570   0.837 -0.0149 -0.1745 -0.2854
 9915SOL    HW130140   2.151   4.663   0.841  0.7173 -0.0245  0.4235
 9915SOL    HW230141   2.263   4.566   0.808  0.6708 -0.5384  1.7341
 9916SOL     OW30142   2.207   5.185   4.702 -0.3537 -0.3073  0.1428
 9916SOL    HW130143   2.116   5.212   4.691 -0.7446 -0.8963  1.6780
 9916SOL    HW230144   2.248   5.256   4.750 -0.4828 -0.8325  1.0530
 9917SOL     OW30145   1.538   1.725   1.695  0.1690 -0.2929  0.3155
 9917SOL    HW130146   1.526   1.817   1.674 -0.7898 -0.0283  1.8684
 9917SOL    HW230147   1.629   1.706   1.670  0.2110  0.9122 -0.5152
 9918SOL     OW30148   4.426   4.977   0.641 -0.3839 -0.3973  0.1400
 9918SOL    HW130149   4.379   5.056   0.616 -0.1298 -0.2221  0.2128
 9918SOL    HW230150   4.411   4.916   0.568  1.6318  0.6362 -1.2315
 9919SOL     OW30151   5.606   3.597   1.182  0.5371 -0.6109  0.0308
 9919SOL    HW130152   5.515   3.613   1.208 -0.0376  0.2851 -2.2653
 9919SOL    HW230153   5.608   3.505   1.156 -0.2774 -0.2005 -1.6890
 9920SOL     OW30154   2.104   0.033   5.300 -0.2006 -0.5567  0.2429
 9920SOL    HW130155   2.043   0.041   5.373 -1.0322  3.0400 -0.6755
 9920SOL    HW230156   2.072  -0.042   5.250 -3.8221  0.9332 -0.0069
 9921SOL     OW30157   1.916   1.176   1.316 -0.0278 -0.8911 -0.0253
 9921SOL    HW130158   1.922   1.106   1.381 -0.1758  0.7557  1.8294
 9921SOL    HW230159   1.990   1.233   1.335 -0.7414  0.2480 -0.5571
 9922SOL     OW30160   3.015   3.201   3.627  0.5281  0.6826 -0.8061
 9922SOL    HW130161   2.982   3.181   3.714 -1.4995  1.0164 -1.4306
 9922SOL    HW230162   3.070   3.127   3.604 -0.0377 -0.0829  0.2177
 9923SOL     OW30163   3.759   3.589   5.131 -0.1957 -0.3860 -0.6281
 9923SOL    HW130164   3.670   3.613   5.105 -0.4560 -1.2109 -0.4962
 9923SOL    HW230165   3.765   3.495   5.113  0.9582 -0.1647 -1.5527
 9924SOL     OW30166   3.415   5.874   1.073 -0.3249  0.0014 -0.0836
 9924SOL    HW130167   3.408   5.953   1.126 -1.7301 -1.6585  2.4719
 9924SOL    HW230168   3.505   5.845   1.084  0.1025  1.0261 -0.7612
 9925SOL     OW30169   3.547   2.723   3.669  0.0171 -0.1984  0.3590
 9925SOL    HW130170   3.567   2.656   3.605  0.8687  2.4261 -2.3803
 9925SOL    HW230171   3.632   2.751   3.702 -0.1971  0.5512  0.3005
 9926SOL     OW30172   6.220   2.807   5.108  0.1581  0.3060 -0.6866
 9926SOL    HW130173   6.179   2.750   5.042 -1.9667  0.4726  0.4174
 9926SOL    HW230174   6.314   2.791   5.098 -0.0417  0.4624 -3.8756
 9927SOL     OW30175   4.799   3.704   2.526  0.0123  0.3187 -0.5800
 9927SOL    HW130176   4.742   3.633   2.555 -0.4472 -0.0314 -2.2448
 9927SOL    HW230177   4.744   3.782   2.530  0.0756  0.3453 -0.1565
 9928SOL     OW30178   6.271   6.892   3.788  0.4613 -0.2028  0.1473
 9928SOL    HW130179   6.182   6.900   3.754  0.3473  0.5879  0.6165
 9928SOL    HW230180   6.285   6.797   3.795  0.4070 -0.3969 -1.8291
 9929SOL     OW30181   2.738   6.094   0.531  0.2544  0.1766 -0.0457
 9929SOL    HW130182   2.727   6.151   0.607  1.8288 -1.2703  1.3220
 9929SOL    HW230183   2.683   6.018   0.550  0.3718 -0.0327 -0.5434
 9930SOL     OW30184   6.078   5.979   3.839  0.2356 -0.7886  0.3064
 9930SOL    HW130185   6.120   5.926   3.907  1.4399 -1.4694 -0.9222
 9930SOL    HW230186   6.014   5.920   3.799  0.9266 -1.0572 -0.4428
 9931SOL     OW30187   4.459   5.239   0.010  0.3771  0.2540 -0.3917
 9931SOL    HW130188   4.553   5.251   0.001  0.2750  1.2059 -0.2335
 9931SOL    HW230189   4.442   5.248   0.104  0.4262 -2.2733 -0.0636
 9932SOL     OW30190   2.710   0.486   1.033 -0.2451 -0.3302 -0.2561
 9932SOL    HW130191   2.712   0.496   0.938  0.2487 -0.2639 -0.2436
 9932SOL    HW230192   2.725   0.393   1.048  2.4576  0.0332 -0.1880
 9933SOL     OW30193   6.276   3.190   0.493 -0.1638  0.5171 -0.2352
 9933SOL    HW130194   6.324   3.109   0.478 -0.7669  0.4378 -1.9673
 9933SOL    HW230195   6.244   3.184   0.583  0.8512 -0.5850  0.0660
 9934SOL     OW30196   3.342   3.203   2.950 -0.0577  0.1566  0.1114
 9934SOL    HW130197   3.428   3.236   2.972  0.5200 -0.7325 -0.7015
 9934SOL    HW230198   3.290   3.214   3.030  1.2963 -0.8667  1.1793
 9935SOL     OW30199   5.573   1.488   4.558  0.2712 -0.2757  0.0380
 9935SOL    HW130200   5.494   1.462   4.510  0.5882 -0.3077 -0.4804
 9935SOL    HW230201   5.638   1.422   4.534  0.6397  0.1189 -0.0590
 9936SOL     OW30202   6.764   0.651   4.944  0.5099 -0.2531  0.8908
 9936SOL    HW130203   6.748   0.708   5.020  1.4335  1.0897  0.1194
 9936SOL    HW230204   6.676   0.634   4.909  0.2096  0.6580  1.1697
 9937SOL     OW30205   6.709   0.609   1.857  0.1353  0.3568  0.0113
 9937SOL    HW130206   6.615   0.596   1.840 -0.1385 -0.1145  1.7251
 9937SOL    HW230207   6.747   0.617   1.770 -1.5448  0.9740 -0.7227
 9938SOL     OW30208   5.024   0.532   2.927  0.2941 -0.4580 -0.8557
 9938SOL    HW130209   4.973   0.611   2.942  1.9984  0.4461  0.4867
 9938SOL    HW230210   5.000   0.505   2.838 -1.1149  0.9422 -0.9425
 9939SOL     OW30211   1.893   3.858   0.766 -0.3788  0.8181 -0.0386
 9939SOL    HW130212   1.958   3.819   0.825 -0.8665  0.1425  0.0617
 9939SOL    HW230213   1.832   3.904   0.824  0.2588  1.8531 -0.1639
 9940SOL     OW30214   5.794   3.471   2.791  0.1549 -0.0945  0.0076
 9940SOL    HW130215   5.766   3.563   2.793  1.5383  0.3384  0.7297
 9940SOL    HW230216   5.872   3.471   2.735  0.4313 -0.7520  0.3893
 9941SOL     OW30217   3.233   0.410   5.843 -0.1797  0.1324 -0.5655
 9941SOL    HW130218   3.229   0.369   5.929 -1.6574  0.0770 -0.6325
 9941SOL    HW230219   3.320   0.388   5.810  0.1956 -0.3202  0.6765
 9942SOL     OW30220   2.147   1.947   0.487  0.8773 -0.3307 -0.0866
 9942SOL    HW130221   2.181   1.877   0.431  2.2090 -0.6820  1.1055
 9942SOL    HW230222   2.107   1.901   0.561  0.6610  0.1551  0.1066
 9943SOL     OW30223   3.271   2.204   3.321  0.3734  0.3714  0.2492
 9943SOL    HW130224   3.326   2.255   3.263  0.1624  1.4631  0.9859
 9943SOL    HW230225   3.279   2.114   3.288 -0.0971  0.9997 -1.7337
 9944SOL     OW30226   4.451   4.036   4.653  0.7244  0.1392  0.3295
 9944SOL    HW130227   4.377   3.986   4.618  0.6578  1.3560 -1.4109
 9944SOL    HW230228   4.460   4.006   4.743 -0.6202 -1.4707 -0.0165
 9945SOL     OW30229   5.817   4.587   5.047  0.1966 -0.4825 -0.0973
 9945SOL    HW130230   5.858   4.508   5.081  0.3073 -1.8874 -3.1762
 9945SOL    HW230231   5.886   4.653   5.052  1.0698 -1.3676 -0.1767
 9946SOL     OW30232   1.806   5.617   4.142  0.6792  0.9061 -0.2400
 9946SOL    HW130233   1.833   5.568   4.218 -0.0209 -0.1027 -0.6161
 9946SOL    HW230234   1.728   5.571   4.110  0.2491  2.0100 -0.8519
 9947SOL     OW30235   3.643   3.882   4.866  0.2064  0.3875 -0.1990
 9947SOL    HW130236   3.719   3.845   4.911  0.4027  1.8706  0.7627
 9947SOL    HW230237   3.635   3.830   4.786  1.1278 -0.9555  0.5402
 9948SOL     OW30238   4.604   6.860   1.477  0.0765  0.1235 -0.3577
 9948SOL    HW130239   4.578   6.813   1.556  2.3953 -3.3620 -1.4612
 9948SOL    HW230240   4.623   6.949   1.507 -1.4971 -0.3931  2.4785
 9949SOL     OW30241   2.123   5.139   5.498 -0.4184 -0.2789 -0.4836
 9949SOL    HW130242   2.158   5.207   5.555  0.2021  0.1432 -1.3488
 9949SOL    HW230243   2.051   5.180   5.452 -1.3719 -0.8212  0.4701
 9950SOL     OW30244   1.909   1.935   6.137 -0.2746 -0.0937 -0.0106
 9950SOL    HW130245   1.976   1.974   6.193 -0.7372 -0.6476  0.9620
 9950SOL    HW230246   1.908   1.989   6.058  0.1298  0.9367  0.6798
 9951SOL     OW30247   1.551   3.595   1.278  0.3608 -0.5385  0.1200
 9951SOL    HW130248   1.584   3.547   1.354  0.1116 -1.2928 -0.2409
 9951SOL    HW230249   1.537   3.528   1.211  1.2674  0.1988 -0.8468
 9952SOL     OW30250   2.570   4.900   1.623 -0.0837 -0.5214  0.1821
 9952SOL    HW130251   2.635   4.947   1.675 -1.8962  1.7470  0.5776
 9952SOL    HW230252   2.516   4.969   1.584 -1.6005 -2.2672 -0.9978
 9953SOL     OW30253   5.729   1.621   1.787 -0.6285  0.0851  0.1252
 9953SOL    HW130254   5.737   1.583   1.700 -0.3790  0.7807 -0.1571
 9953SOL    HW230255   5.819   1.622   1.821 -0.4199  1.7179 -0.4240
 9954SOL     OW30256   1.561   2.849   4.606 -0.1399 -0.0222  0.2653
 9954SOL    HW130257   1.488   2.910   4.619  0.1292  0.8094 -1.8288
 9954SOL    HW230258   1.639   2.904   4.608  0.1463 -0.3476 -1.0740
 9955SOL     OW30259   3.672   2.235   5.446  0.4759  0.5102  0.8281
 9955SOL    HW130260   3.691   2.328   5.459  0.3819  0.7964 -0.8295
 9955SOL    HW230261   3.632   2.231   5.359 -0.7603 -0.9300  1.4362
 9956SOL     OW30262   3.637   6.350   2.618  0.6134  0.0783  0.2630
 9956SOL    HW130263   3.687   6.348   2.537 -0.3725 -0.1934 -0.3589
 9956SOL    HW230264   3.566   6.411   2.601  1.2384  1.1873  1.4567
 9957SOL     OW30265   5.724   5.852   3.005 -0.4452  0.1406  0.8486
 9957SOL    HW130266   5.702   5.929   2.953 -0.7609 -1.3970 -1.4586
 9957SOL    HW230267   5.814   5.867   3.033  0.1413  0.5958 -1.1063
 9958SOL     OW30268   3.309   1.098   1.288 -0.1650 -0.1555 -0.1281
 9958SOL    HW130269   3.281   1.109   1.379  0.3986  0.2209  0.0053
 9958SOL    HW230270   3.234   1.126   1.236 -0.9118 -1.4574  0.2053
 9959SOL     OW30271   3.392   4.536   0.532  0.0015 -0.7336  0.3432
 9959SOL    HW130272   3.400   4.589   0.611 -0.2689  0.6737 -0.5425
 9959SOL    HW230273   3.480   4.501   0.517  1.1492  2.3843 -0.9876
 9960SOL     OW30274   0.779   0.345   6.830  0.0462 -0.1095 -0.6151
 9960SOL    HW130275   0.868   0.327   6.799 -0.0312 -1.0966 -0.3174
 9960SOL    HW230276   0.785   0.337   6.926  0.0557  1.8224 -0.4163
 9961SOL     OW30277   2.949   0.797   6.326  0.0842 -0.0874 -0.2176
 9961SOL    HW130278   2.919   0.888   6.319  1.1563  0.2056 -1.4780
 9961SOL    HW230279   3.043   0.802   6.307  0.0928 -1.5090 -0.6366
 9962SOL     OW30280   0.504   0.046   6.444  0.2687 -0.7839 -0.4076
 9962SOL    HW130281   0.522   0.139   6.454 -1.6034 -0.3967 -0.3265
 9962SOL    HW230282   0.540   0.023   6.358 -0.1288  0.2490 -0.8626
 9963SOL     OW30283   1.640   5.938   3.713 -0.4950 -0.0664  0.2051
 9963SOL    HW130284   1.624   5.964   3.622 -1.5371 -0.4659  0.2605
 9963SOL    HW230285   1.721   5.983   3.737 -0.5097  0.4899 -0.7400
 9964SOL     OW30286   3.813   1.850   2.420 -0.6315  0.5704  0.7692
 9964SOL    HW130287   3.887   1.906   2.395 -0.2435 -0.5356 -0.6716
 9964SOL    HW230288   3.736   1.898   2.389 -0.2529  0.0002 -1.2245
 9965SOL     OW30289   0.352   2.966   4.808 -0.0803 -0.5143 -0.0551
 9965SOL    HW130290   0.319   3.018   4.882 -0.4587  0.4325 -0.8673
 9965SOL    HW230291   0.447   2.966   4.820 -0.0654  0.4743 -0.1018
 9966SOL     OW30292   4.688   5.636   5.104  0.1521  0.2668  1.0230
 9966SOL    HW130293   4.670   5.727   5.127  0.6855  0.9117 -0.8764
 9966SOL    HW230294   4.607   5.604   5.065 -0.3167 -0.3777  2.4821
 9967SOL     OW30295   5.636   0.343   5.359 -0.0353  0.6340  0.4655
 9967SOL    HW130296   5.641   0.433   5.327 -0.4389  0.8475  1.0020
 9967SOL    HW230297   5.544   0.318   5.348  0.3877 -0.3648 -1.4142
 9968SOL     OW30298   1.194   1.576   5.880  0.4423 -0.3857  0.3463
 9968SOL    HW130299   1.120   1.560   5.938  0.4934 -2.0507 -0.0019
 9968SOL    HW230300   1.244   1.645   5.923 -2.0844  1.9145 -0.1380
 9969SOL     OW30301   3.303   6.662   0.863 -0.0503 -0.0677  0.6141
 9969SOL    HW130302   3.308   6.688   0.955  2.2627 -0.7741  0.7526
 9969SOL    HW230303   3.375   6.710   0.821  1.4649 -2.6769  0.0133
 9970SOL     OW30304   6.379   1.236   1.350  0.6632  0.6990 -0.1560
 9970SOL    HW130305   6.294   1.277   1.334  0.0399 -0.5618 -0.2534
 9970SOL    HW230306   6.358   1.144   1.368  1.9697  0.4698  0.3501
 9971SOL     OW30307   2.378   1.294   0.401 -0.4027 -0.3027  0.0531
 9971SOL    HW130308   2.417   1.253   0.323  0.1116  0.3547 -0.0401
 9971SOL    HW230309   2.396   1.232   0.472 -0.3869 -0.6448 -0.2486
 9972SOL     OW30310   5.147   2.431   0.852  0.2588  0.0973  0.6261
 9972SOL    HW130311   5.201   2.415   0.775  0.2692  1.2280  0.3867
 9972SOL    HW230312   5.059   2.441   0.818  0.5159  2.4858  0.4922
 9973SOL     OW30313   0.072   1.619   4.093 -0.3874 -0.0041 -0.4402
 9973SOL    HW130314   0.097   1.691   4.151 -0.6326 -0.4600  0.2410
 9973SOL    HW230315   0.009   1.658   4.033  0.2725  0.6043 -0.7506
 9974SOL     OW30316   5.247   3.874   2.690 -0.1557 -0.1340 -0.0131
 9974SOL    HW130317   5.191   3.812   2.644  1.1290 -1.2917 -0.0890
 9974SOL    HW230318   5.289   3.925   2.620  2.2841 -2.3180 -0.2994
 9975SOL     OW30319   2.259   1.571   2.747  0.0356  0.0312 -0.4238
 9975SOL    HW130320   2.336   1.546   2.798  0.6447 -0.0578 -1.3544
 9975SOL    HW230321   2.195   1.502   2.764  0.3819 -0.2176 -0.1122
 9976SOL     OW30322   3.742   3.323   5.082 -0.6162 -0.1180  0.5309
 9976SOL    HW130323   3.774   3.332   4.993 -1.7865 -0.5609  0.0462
 9976SOL    HW230324   3.811   3.276   5.128  0.6884  1.4574  0.2828
 9977SOL     OW30325   5.498   1.768   0.177 -0.1009 -0.4404 -0.0901
 9977SOL    HW130326   5.544   1.848   0.150  0.0387 -0.6453 -0.4690
 9977SOL    HW230327   5.567   1.711   0.211 -0.2655 -0.2137  0.6327
 9978SOL     OW30328   2.935   4.745   5.834 -0.2183  0.2395 -0.7623
 9978SOL    HW130329   2.925   4.657   5.869 -0.2664  0.2584 -0.7287
 9978SOL    HW230330   3.011   4.740   5.776 -0.0786  0.2295 -0.5789
 9979SOL     OW30331   5.386   2.150   3.841  0.8541  0.2996 -0.1207
 9979SOL    HW130332   5.331   2.135   3.918  0.3525  2.1220 -0.0824
 9979SOL    HW230333   5.370   2.074   3.785 -0.2799 -0.0960  0.7103
 9980SOL     OW30334   6.716   2.605   1.144 -0.3440 -0.5465 -0.9822
 9980SOL    HW130335   6.751   2.516   1.152  3.1171  0.6060 -1.5368
 9980SOL    HW230336   6.622   2.593   1.134 -0.2111 -4.0297  0.5476
 9981SOL     OW30337   6.373   1.076   5.523  0.3029 -0.0212  0.0930
 9981SOL    HW130338   6.385   1.012   5.453 -1.2791  0.0043 -0.2422
 9981SOL    HW230339   6.355   1.158   5.478  1.8119  0.5702  0.5276
 9982SOL     OW30340   6.473   1.418   0.058  0.8032  0.0464  0.3858
 9982SOL    HW130341   6.514   1.493   0.014  1.3269 -0.4356  0.0363
 9982SOL    HW230342   6.392   1.403   0.009  0.9166  0.1082  0.1759
 9983SOL     OW30343   5.413   3.140   2.713 -0.3996 -0.6545 -0.1738
 9983SOL    HW130344   5.344   3.173   2.655 -2.0696 -0.6624  1.6964
 9983SOL    HW230345   5.433   3.214   2.771  0.1550 -1.1020  0.2182
 9984SOL     OW30346   4.898   5.031   0.482 -0.2562 -0.8648  0.4659
 9984SOL    HW130347   4.981   5.037   0.435 -2.2991  0.1597 -3.4406
 9984SOL    HW230348   4.871   4.940   0.471  0.1476 -1.1394  1.5419
 9985SOL     OW30349   1.054   4.349   4.156 -0.2957 -0.2581  0.4122
 9985SOL    HW130350   1.083   4.345   4.247  0.2380 -0.1198  0.2521
 9985SOL    HW230351   0.980   4.410   4.157  0.0127  0.1169  0.6769
 9986SOL     OW30352   0.709   5.445   0.649  0.5657  0.4116 -0.2577
 9986SOL    HW130353   0.624   5.484   0.629  0.5904  0.8413  0.4594
 9986SOL    HW230354   0.690   5.379   0.716  0.2605 -2.0421 -2.6076
 9987SOL     OW30355   5.955   0.411   4.731  0.2924  0.1330 -0.6813
 9987SOL    HW130356   5.876   0.399   4.784  0.4290  1.1030 -0.2296
 9987SOL    HW230357   5.997   0.325   4.731  0.4785  0.1732  1.1401
 9988SOL     OW30358   0.726   4.485   2.304  0.0355 -1.0568  0.4148
 9988SOL    HW130359   0.745   4.561   2.360 -0.1411 -0.3570 -0.4601
 9988SOL    HW230360   0.631   4.475   2.308  0.0738 -1.3519  0.6689
 9989SOL     OW30361   3.450   6.330   5.743  0.2739  0.4687 -0.0333
 9989SOL    HW130362   3.379   6.266   5.747  0.8295 -0.1169  0.7453
 9989SOL    HW230363   3.408   6.414   5.761 -1.0493  0.8732 -4.0895
 9990SOL     OW30364   1.687   2.559   4.967  0.6727  0.1587  0.3334
 9990SOL    HW130365   1.702   2.570   4.873  0.4797  0.2417  0.3130
 9990SOL    HW230366   1.775   2.542   5.003  1.1223  2.5545  0.4990
 9991SOL     OW30367   2.612   6.419   5.046 -0.0715  0.3398 -0.8327
 9991SOL    HW130368   2.650   6.467   4.973  1.4051  1.0731  0.3639
 9991SOL    HW230369   2.549   6.480   5.085  0.0155  0.3960 -0.7796
 9992SOL     OW30370   4.632   6.611   6.272 -0.2530 -0.0688 -0.3532
 9992SOL    HW130371   4.566   6.542   6.263  0.4850 -0.8639  0.1471
 9992SOL    HW230372   4.713   6.571   6.241  0.0984  0.7261 -0.4820
 9993SOL     OW30373   2.462   3.735   1.632  0.7061 -0.0190 -0.2978
 9993SOL    HW130374   2.454   3.830   1.633 -0.2486 -0.0529 -1.9585
 9993SOL    HW230375   2.447   3.709   1.723 -0.3237  1.3278 -0.0549
 9994SOL     OW30376   5.164   4.601   2.330 -0.6661 -0.1900 -0.2796
 9994SOL    HW130377   5.117   4.521   2.309 -2.2275  0.1739  1.4781
 9994SOL    HW230378   5.215   4.621   2.252 -2.5161 -1.2900 -1.8457
 9995SOL     OW30379   3.605   0.171   2.743  0.1866 -0.1030  0.6404
 9995SOL    HW130380   3.619   0.228   2.818  0.2144  0.1289  0.4584
 9995SOL    HW230381   3.570   0.090   2.781  0.8502 -0.2411  0.9751
 9996SOL     OW30382   0.351   6.342   3.894  0.3746  0.3692 -0.2763
 9996SOL    HW130383   0.349   6.293   3.812 -1.7073 -2.5657  1.3237
 9996SOL    HW230384   0.296   6.419   3.877  1.8918  1.0957 -2.2418
 9997SOL     OW30385   1.733   6.502   1.465  0.0943 -0.6155  0.2072
 9997SOL    HW130386   1.719   6.489   1.559 -1.2526  1.9570  0.4501
 9997SOL    HW230387   1.810   6.559   1.460  1.9289 -3.0097 -0.4673
 9998SOL     OW30388   3.492   2.416   2.582  0.0130  0.3689  0.4586
 9998SOL    HW130389   3.529   2.408   2.670 -1.4524 -0.4042  1.0506
 9998SOL    HW230390   3.426   2.484   2.590  0.3112  0.7481 -0.2219
 9999SOL     OW30391   4.876   1.690   5.660 -0.4479  0.1010 -0.1353
 9999SOL    HW130392   4.876   1.754   5.731  1.4228 -0.2699  0.2621
 9999SOL    HW230393   4.935   1.727   5.594 -1.4318  0.0029 -1.1032
10000SOL     OW30394   1.250   1.964   6.674  0.0254  0.3461 -0.1056
10000SOL    HW130395   1.206   1.895   6.625  1.1117 -0.7256  0.3727
10000SOL    HW230396   1.291   2.019   6.607  0.0565 -0.1067 -0.4580
10001SOL     OW30397   3.842   6.089   1.050  0.3478  0.3572  0.7153
10001SOL    HW130398   3.754   6.108   1.083  0.5036  1.4515  0.5224
10001SOL    HW230399   3.874   6.172   1.016  1.4589 -0.0297  0.7678
10002SOL     OW30400   5.263   1.916   6.174  0.0004  0.3178  0.2423
10002SOL    HW130401   5.187   1.870   6.139 -0.2594  0.0442  1.1345
10002SOL    HW230402   5.273   1.992   6.117 -0.3818 -0.1300 -0.4391
10003SOL     OW30403   5.595   1.064   1.689 -0.0174  0.0381 -0.1033
10003SOL    HW130404   5.671   1.025   1.732 -0.8565 -2.9102 -1.0232
10003SOL    HW230405   5.625   1.080   1.599 -0.0830  0.1772 -0.1000
10004SOL     OW30406   5.911   3.002   3.124  0.2624 -0.1903  0.5897
10004SOL    HW130407   5.819   2.989   3.098  1.0797 -2.1966 -1.6385
10004SOL    HW230408   5.943   3.071   3.066  0.2436  0.3553  1.2185
10005SOL     OW30409   6.072   0.599   6.142  0.4490  0.5248 -0.5660
10005SOL    HW130410   6.160   0.632   6.124  0.5388  0.5069 -0.1624
10005SOL    HW230411   6.071   0.584   6.237  0.1636  0.0831 -0.6386
10006SOL     OW30412   1.693   6.208   3.974 -0.4312  0.7181  0.4631
10006SOL    HW130413   1.640   6.268   4.027 -3.5887 -1.7394  0.3687
10006SOL    HW230414   1.729   6.146   4.038 -0.5050  0.3853  0.1836
10007SOL     OW30415   2.803   1.650   4.613 -0.5555 -0.2335  0.4431
10007SOL    HW130416   2.766   1.701   4.541 -1.7906 -1.1729  0.3792
10007SOL    HW230417   2.803   1.559   4.580 -0.6915 -0.6032  1.4368
10008SOL     OW30418   5.262   5.856   0.006  0.6313  0.5889 -0.2124
10008SOL    HW130419   5.239   5.884  -0.083 -0.8854 -1.3996 -0.5152
10008SOL    HW230420   5.220   5.921   0.062 -0.2210  0.7010 -0.9365
10009SOL     OW30421   2.564   5.466   1.828 -0.3063 -0.4641 -0.0726
10009SOL    HW130422   2.560   5.448   1.734 -1.2657 -2.3630  0.2633
10009SOL    HW230423   2.476   5.497   1.850 -0.5230 -1.3478  0.3887
10010SOL     OW30424   2.416   6.115   2.043 -0.7077  0.3737  0.2477
10010SOL    HW130425   2.389   6.075   1.960 -2.8132  2.7443 -0.3098
10010SOL    HW230426   2.502   6.154   2.024 -1.7476  2.0503 -1.3132
10011SOL     OW30427   0.609   5.556   3.362 -0.2493  0.1484  0.4129
10011SOL    HW130428   0.555   5.563   3.441  1.8428  2.9301  1.8002
10011SOL    HW230429   0.596   5.639   3.317  0.0038 -0.6694 -1.2206
10012SOL     OW30430   4.806   1.314   4.487  0.1042  0.4357  0.0373
10012SOL    HW130431   4.722   1.310   4.441 -0.8990 -1.5477  1.8830
10012SOL    HW230432   4.791   1.268   4.569  2.5442  1.5663  1.2216
10013SOL     OW30433   3.402   5.395   4.070  0.0034  0.4524 -0.6145
10013SOL    HW130434   3.405   5.464   4.136 -0.4230  0.5987 -0.7412
10013SOL    HW230435   3.404   5.313   4.119 -1.0197  0.5598 -0.3774
10014SOL     OW30436   4.634   5.341   0.550  0.8181 -0.1344 -0.0327
10014SOL    HW130437   4.686   5.287   0.609  0.2982 -1.6091 -0.8896
10014SOL    HW230438   4.648   5.304   0.463 -3.9720 -2.6773 -0.0476
10015SOL     OW30439   1.403   4.231   4.348 -0.0158  0.4427  0.0961
10015SOL    HW130440   1.497   4.248   4.355  0.7716 -2.0306 -2.4946
10015SOL    HW230441   1.386   4.158   4.407 -0.1132  0.3617 -0.0293
10016SOL     OW30442   2.084   1.249   5.245 -0.6637 -0.5197  0.5294
10016SOL    HW130443   2.086   1.334   5.200 -3.2271 -1.0052 -0.6942
10016SOL    HW230444   2.172   1.214   5.234 -0.2081  0.9760 -0.9779
10017SOL     OW30445   3.143   6.792   2.778 -0.7339 -0.1067  0.6328
10017SOL    HW130446   3.137   6.714   2.724  0.0125  0.2662 -0.0109
10017SOL    HW230447   3.177   6.860   2.719 -0.7941  0.5467  1.3296
10018SOL     OW30448   0.098   4.418   2.629 -0.2301 -0.4174  0.1331
10018SOL    HW130449   0.167   4.351   2.630 -1.6436 -1.9228  0.9449
10018SOL    HW230450   0.109   4.466   2.711  1.5965  1.3034 -1.0184
10019SOL     OW30451   1.902   5.145   4.143  0.0990 -0.2596  0.1079
10019SOL    HW130452   1.984   5.123   4.099  0.7267 -1.5411  1.7892
10019SOL    HW230453   1.834   5.104   4.090  0.3214  1.8864 -2.0379
10020SOL     OW30454   4.793   1.195   3.316  0.1170  0.6744  0.1050
10020SOL    HW130455   4.830   1.155   3.238  1.8548 -0.7981  1.5799
10020SOL    HW230456   4.847   1.273   3.331 -0.1084  0.8653 -0.0844
10021SOL     OW30457   6.305   3.507   1.122 -0.0879 -0.3696 -0.0697
10021SOL    HW130458   6.229   3.463   1.083 -1.4410  1.7718 -0.0262
10021SOL    HW230459   6.334   3.568   1.054 -0.2231  0.8548  0.9417
10022SOL     OW30460   2.829   4.989   4.103  0.6017  0.5885 -0.2535
10022SOL    HW130461   2.881   4.984   4.023  0.0937  0.5127 -0.5848
10022SOL    HW230462   2.882   5.042   4.163  0.9999  0.6173 -0.6257
10023SOL     OW30463   1.288   0.605   1.189  0.4231 -0.3083  0.0984
10023SOL    HW130464   1.346   0.544   1.143 -0.4029 -0.5175 -0.6953
10023SOL    HW230465   1.276   0.565   1.275  1.5202 -0.2135  0.3126
10024SOL     OW30466   6.602   2.737   5.610  0.1332  0.5155 -0.2168
10024SOL    HW130467   6.639   2.793   5.679  0.6945  0.5183 -0.5187
10024SOL    HW230468   6.661   2.749   5.536  1.2890 -1.7912  0.2427
10025SOL     OW30469   1.118   4.282   2.273 -0.7351 -0.3751 -1.1633
10025SOL    HW130470   1.177   4.257   2.344 -2.2243 -2.9084 -0.6837
10025SOL    HW230471   1.114   4.378   2.278 -1.8880 -0.4480  3.1709
10026SOL     OW30472   0.464   2.858   1.684  0.1121  0.1058  0.3236
10026SOL    HW130473   0.428   2.900   1.762 -1.6267 -0.3352 -0.1724
10026SOL    HW230474   0.435   2.767   1.691 -0.6160  0.1966 -1.1032
10027SOL     OW30475   4.729   4.091   6.754  0.4068  0.2864 -0.3124
10027SOL    HW130476   4.735   4.100   6.849 -4.1262 -0.5212  0.2737
10027SOL    HW230477   4.753   3.999   6.737 -1.2192 -0.3065  0.4514
10028SOL     OW30478   6.620   6.905   4.299  0.0830 -0.0762  0.2613
10028SOL    HW130479   6.658   6.889   4.212  0.7904 -1.7292  0.8270
10028SOL    HW230480   6.694   6.932   4.353 -0.0572 -0.5283  0.6950
10029SOL     OW30481   6.174   4.548   4.977 -0.2622 -0.1862 -0.4879
10029SOL    HW130482   6.162   4.458   5.009  3.2367 -0.5579  0.1896
10029SOL    HW230483   6.224   4.538   4.896  1.2561  1.1561  0.2512
10030SOL     OW30484   3.201   6.933   0.700  0.1462  0.3501  0.2016
10030SOL    HW130485   3.252   6.962   0.775 -0.5112  0.4669  0.6165
10030SOL    HW230486   3.179   7.014   0.653 -0.3779  0.3930  0.5054
10031SOL     OW30487   6.002   4.633   3.354  0.8490  0.0612 -0.2004
10031SOL    HW130488   5.967   4.607   3.439  1.5914  0.3022  0.1905
10031SOL    HW230489   6.059   4.708   3.373 -2.3206  3.0421 -1.4421
10032SOL     OW30490   3.280   0.298   3.952 -0.3612  0.0603  0.9310
10032SOL    HW130491   3.358   0.328   3.999 -0.3505  0.2885  0.7733
10032SOL    HW230492   3.215   0.282   4.020  0.3823 -1.9053  1.2283
10033SOL     OW30493   5.784   4.362   6.208  0.6246 -0.1585 -0.1791
10033SOL    HW130494   5.695   4.329   6.224 -0.0723  1.4976 -0.4125
10033SOL    HW230495   5.834   4.335   6.284 -0.6437  0.7592  1.0281
10034SOL     OW30496   0.895   2.077   5.456 -0.0601 -0.1531  0.3893
10034SOL    HW130497   0.865   1.997   5.413 -0.0233 -0.9372  1.7564
10034SOL    HW230498   0.989   2.063   5.469  0.2517  0.7906 -0.7509
10035SOL     OW30499   0.321   1.785   0.236  0.7956  0.1701  0.4408
10035SOL    HW130500   0.337   1.726   0.310  1.8654  0.4504  0.4479
10035SOL    HW230501   0.277   1.860   0.275 -1.0174 -0.7994  0.3566
10036SOL     OW30502   4.582   4.994   4.597 -0.1803  0.3863 -0.2505
10036SOL    HW130503   4.493   4.969   4.621 -0.4574  1.4091 -0.1699
10036SOL    HW230504   4.607   4.930   4.529 -0.8166 -0.1508  0.0096
10037SOL     OW30505   1.274   4.354   6.857 -0.2451  0.4366 -0.1554
10037SOL    HW130506   1.200   4.292   6.851  0.1048 -0.0827  0.7519
10037SOL    HW230507   1.329   4.319   6.928  0.1446  1.5944  0.1296
10038SOL     OW30508   2.588   2.668   0.524  0.1304  0.3343 -0.0487
10038SOL    HW130509   2.588   2.682   0.619  0.8696  0.3959 -0.0523
10038SOL    HW230510   2.496   2.656   0.502 -0.0769  0.6009  0.6362
10039SOL     OW30511   2.296   4.977   1.343  0.0780  0.0688  0.0169
10039SOL    HW130512   2.285   4.885   1.368 -0.2731 -0.1600 -0.9019
10039SOL    HW230513   2.207   5.006   1.321 -0.1553  1.2744  2.2906
10040SOL     OW30514   3.997   3.585   3.007 -0.0658 -0.0655 -0.1218
10040SOL    HW130515   3.919   3.638   2.990 -0.5119 -1.2524 -2.1095
10040SOL    HW230516   4.036   3.571   2.920  2.0691  0.0025  0.7578
10041SOL     OW30517   1.593   0.580   2.875  0.0764  0.6825  0.1876
10041SOL    HW130518   1.533   0.599   2.948 -0.0084 -1.9839  0.9157
10041SOL    HW230519   1.677   0.617   2.903  0.1390 -0.5953  1.8754
10042SOL     OW30520   3.906   3.035   3.621  0.1203  0.4640 -0.2048
10042SOL    HW130521   3.958   2.964   3.583  0.0604 -0.5241  1.4593
10042SOL    HW230522   3.962   3.074   3.687  0.0120  1.7601 -0.8482
10043SOL     OW30523   3.958   3.343   2.296  0.3325  0.0200 -0.5547
10043SOL    HW130524   3.892   3.281   2.266  1.7990 -2.2596  0.6092
10043SOL    HW230525   3.922   3.380   2.376 -0.5026  0.5819 -1.1826
10044SOL     OW30526   2.226   2.068   3.152 -0.5669 -0.1021 -0.1184
10044SOL    HW130527   2.158   2.074   3.085 -1.4101  0.1066  0.7204
10044SOL    HW230528   2.276   2.149   3.142 -0.3523 -0.3225 -0.8379
10045SOL     OW30529   3.293   2.312   5.537  0.1345  0.2075  0.3669
10045SOL    HW130530   3.349   2.238   5.515 -1.3277 -0.7434 -0.2909
10045SOL    HW230531   3.206   2.274   5.546 -0.7920  1.9491 -0.7515
10046SOL     OW30532   3.903   6.827   4.581  0.1278  0.0742 -0.0536
10046SOL    HW130533   3.997   6.812   4.588 -0.2770 -3.1205  0.0256
10046SOL    HW230534   3.878   6.788   4.498 -1.1908  0.6089  0.0659
10047SOL     OW30535   5.093   5.536   1.845 -0.1650  0.4724  0.3771
10047SOL    HW130536   5.148   5.461   1.823  0.0368  1.3604 -2.5119
10047SOL    HW230537   5.009   5.498   1.870  0.2691 -0.7581  0.0070
10048SOL     OW30538   6.521   2.063   0.258 -0.4229  0.1251  0.2073
10048SOL    HW130539   6.580   2.093   0.189  0.9262  0.1980  1.3455
10048SOL    HW230540   6.469   2.140   0.281 -0.7955  0.1310 -0.6148
10049SOL     OW30541   3.497   2.743   4.005 -0.8175 -0.0981  1.1018
10049SOL    HW130542   3.448   2.737   4.087  2.6446  1.3689  3.5806
10049SOL    HW230543   3.503   2.837   3.988 -0.4265 -0.3326 -0.1346
10050SOL     OW30544   0.820   4.006   0.757 -0.1670  0.0410  0.2647
10050SOL    HW130545   0.737   4.051   0.742 -0.5150 -0.2928  1.0978
10050SOL    HW230546   0.884   4.076   0.769 -0.1653  0.3083 -1.0988
10051SOL     OW30547   1.868   6.161   1.851  0.0152 -0.0796  0.2135
10051SOL    HW130548   1.921   6.156   1.771 -0.6374  1.8235 -0.4022
10051SOL    HW230549   1.838   6.072   1.866 -1.4383 -0.2302 -2.8069
10052SOL     OW30550   5.224   4.645   2.585 -0.4230  0.6772  0.1377
10052SOL    HW130551   5.151   4.671   2.641 -0.4238  1.4717 -0.2182
10052SOL    HW230552   5.186   4.636   2.498 -0.9560 -2.9786  0.6052
10053SOL     OW30553   4.149   2.169   6.603  0.2917  0.0611  0.0568
10053SOL    HW130554   4.218   2.114   6.566  1.2963  1.7481 -0.6928
10053SOL    HW230555   4.097   2.197   6.527 -0.7209 -0.4810  0.5198
10054SOL     OW30556   3.954   4.001   5.569  0.1099  0.0835  0.0242
10054SOL    HW130557   3.888   3.936   5.595 -0.3330  0.5373  0.0593
10054SOL    HW230558   3.975   4.048   5.650 -1.1543  1.3911 -0.3601
10055SOL     OW30559   3.558   3.126   6.938 -0.1430  0.1994 -0.3324
10055SOL    HW130560   3.542   3.116   7.032 -0.4378 -0.6520 -0.4657
10055SOL    HW230561   3.622   3.197   6.932  1.2357 -0.8992  0.6408
10056SOL     OW30562   5.104   5.218   6.202 -0.3853 -0.1519  0.1790
10056SOL    HW130563   5.179   5.191   6.148  0.4182  0.0999  1.1388
10056SOL    HW230564   5.039   5.149   6.190  0.9139 -1.6082  1.1476
10057SOL     OW30565   1.685   2.468   6.318  0.7723 -0.1208  0.1682
10057SOL    HW130566   1.721   2.381   6.333  0.7184 -0.0421  0.7720
10057SOL    HW230567   1.704   2.516   6.398 -1.4050 -0.3212  0.8486
10058SOL     OW30568   0.171   4.624   1.577 -0.2767 -0.5223 -0.3859
10058SOL    HW130569   0.080   4.624   1.549 -1.3994  0.6826  2.9018
10058SOL    HW230570   0.177   4.555   1.643  0.7861  0.4689  0.5995
10059SOL     OW30571   1.518   0.996   0.232 -0.1283  0.1722  0.0892
10059SOL    HW130572   1.594   1.010   0.176 -0.4387 -1.1512 -0.7153
10059SOL    HW230573   1.468   1.078   0.225  0.4087  0.4478 -0.6614
10060SOL     OW30574   4.522   5.989   3.355 -0.0198  0.0924 -0.2296
10060SOL    HW130575   4.582   6.052   3.315 -0.6442 -0.0977 -1.5193
10060SOL    HW230576   4.461   5.966   3.285 -1.7508  0.4560  1.0910
10061SOL     OW30577   1.396   2.236   0.618 -0.0068  0.0097 -0.4945
10061SOL    HW130578   1.440   2.242   0.533  2.1414 -1.5863  0.4095
10061SOL    HW230579   1.462   2.266   0.681 -1.0144 -0.2916  0.7488
10062SOL     OW30580   3.535   5.236   3.475  0.3291  0.1584 -0.1096
10062SOL    HW130581   3.449   5.195   3.481 -0.2303  1.3577  0.4444
10062SOL    HW230582   3.574   5.198   3.397 -0.4124 -0.9309  0.0215
10063SOL     OW30583   4.599   6.338   3.671 -0.0763 -0.3992  0.3792
10063SOL    HW130584   4.621   6.254   3.712 -0.9339 -0.8536 -0.0591
10063SOL    HW230585   4.644   6.403   3.725  0.9302 -1.1601  0.4958
10064SOL     OW30586   1.265   4.469   4.587  0.4595  0.3480 -0.2471
10064SOL    HW130587   1.356   4.447   4.608  0.1012 -3.4191 -1.7101
10064SOL    HW230588   1.219   4.463   4.671  1.0968 -1.1111  0.0375
10065SOL     OW30589   6.119   0.219   5.763 -0.3353  0.2993  1.1877
10065SOL    HW130590   6.176   0.267   5.822 -1.4869  0.0431  2.5599
10065SOL    HW230591   6.145   0.248   5.675  2.0969 -0.0816  1.7312
10066SOL     OW30592   4.512   5.157   2.576 -0.3387  0.3650 -0.1216
10066SOL    HW130593   4.531   5.070   2.609 -0.9055  0.2125 -0.1775
10066SOL    HW230594   4.551   5.158   2.488  1.1973  0.7867  0.5368
10067SOL     OW30595   0.375   3.275   5.184  0.1944 -0.5891  0.5828
10067SOL    HW130596   0.338   3.331   5.252  4.0452  1.0916  1.5940
10067SOL    HW230597   0.435   3.217   5.232  3.2693  0.8476 -1.2323
10068SOL     OW30598   0.578   4.159   4.288  0.8321  0.0634  0.1245
10068SOL    HW130599   0.518   4.221   4.247 -0.7448 -1.3600  0.1557
10068SOL    HW230600   0.529   4.077   4.292  2.6328 -1.0639  0.5854
10069SOL     OW30601   5.901   5.147   5.435  0.4075  0.4739  0.4782
10069SOL    HW130602   5.896   5.059   5.398 -1.1776  0.8104 -0.2065
10069SOL    HW230603   5.911   5.133   5.529  1.2789 -0.4093  0.2807
10070SOL     OW30604   5.551   6.881   6.482  0.1140 -0.6208  0.4745
10070SOL    HW130605   5.611   6.809   6.459  0.1245 -0.7809  0.9961
10070SOL    HW230606   5.553   6.939   6.406  1.5464 -0.2136  0.8080
10071SOL     OW30607   3.931   4.024   4.079  0.1347  0.0999 -0.4950
10071SOL    HW130608   3.906   3.938   4.044 -1.1020  0.2947 -0.1127
10071SOL    HW230609   3.887   4.030   4.163  3.0958 -0.3751  1.2447
10072SOL     OW30610   4.600   4.188   6.543 -0.0121 -0.7139  0.1419
10072SOL    HW130611   4.658   4.264   6.531 -1.6197  0.6714  0.7639
10072SOL    HW230612   4.631   4.147   6.623 -0.4154  0.5670  0.9934
10073SOL     OW30613   6.523   4.423   1.971 -0.0830 -0.2769 -0.2003
10073SOL    HW130614   6.617   4.432   1.955 -0.1259 -2.2063 -1.9191
10073SOL    HW230615   6.485   4.502   1.933  0.6432 -0.7482 -2.0115
10074SOL     OW30616   1.723   0.355   6.242 -0.1431  0.0360 -0.6278
10074SOL    HW130617   1.718   0.261   6.261 -0.3968  0.0190 -0.7787
10074SOL    HW230618   1.633   0.380   6.222  0.1006  0.0702 -1.7303
10075SOL     OW30619   6.806   2.121   2.990  0.2734 -0.0349  0.2003
10075SOL    HW130620   6.821   2.077   3.075 -0.9978 -1.3296 -0.1946
10075SOL    HW230621   6.810   2.214   3.010  0.4541 -0.3194  1.6037
10076SOL     OW30622   2.875   1.623   3.100 -0.0088 -0.1241  0.1074
10076SOL    HW130623   2.807   1.663   3.047 -1.1457 -0.6576  1.1159
10076SOL    HW230624   2.888   1.684   3.173  0.9871  0.2319 -0.3518
10077SOL     OW30625   1.319   1.336   0.627 -0.0051  0.7132  0.0610
10077SOL    HW130626   1.339   1.329   0.721 -3.2937  0.9844  0.9270
10077SOL    HW230627   1.401   1.318   0.583  1.6609  0.5311  3.0061
10078SOL     OW30628   6.213   4.052   6.043  0.1504  0.0225 -0.3589
10078SOL    HW130629   6.216   3.988   6.115 -0.1680  0.9650  0.5137
10078SOL    HW230630   6.265   4.012   5.973  0.0691 -1.1269  0.2150
10079SOL     OW30631   4.563   6.851   0.362  0.0794  0.0713  0.1829
10079SOL    HW130632   4.634   6.908   0.390  1.5489 -1.3138 -0.5437
10079SOL    HW230633   4.558   6.863   0.267 -1.6072  1.1579  0.3751
10080SOL     OW30634   1.376   5.340   2.355 -0.7921  0.1557 -0.5986
10080SOL    HW130635   1.362   5.338   2.450 -0.4261 -1.3380 -0.5530
10080SOL    HW230636   1.288   5.336   2.318 -0.8775 -0.8738 -0.3134
10081SOL     OW30637   5.908   3.790   0.605  0.1422  0.3065  0.2307
10081SOL    HW130638   5.915   3.702   0.567 -2.4394 -0.4020  1.1686
10081SOL    HW230639   5.950   3.848   0.542  0.3830 -1.4039 -1.2423
10082SOL     OW30640   1.261   2.572   4.532 -0.5881 -0.2673  0.0571
10082SOL    HW130641   1.242   2.663   4.553  2.1646  0.2966  0.4804
10082SOL    HW230642   1.201   2.551   4.461 -2.0351  1.5017  0.6749
10083SOL     OW30643   0.835   2.748   2.711 -0.7374  0.0432  0.0138
10083SOL    HW130644   0.897   2.677   2.694 -1.3418 -0.9733  1.7739
10083SOL    HW230645   0.812   2.782   2.624  1.4046 -0.2802 -0.7316
10084SOL     OW30646   5.708   0.518   6.188  0.2783 -0.1357 -0.1645
10084SOL    HW130647   5.658   0.597   6.209  1.9214  0.9526 -0.1054
10084SOL    HW230648   5.737   0.532   6.098 -0.1007 -1.0808 -0.4451
10085SOL     OW30649   5.212   3.597   4.294  0.3281 -0.0935  0.0246
10085SOL    HW130650   5.290   3.568   4.343  0.7639  0.3950 -0.3738
10085SOL    HW230651   5.235   3.585   4.202  0.8299  2.1824 -0.2158
10086SOL     OW30652   5.593   4.927   2.208 -0.3063 -0.2141  0.5183
10086SOL    HW130653   5.680   4.906   2.243  0.0047 -1.2997 -0.8113
10086SOL    HW230654   5.611   4.982   2.131 -0.8409  0.2563  0.7281
10087SOL     OW30655   1.335   1.535   2.317  0.0089  0.4406 -0.1936
10087SOL    HW130656   1.287   1.616   2.330  0.7748  1.0074 -0.7884
10087SOL    HW230657   1.333   1.491   2.402  1.5395  2.1705  0.8015
10088SOL     OW30658   0.385   6.897   2.096  1.0507  0.4466  0.6547
10088SOL    HW130659   0.322   6.930   2.032  1.3920  1.4668  0.8253
10088SOL    HW230660   0.338   6.900   2.180  0.4794 -1.2323  0.4397
10089SOL     OW30661   3.436   0.565   1.343  0.2468  0.4842 -0.2869
10089SOL    HW130662   3.410   0.554   1.434 -0.0861  0.6583 -0.3595
10089SOL    HW230663   3.356   0.593   1.298 -0.0345 -1.2941 -0.9655
10090SOL     OW30664   1.730   3.987   1.504 -0.7637  0.1234  0.0963
10090SOL    HW130665   1.788   3.938   1.562  1.7529  2.2484 -0.4632
10090SOL    HW230666   1.707   4.065   1.555 -0.8647  0.6259 -0.7174
10091SOL     OW30667   1.366   1.017   3.534  0.0054  0.5704 -0.3170
10091SOL    HW130668   1.435   1.002   3.599  1.3049  1.3815 -1.4582
10091SOL    HW230669   1.408   0.999   3.450 -2.0843 -2.0968 -0.9529
10092SOL     OW30670   5.287   5.596   5.970  0.2715  0.6704  0.1379
10092SOL    HW130671   5.268   5.548   5.889  1.2806  1.6960 -0.7559
10092SOL    HW230672   5.381   5.586   5.982 -0.1565 -1.4076  2.5385
10093SOL     OW30673   4.054   1.540   4.628  0.6799 -0.1280  0.0465
10093SOL    HW130674   4.049   1.518   4.721  0.5587 -0.3027 -0.0005
10093SOL    HW230675   3.996   1.477   4.586  0.3592  0.2624 -0.0946
10094SOL     OW30676   6.004   0.418   0.367  0.2760  0.0107 -0.2719
10094SOL    HW130677   6.056   0.495   0.389  0.8977 -0.5918  0.4044
10094SOL    HW230678   5.977   0.382   0.451 -2.2491  0.9445 -0.5781
10095SOL     OW30679   4.650   4.719   4.688 -0.4038 -0.1491 -0.1685
10095SOL    HW130680   4.616   4.673   4.611 -0.3613  1.1894 -1.0159
10095SOL    HW230681   4.745   4.711   4.681 -0.3743  0.5689 -0.6449
10096SOL     OW30682   3.291   5.235   1.671 -0.2367  0.0623  0.0855
10096SOL    HW130683   3.292   5.187   1.755  0.2940 -2.1613 -1.1132
10096SOL    HW230684   3.372   5.285   1.671 -0.5775  0.6526  1.1807
10097SOL     OW30685   0.482   2.377   6.874 -0.1588  0.3304  0.2486
10097SOL    HW130686   0.536   2.298   6.868  3.3422  2.4560  0.7380
10097SOL    HW230687   0.465   2.401   6.783  2.4338  1.1809 -0.0918
10098SOL     OW30688   2.495   2.144   0.603 -0.2870  0.1312  0.3404
10098SOL    HW130689   2.484   2.153   0.509  1.1256  0.7424  0.2008
10098SOL    HW230690   2.518   2.233   0.633  0.5881 -0.3044  1.0343
10099SOL     OW30691   2.334   0.492   4.423 -0.0213 -0.3716 -0.4537
10099SOL    HW130692   2.312   0.400   4.409 -1.7892 -0.1080  0.4512
10099SOL    HW230693   2.308   0.536   4.342  1.6577 -0.7430 -1.2567
10100SOL     OW30694   6.611   6.179   6.304  0.0941 -0.0700 -0.5865
10100SOL    HW130695   6.695   6.176   6.258  0.1964  1.6279 -0.5692
10100SOL    HW230696   6.587   6.272   6.304  0.0425  0.0214  2.7275
10101SOL     OW30697   5.767   1.563   4.168 -0.3519 -0.2642 -0.0483
10101SOL    HW130698   5.677   1.589   4.191  0.6061  2.5091  0.9856
10101SOL    HW230699   5.815   1.568   4.251  0.9960 -0.6533 -0.7734
10102SOL     OW30700   3.110   1.261   2.279 -0.2542  0.7809  0.1248
10102SOL    HW130701   3.168   1.318   2.229 -0.4187  0.3446 -0.5597
10102SOL    HW230702   3.166   1.223   2.347  0.8434 -1.4482 -1.9124
10103SOL     OW30703   6.405   6.359   0.908 -0.1103 -0.2227 -0.1649
10103SOL    HW130704   6.476   6.386   0.966  0.7422 -1.7827 -0.4011
10103SOL    HW230705   6.450   6.315   0.835 -1.3333 -2.3410  0.2816
10104SOL     OW30706   6.184   1.600   3.849  0.3808  0.1081  0.3774
10104SOL    HW130707   6.240   1.524   3.834  0.1084 -0.5117  2.2076
10104SOL    HW230708   6.102   1.577   3.806  0.5032 -0.3618  0.3783
10105SOL     OW30709   3.879   6.018   1.790 -0.3608 -0.0631  0.1455
10105SOL    HW130710   3.884   6.059   1.704  0.6306  0.1807  0.2985
10105SOL    HW230711   3.947   6.062   1.841 -0.8510 -0.2893  1.0179
10106SOL     OW30712   6.131   4.340   3.208  0.1676  0.4049  0.4916
10106SOL    HW130713   6.072   4.390   3.265 -0.5329 -0.9887  1.0437
10106SOL    HW230714   6.079   4.324   3.129  0.4611  0.7003  0.2351
10107SOL     OW30715   1.964   4.843   0.991 -0.0230  0.0454  0.4310
10107SOL    HW130716   2.060   4.839   0.992  0.0581  1.3256 -0.7534
10107SOL    HW230717   1.943   4.921   0.940 -1.7230 -1.1638 -0.8327
10108SOL     OW30718   5.165   3.456   1.071 -0.0810  0.0933  0.2745
10108SOL    HW130719   5.165   3.389   1.002 -2.1618 -1.6046  1.7807
10108SOL    HW230720   5.075   3.456   1.104  1.1445 -0.2607  4.0060
10109SOL     OW30721   5.708   6.614   5.168 -0.4002  0.6062 -0.3355
10109SOL    HW130722   5.684   6.680   5.233 -0.9514  0.1311 -0.0372
10109SOL    HW230723   5.653   6.633   5.092 -1.3950 -0.1701  0.1603
10110SOL     OW30724   2.088   3.288   1.231  0.0889  0.5665 -0.0001
10110SOL    HW130725   2.066   3.262   1.321 -1.0837  0.1462 -0.3870
10110SOL    HW230726   2.183   3.298   1.231  0.0037  1.7747  1.6003
10111SOL     OW30727   2.119   3.600   4.027 -0.7215 -0.2598 -0.1377
10111SOL    HW130728   2.121   3.535   4.098  1.1554 -0.4853 -0.3554
10111SOL    HW230729   2.079   3.555   3.954  1.0013 -1.3966 -0.4377
10112SOL     OW30730   0.840   0.269   5.023 -0.1698  0.1806 -0.1618
10112SOL    HW130731   0.867   0.278   4.932  1.5239 -0.4391  0.2404
10112SOL    HW230732   0.884   0.190   5.054 -0.9146  0.2399  1.1265
10113SOL     OW30733   5.838   1.848   3.383 -0.6231  0.0989  0.5146
10113SOL    HW130734   5.791   1.833   3.301  1.3058 -0.5338 -0.5392
10113SOL    HW230735   5.812   1.775   3.439 -3.1939  1.3850  1.1319
10114SOL     OW30736   0.339   5.726   1.390  0.2568  0.5551  0.7847
10114SOL    HW130737   0.257   5.768   1.364 -0.2962 -1.1131 -0.3294
10114SOL    HW230738   0.312   5.646   1.434  1.2880  0.0904  0.6119
10115SOL     OW30739   4.367   2.216   6.311 -0.0562  0.0029 -0.0622
10115SOL    HW130740   4.360   2.256   6.225 -1.8044  0.8195  0.4322
10115SOL    HW230741   4.325   2.278   6.370 -1.0729 -1.6357  1.0057
10116SOL     OW30742   5.129   4.440   0.396  0.1604  0.3952  0.1908
10116SOL    HW130743   5.193   4.415   0.330 -0.8502 -0.9604 -0.3127
10116SOL    HW230744   5.065   4.494   0.349 -1.4627 -1.9210 -0.3949
10117SOL     OW30745   2.213   5.682   1.428  0.1755 -0.5314 -0.0348
10117SOL    HW130746   2.156   5.625   1.377  0.2040 -0.2255 -0.4108
10117SOL    HW230747   2.301   5.665   1.396  0.1885 -0.3030 -0.1246
10118SOL     OW30748   6.797   1.482   1.298  0.5506 -0.1527 -0.0942
10118SOL    HW130749   6.764   1.571   1.289  1.1292  0.0727  0.0011
10118SOL    HW230750   6.719   1.427   1.287  0.1878  0.3594 -0.1387
10119SOL     OW30751   0.864   5.400   5.524  0.1959 -0.4049  0.4950
10119SOL    HW130752   0.779   5.417   5.484  0.7711 -1.1249 -1.1359
10119SOL    HW230753   0.868   5.305   5.534  0.5756 -0.3324  1.1363
10120SOL     OW30754   0.350   4.675   6.901  0.2180  0.4450  0.0609
10120SOL    HW130755   0.419   4.687   6.836  0.6631  0.1859  0.4726
10120SOL    HW230756   0.371   4.738   6.970  0.7778 -0.4981  0.7743
10121SOL     OW30757   5.247   4.965   2.267 -0.0567  0.3350  0.3839
10121SOL    HW130758   5.191   4.928   2.335  1.1258  1.2827  1.9676
10121SOL    HW230759   5.330   4.983   2.313  1.8911 -1.7745 -1.9918
10122SOL     OW30760   2.753   4.163   3.907 -0.3617 -0.2724  0.2041
10122SOL    HW130761   2.672   4.123   3.938 -1.5339  1.6519 -0.1860
10122SOL    HW230762   2.742   4.256   3.926  1.2394  0.2028 -0.9943
10123SOL     OW30763   2.041   1.231   0.359 -0.4602 -0.3153  0.0167
10123SOL    HW130764   2.016   1.320   0.384 -1.9101 -1.2662  2.3228
10123SOL    HW230765   2.069   1.239   0.268 -0.4323  2.4980  0.1703
10124SOL     OW30766   1.163   5.583   0.882  0.1480  0.4319  0.5817
10124SOL    HW130767   1.168   5.489   0.862  0.2191  0.1482  1.8631
10124SOL    HW230768   1.079   5.610   0.846 -0.1449 -0.2505  0.7337
10125SOL     OW30769   1.737   3.389   5.649  0.4228 -0.3723 -0.0425
10125SOL    HW130770   1.812   3.361   5.597 -1.2756 -1.4732 -2.0322
10125SOL    HW230771   1.673   3.318   5.641 -1.8930  1.6431 -0.7272
10126SOL     OW30772   3.711   1.091   2.310 -0.5499 -0.1952  0.2059
10126SOL    HW130773   3.791   1.041   2.331  0.7425  1.1966 -1.1451
10126SOL    HW230774   3.664   1.097   2.393  0.8965 -0.7915  1.1122
10127SOL     OW30775   2.470   1.634   1.452  0.7135 -0.3360 -0.1808
10127SOL    HW130776   2.526   1.614   1.377  0.8823  0.6361 -0.3227
10127SOL    HW230777   2.528   1.678   1.514  0.0256  1.1051 -0.5267
10128SOL     OW30778   5.210   5.562   5.226  0.2232 -0.2864  0.3603
10128SOL    HW130779   5.206   5.540   5.133 -1.2537  1.4806 -0.0553
10128SOL    HW230780   5.191   5.656   5.229 -1.8048 -0.6790  2.5940
10129SOL     OW30781   1.519   2.198   0.365 -0.4728 -0.2633 -0.0096
10129SOL    HW130782   1.586   2.134   0.392 -1.9215 -2.1341 -0.5817
10129SOL    HW230783   1.507   2.182   0.272 -1.7806 -0.0703  0.0973
10130SOL     OW30784   0.671   6.079   5.588 -0.3169  0.0154  0.1309
10130SOL    HW130785   0.765   6.092   5.599 -0.4545  0.4413  0.8224
10130SOL    HW230786   0.657   6.087   5.494  0.4197 -0.6258 -0.0488
10131SOL     OW30787   5.152   2.382   6.025 -0.2203 -0.0186  0.2835
10131SOL    HW130788   5.234   2.396   6.072  0.1093 -0.3265 -0.1824
10131SOL    HW230789   5.134   2.466   5.982  0.0074 -0.0340  0.1556
10132SOL     OW30790   2.333   0.029   4.670  0.0191 -0.3790  0.2208
10132SOL    HW130791   2.370   0.102   4.719  0.9537 -0.2443 -0.6676
10132SOL    HW230792   2.248   0.061   4.639  0.3344  0.2592  0.0068
10133SOL     OW30793   6.913   1.470   3.065  0.1401  0.2474  0.1307
10133SOL    HW130794   6.832   1.498   3.107  0.3398 -1.4621  1.7849
10133SOL    HW230795   6.914   1.516   2.981  0.1976  4.7283  2.2664
10134SOL     OW30796   3.110   4.710   4.477  0.4505  0.3096  0.3395
10134SOL    HW130797   3.067   4.686   4.395 -0.1552  2.7899 -0.1335
10134SOL    HW230798   3.189   4.656   4.479  0.2289 -0.1610 -1.6344
10135SOL     OW30799   4.398   2.339   2.863  0.1034 -0.2231 -0.3277
10135SOL    HW130800   4.428   2.263   2.813  0.2348  0.3219 -1.0983
10135SOL    HW230801   4.461   2.348   2.934 -0.5373 -1.4898  0.4220
10136SOL     OW30802   5.927   6.194   4.325 -0.4356  0.3328  0.0010
10136SOL    HW130803   5.923   6.289   4.318 -2.2712  0.3571  0.7494
10136SOL    HW230804   6.004   6.177   4.380  0.8331  1.2548 -1.4113
10137SOL     OW30805   2.001   6.234   5.901 -0.4065  0.7225  0.0818
10137SOL    HW130806   2.053   6.197   5.972  1.4150 -0.1897 -1.6454
10137SOL    HW230807   2.063   6.285   5.849 -1.8195  1.8691 -0.5743
10138SOL     OW30808   1.649   0.684   0.452 -0.0047  0.1191  0.8681
10138SOL    HW130809   1.595   0.762   0.467  0.7688  0.7404  0.4829
10138SOL    HW230810   1.711   0.711   0.385 -0.3678 -1.1406 -0.0180
10139SOL     OW30811   6.390   3.081   5.689  0.0000 -0.1941 -0.3082
10139SOL    HW130812   6.326   3.026   5.645  0.2782 -1.2794  0.5663
10139SOL    HW230813   6.412   3.032   5.769  0.5087  1.0459  0.3466
10140SOL     OW30814   4.288   1.809   0.135 -0.0641  0.3062 -0.3981
10140SOL    HW130815   4.238   1.876   0.089 -0.2816  1.0264  0.8400
10140SOL    HW230816   4.370   1.803   0.087 -0.3168  0.9628 -0.9316
10141SOL     OW30817   3.945   2.185   2.539 -0.0658 -0.4389  0.2652
10141SOL    HW130818   3.984   2.260   2.495 -1.4601 -0.3765 -0.9099
10141SOL    HW230819   3.960   2.111   2.479  0.3212 -0.8885  0.9024
10142SOL     OW30820   0.323   6.684   0.173  0.0307 -0.2287  0.0912
10142SOL    HW130821   0.372   6.663   0.094 -0.3578  0.5965 -0.3777
10142SOL    HW230822   0.257   6.615   0.179 -0.0973 -0.1591 -0.4420
10143SOL     OW30823   4.019   0.367   5.790 -0.3034 -0.2829  0.7989
10143SOL    HW130824   4.084   0.398   5.726 -1.4320  0.0936 -0.2052
10143SOL    HW230825   4.071   0.330   5.861  1.0151 -1.3294 -0.6324
10144SOL     OW30826   3.875   5.003   4.708 -0.3680  0.0700  0.7106
10144SOL    HW130827   3.904   5.091   4.686 -0.2824 -0.6059 -2.4623
10144SOL    HW230828   3.949   4.964   4.756  0.2070  1.2267  0.7818
10145SOL     OW30829   1.097   0.893   1.358  0.6270 -0.6375 -0.3696
10145SOL    HW130830   1.160   0.885   1.287  0.6003  0.8952 -0.5913
10145SOL    HW230831   1.120   0.975   1.403 -1.4997  0.2618 -0.7906
10146SOL     OW30832   2.433   3.345   0.859 -0.0285  0.1613  0.0171
10146SOL    HW130833   2.388   3.354   0.775  0.8448  1.4319 -0.3519
10146SOL    HW230834   2.366   3.360   0.925 -0.5057  0.2204 -0.4783
10147SOL     OW30835   4.083   5.462   3.943 -0.7277  0.4924 -0.6174
10147SOL    HW130836   4.147   5.458   3.872  0.4659  3.2658  0.1642
10147SOL    HW230837   4.056   5.554   3.945 -1.2080  0.3517  2.0867
10148SOL     OW30838   1.676   1.136   2.200  0.0792  0.3227  0.1168
10148SOL    HW130839   1.746   1.071   2.195  0.0409  0.3515 -1.1892
10148SOL    HW230840   1.614   1.100   2.264 -0.4871 -1.4936 -1.3718
10149SOL     OW30841   2.064   3.279   4.911  0.0477 -0.0804 -0.2241
10149SOL    HW130842   1.977   3.254   4.880  0.8181 -0.2540 -2.3999
10149SOL    HW230843   2.093   3.347   4.851  1.3259  0.1681  0.6176
10150SOL     OW30844   0.472   3.749   5.446 -0.4705  0.2985 -0.2738
10150SOL    HW130845   0.473   3.802   5.526  1.0719 -0.7241  0.4437
10150SOL    HW230846   0.463   3.813   5.375  1.7705  1.6375  0.5315
10151SOL     OW30847   0.916   3.805   4.779 -0.5249  0.2422  0.2812
10151SOL    HW130848   0.906   3.710   4.782  1.1801  0.0440  0.9704
10151SOL    HW230849   0.918   3.832   4.871 -0.0976  0.8305  0.1048
10152SOL     OW30850   4.970   3.265   2.347 -1.0081  0.5412  0.8303
10152SOL    HW130851   5.031   3.338   2.333 -0.7837  0.0086 -1.3753
10152SOL    HW230852   4.957   3.262   2.442 -0.0680  2.6562  1.0865
10153SOL     OW30853   6.924   5.194   4.781 -0.1655  0.0284 -0.9331
10153SOL    HW130854   6.862   5.236   4.840  1.9186 -0.5621  1.8921
10153SOL    HW230855   6.879   5.115   4.751 -0.4898 -1.0128  1.9762
10154SOL     OW30856   5.639   3.740   2.552  0.1620 -0.9353  0.8978
10154SOL    HW130857   5.555   3.715   2.515 -0.5456  1.3267  0.8076
10154SOL    HW230858   5.682   3.791   2.483  2.0860 -2.8105  0.5782
10155SOL     OW30859   3.538   1.574   3.794  0.0343  0.0459  0.1894
10155SOL    HW130860   3.542   1.605   3.885  1.9585  4.0357 -1.0249
10155SOL    HW230861   3.480   1.497   3.798  0.2629 -0.2020  4.7623
10156SOL     OW30862   1.443   6.708   6.238 -0.2699  0.2415  0.2250
10156SOL    HW130863   1.392   6.673   6.165 -0.4005 -0.0349  0.4480
10156SOL    HW230864   1.521   6.746   6.197 -0.7853  0.9296 -0.1480
10157SOL     OW30865   0.102   5.953   2.115 -0.1324 -0.5611 -0.1114
10157SOL    HW130866   0.192   5.958   2.148 -0.7370 -0.2872  1.6260
10157SOL    HW230867   0.096   5.868   2.071  0.9398 -0.6236 -0.1463
10158SOL     OW30868   5.908   1.422   3.960  0.4576 -0.4048  0.0841
10158SOL    HW130869   5.834   1.455   4.012  0.3607 -0.4182 -0.0457
10158SOL    HW230870   5.905   1.473   3.879  0.3994 -0.6304 -0.0530
10159SOL     OW30871   2.666   4.281   5.179 -0.1679 -0.0899 -0.3393
10159SOL    HW130872   2.738   4.287   5.116  0.1185  0.7271  0.0484
10159SOL    HW230873   2.675   4.360   5.233 -0.8864 -0.3763  0.2135
10160SOL     OW30874   4.517   1.700   4.892 -0.8316  0.4787  0.3645
10160SOL    HW130875   4.541   1.700   4.799 -1.2235 -0.2147  0.2585
10160SOL    HW230876   4.545   1.614   4.923 -2.6602 -0.1493  0.3677
10161SOL     OW30877   3.100   3.467   0.183  0.7301  0.1947  0.5660
10161SOL    HW130878   3.173   3.423   0.140 -0.2016 -0.0262 -0.8680
10161SOL    HW230879   3.067   3.528   0.118 -0.3788  0.2633  1.1664
10162SOL     OW30880   4.267   5.242   1.953 -0.2672  0.2330 -0.0415
10162SOL    HW130881   4.294   5.307   1.888  1.2132 -0.4265 -0.1019
10162SOL    HW230882   4.191   5.282   1.996 -1.7586  0.3915 -2.6452
10163SOL     OW30883   3.483   0.440   2.265  0.2639 -0.2857 -0.2395
10163SOL    HW130884   3.525   0.412   2.184  0.8424  1.3464 -0.5476
10163SOL    HW230885   3.537   0.402   2.334  0.0291 -1.3170 -0.6040
10164SOL     OW30886   4.681   2.076   4.917  0.1663  0.2020 -0.3112
10164SOL    HW130887   4.703   2.167   4.896 -1.9035  0.9113  0.3607
10164SOL    HW230888   4.679   2.031   4.832  0.7409  0.8784 -0.6901
10165SOL     OW30889   4.143   6.748   3.528  0.2562 -0.4484  0.0580
10165SOL    HW130890   4.230   6.769   3.493  0.8097 -1.0065  1.0678
10165SOL    HW230891   4.123   6.820   3.587  0.7628 -1.1330  1.0839
10166SOL     OW30892   2.494   0.686   5.015 -0.2906 -0.3881 -0.7465
10166SOL    HW130893   2.464   0.765   5.060 -0.9804 -1.1013  0.0769
10166SOL    HW230894   2.582   0.671   5.049 -0.6141 -0.6382 -0.0082
10167SOL     OW30895   3.351   4.242   5.212 -0.0600  0.5240  0.0750
10167SOL    HW130896   3.424   4.195   5.173 -0.0300  0.8119 -0.2205
10167SOL    HW230897   3.295   4.173   5.249 -0.5203  0.1758 -1.2058
10168SOL     OW30898   0.293   2.308   0.130 -0.0021  0.4832 -0.0793
10168SOL    HW130899   0.377   2.346   0.104 -0.0491  0.5720 -0.1026
10168SOL    HW230900   0.283   2.230   0.076 -0.8017  1.4733 -1.4135
10169SOL     OW30901   4.328   1.244   2.941  0.0455 -0.5338 -0.0350
10169SOL    HW130902   4.350   1.304   2.870  0.9182 -0.0678  0.6085
10169SOL    HW230903   4.343   1.295   3.021 -0.1554 -1.2981  0.5046
10170SOL     OW30904   4.710   6.304   4.437 -0.0619  0.1535  0.4082
10170SOL    HW130905   4.780   6.285   4.374  0.0576  0.4046  0.4648
10170SOL    HW230906   4.668   6.383   4.404  0.3952  0.6370  0.9690
10171SOL     OW30907   2.639   1.752   1.191  0.8095 -0.4515 -0.0686
10171SOL    HW130908   2.715   1.797   1.153 -0.4599  0.8625 -1.1999
10171SOL    HW230909   2.573   1.821   1.199 -0.2320 -1.5415  0.9801
10172SOL     OW30910   4.309   5.364   6.387  0.4687  0.3612 -0.3027
10172SOL    HW130911   4.380   5.332   6.443  1.3446  0.1557 -1.4927
10172SOL    HW230912   4.335   5.453   6.364 -0.6866  1.0564  0.8771
10173SOL     OW30913   5.119   5.809   5.952 -0.2764 -0.0763 -0.3602
10173SOL    HW130914   5.182   5.737   5.944 -1.3594 -1.0108 -0.7795
10173SOL    HW230915   5.037   5.772   5.921 -1.2750  0.7973  1.1106
10174SOL     OW30916   4.435   0.682   5.368 -0.6905 -0.2693 -0.2168
10174SOL    HW130917   4.438   0.595   5.408 -0.6894  0.2888  1.0632
10174SOL    HW230918   4.470   0.669   5.280 -0.1717 -1.4614  0.1349
10175SOL     OW30919   2.964   0.174   3.611 -0.0401 -0.1217  0.1612
10175SOL    HW130920   2.995   0.145   3.696  0.8913 -0.1590 -0.1786
10175SOL    HW230921   3.029   0.139   3.549 -0.7527 -0.1738 -0.5656
10176SOL     OW30922   5.183   0.348   4.278 -0.6491 -0.0508 -0.3815
10176SOL    HW130923   5.226   0.267   4.306 -1.7287 -1.0938 -1.5791
10176SOL    HW230924   5.105   0.354   4.333 -2.5608 -1.8921 -2.6804
10177SOL     OW30925   4.315   5.162   4.047  0.0392  0.3355 -0.3005
10177SOL    HW130926   4.330   5.071   4.072  0.7202  0.7615  0.9054
10177SOL    HW230927   4.228   5.161   4.005  1.2535 -1.3447 -3.0394
10178SOL     OW30928   2.636   5.459   3.033  0.4471 -0.0483  0.3985
10178SOL    HW130929   2.610   5.484   2.944  1.4013 -0.2847  0.0399
10178SOL    HW230930   2.561   5.484   3.088 -0.5312 -0.7370 -0.5828
10179SOL     OW30931   6.341   5.497   2.143  0.9136 -0.0105  0.0754
10179SOL    HW130932   6.371   5.559   2.077  0.7536  0.7436  0.6888
10179SOL    HW230933   6.261   5.459   2.106 -0.6603  2.3159  0.8695
10180SOL     OW30934   5.802   4.577   3.127 -0.6513 -0.4723  0.1844
10180SOL    HW130935   5.870   4.602   3.189  1.4037 -3.2309 -0.7750
10180SOL    HW230936   5.737   4.531   3.180 -1.1229  0.8995  0.8657
10181SOL     OW30937   1.625   2.462   0.335 -0.2193  0.0972  0.4035
10181SOL    HW130938   1.587   2.489   0.252  1.5797 -0.2544 -0.5938
10181SOL    HW230939   1.573   2.387   0.363 -0.9026  0.2796 -0.3639
10182SOL     OW30940   6.344   3.341   3.305  0.2399  0.4308  0.2034
10182SOL    HW130941   6.268   3.340   3.246  0.3008 -0.6322  0.1274
10182SOL    HW230942   6.335   3.261   3.357  1.3817  0.2305  0.1061
10183SOL     OW30943   0.285   5.038   4.296  0.2817  0.0627  0.4570
10183SOL    HW130944   0.208   5.071   4.341 -0.4203  0.8257 -1.2159
10183SOL    HW230945   0.356   5.047   4.360 -0.3378  2.6701  0.8717
10184SOL     OW30946   6.172   4.085   4.572 -0.1386 -0.9943 -0.2900
10184SOL    HW130947   6.098   4.128   4.615 -1.8587 -3.4992 -0.5524
10184SOL    HW230948   6.227   4.054   4.643 -0.5157 -1.0260 -0.0079
10185SOL     OW30949   0.452   0.445   5.900 -0.3531 -0.1564  0.0344
10185SOL    HW130950   0.494   0.465   5.816 -0.7161 -2.3038 -0.7314
10185SOL    HW230951   0.515   0.474   5.966  0.9254 -0.3727 -1.0354
10186SOL     OW30952   2.353   3.747   0.585 -0.3277 -0.1646  0.0584
10186SOL    HW130953   2.319   3.835   0.566 -1.4321 -0.4774  0.5233
10186SOL    HW230954   2.365   3.708   0.498  0.1759  0.4305 -0.1543
10187SOL     OW30955   1.365   6.285   2.139 -0.4953 -0.2990 -0.5449
10187SOL    HW130956   1.390   6.270   2.048  0.4069 -0.0360 -0.3553
10187SOL    HW230957   1.445   6.318   2.180 -0.8514 -0.5563  0.3759
10188SOL     OW30958   3.388   2.911   5.788  0.0795 -0.4162 -0.1265
10188SOL    HW130959   3.389   2.946   5.877  1.4983  2.4013 -1.1151
10188SOL    HW230960   3.469   2.859   5.782  1.0683  1.0855 -0.3103
10189SOL     OW30961   0.538   6.283   4.058  0.4823  0.0890  0.0211
10189SOL    HW130962   0.579   6.203   4.026  1.9364  1.9665 -3.3203
10189SOL    HW230963   0.477   6.308   3.988 -0.5651  1.5038  1.3574
10190SOL     OW30964   1.206   2.332   5.417  0.6664 -0.0247  0.4381
10190SOL    HW130965   1.213   2.244   5.453 -0.2343 -0.3172 -0.0804
10190SOL    HW230966   1.179   2.386   5.491 -1.4671 -0.6736  0.1958
10191SOL     OW30967   4.595   2.197   0.372  0.0661  0.1317  0.5574
10191SOL    HW130968   4.505   2.223   0.353  0.5137  1.2111 -0.1965
10191SOL    HW230969   4.590   2.103   0.388 -0.9386 -0.1673 -1.2088
10192SOL     OW30970   2.739   6.473   3.107  0.0016 -0.3695  0.5166
10192SOL    HW130971   2.710   6.383   3.123 -0.4627 -0.3542 -0.2199
10192SOL    HW230972   2.662   6.518   3.073  0.8955 -0.3920 -1.6859
10193SOL     OW30973   0.951   6.254   1.408 -0.1406 -0.2960  0.1409
10193SOL    HW130974   0.930   6.161   1.422  0.4546 -0.3283  0.8387
10193SOL    HW230975   0.905   6.276   1.326  0.1683 -1.3486 -0.3365
10194SOL     OW30976   1.675   0.961   3.018  0.0755  0.6394 -0.3757
10194SOL    HW130977   1.589   0.927   2.990  0.2233  0.2979 -0.4126
10194SOL    HW230978   1.734   0.935   2.948  0.6476 -1.0720  0.6821
10195SOL     OW30979   3.203   0.354   1.945 -0.1269  0.2060 -0.0509
10195SOL    HW130980   3.108   0.354   1.932 -0.1482 -1.6079 -0.2358
10195SOL    HW230981   3.216   0.316   2.032  0.4239  0.9085  0.1853
10196SOL     OW30982   6.500   3.640   5.775  0.2355 -0.1636 -0.0606
10196SOL    HW130983   6.421   3.587   5.776 -1.3694  2.0656  0.8954
10196SOL    HW230984   6.482   3.709   5.711  1.9411 -0.3120 -0.7502
10197SOL     OW30985   6.067   5.608   3.535  0.1227 -0.1949  0.1694
10197SOL    HW130986   6.139   5.631   3.476 -1.5942 -0.4768 -2.1845
10197SOL    HW230987   6.028   5.692   3.559 -1.6263 -0.1469 -2.4667
10198SOL     OW30988   1.844   6.914   6.943  0.3957  0.1011  0.4235
10198SOL    HW130989   1.778   6.903   7.011  0.9048  0.8499  1.0490
10198SOL    HW230990   1.816   6.992   6.894  0.9058  0.5245  0.8008
10199SOL     OW30991   4.174   5.453   6.929 -0.1904  0.1674 -0.0831
10199SOL    HW130992   4.161   5.545   6.951  0.8467  0.3309 -0.0823
10199SOL    HW230993   4.251   5.453   6.871  0.9782 -0.8500  1.3970
10200SOL     OW30994   2.828   3.010   0.805  0.1165  0.1142 -0.5331
10200SOL    HW130995   2.870   2.925   0.790 -0.5854 -0.0414 -1.7141
10200SOL    HW230996   2.764   3.018   0.735 -0.4803  1.2145  0.1120
10201SOL     OW30997   5.655   1.154   6.864  0.0786  0.1115  0.2423
10201SOL    HW130998   5.737   1.167   6.818  0.6234  0.0415  1.1675
10201SOL    HW230999   5.592   1.211   6.818  0.6771  0.3027 -0.3532
10202SOL     OW31000   5.690   1.147   2.399 -0.3500 -0.5955 -0.0175
10202SOL    HW131001   5.755   1.078   2.391 -0.1420 -0.4700  0.5664
10202SOL    HW231002   5.633   1.118   2.471 -0.4474 -0.3108  0.0211
10203SOL     OW31003   2.048   6.490   0.744 -0.8041 -0.1155 -0.4039
10203SOL    HW131004   2.055   6.440   0.825 -2.3039  0.0470 -0.1455
10203SOL    HW231005   2.022   6.577   0.772 -0.1466  0.2855 -0.9985
10204SOL     OW31006   5.856   3.681   0.328 -0.6192 -0.6182 -0.3209
10204SOL    HW131007   5.870   3.591   0.359  0.5421 -0.3889 -0.1515
10204SOL    HW231008   5.943   3.712   0.302 -0.6085  1.1647  1.5443
10205SOL     OW31009   0.542   5.793   0.425  0.1244 -0.4059 -0.2938
10205SOL    HW131010   0.501   5.763   0.344 -1.2119 -2.1935  0.9779
10205SOL    HW231011   0.614   5.733   0.439  1.0768  0.6006 -0.6947
10206SOL     OW31012   5.536   1.799   2.802 -0.2738 -0.1572  0.2884
10206SOL    HW131013   5.547   1.819   2.710 -2.5799 -0.2427 -0.0749
10206SOL    HW231014   5.613   1.837   2.845  1.0110 -0.4201 -1.6699
10207SOL     OW31015   5.512   0.434   3.852 -0.2147  0.2492 -0.4004
10207SOL    HW131016   5.535   0.449   3.761 -0.1457 -1.6892 -0.7599
10207SOL    HW231017   5.464   0.512   3.879  2.7705  2.4652 -0.9902
10208SOL     OW31018   0.661   5.145   4.937 -0.3559  0.0254 -0.4376
10208SOL    HW131019   0.594   5.162   4.871  0.2549  1.9638 -0.6376
10208SOL    HW231020   0.642   5.058   4.970 -2.1881  0.0251 -1.4026
10209SOL     OW31021   4.491   1.167   6.108  0.2382  0.1886 -0.2737
10209SOL    HW131022   4.538   1.170   6.025 -0.4785  0.3575 -0.6844
10209SOL    HW231023   4.552   1.126   6.169  0.1501 -1.5879 -1.3001
10210SOL     OW31024   3.955   0.025   6.463  0.3888  0.2893  0.0398
10210SOL    HW131025   3.888  -0.029   6.423 -0.3170 -0.0305  1.5840
10210SOL    HW231026   3.962   0.102   6.406  0.7218 -0.9428 -1.6489
10211SOL     OW31027   4.764   2.341   4.867  0.1965 -0.3691  0.1275
10211SOL    HW131028   4.798   2.373   4.951  1.7760  0.0066 -0.6212
10211SOL    HW231029   4.745   2.421   4.818 -0.3400 -0.5882 -0.0218
10212SOL     OW31030   4.025   0.735   6.290 -0.0242 -0.7966  0.1153
10212SOL    HW131031   4.050   0.807   6.347  0.4414 -1.4152  0.7095
10212SOL    HW231032   3.930   0.726   6.302  0.1083 -1.1035  1.0282
10213SOL     OW31033   3.207   3.133   4.741  0.1648 -0.4913  0.1189
10213SOL    HW131034   3.265   3.198   4.781 -0.9716  0.8251 -0.2631
10213SOL    HW231035   3.225   3.139   4.647 -1.7600  1.2578 -0.2193
10214SOL     OW31036   1.187   6.746   5.065 -0.4518 -0.4291  0.6876
10214SOL    HW131037   1.202   6.788   4.981  0.6455 -2.1822 -0.0661
10214SOL    HW231038   1.098   6.711   5.059  0.1372 -1.8559 -0.4143
10215SOL     OW31039   0.245   1.834   5.735  0.1106 -0.3990  0.3471
10215SOL    HW131040   0.327   1.839   5.784 -0.6244 -0.4180  1.6275
10215SOL    HW231041   0.218   1.926   5.727  1.4220 -0.1554 -2.2002
10216SOL     OW31042   5.461   0.225   0.230  0.3265 -0.0769 -0.1105
10216SOL    HW131043   5.556   0.235   0.232  0.5306 -1.6573 -0.1014
10216SOL    HW231044   5.429   0.300   0.180  1.3025  2.0670  2.2956
10217SOL     OW31045   5.213   6.000   4.338 -0.0190 -0.2746  0.8117
10217SOL    HW131046   5.122   6.019   4.358 -0.2332  0.3172 -0.6088
10217SOL    HW231047   5.262   6.067   4.384 -0.5555  1.6193 -1.2104
10218SOL     OW31048   4.413   2.097   6.543 -0.5259  0.0729  0.0514
10218SOL    HW131049   4.411   2.130   6.453  0.1505 -1.0479 -0.3907
10218SOL    HW231050   4.481   2.149   6.586  1.3495 -1.4530 -0.9532
10219SOL     OW31051   0.765   6.442   5.989 -0.0419 -0.1099  0.1379
10219SOL    HW131052   0.705   6.397   6.049 -0.5476  1.0139  0.5038
10219SOL    HW231053   0.711   6.463   5.913  0.4097 -0.8509 -0.4089
10220SOL     OW31054   4.779   5.449   6.631  0.1747 -0.2662 -0.1562
10220SOL    HW131055   4.697   5.466   6.678 -0.2936 -1.8997 -0.3260
10220SOL    HW231056   4.752   5.431   6.542  1.1463  4.2106 -1.6227
10221SOL     OW31057   3.772   1.096   4.023  0.0140 -0.2770 -0.4531
10221SOL    HW131058   3.698   1.114   3.964  0.0055  0.2972 -0.2693
10221SOL    HW231059   3.736   1.034   4.087 -0.4473  0.3534 -0.0911
10222SOL     OW31060   0.504   4.321   2.452 -0.5802 -0.6691  0.8258
10222SOL    HW131061   0.537   4.241   2.412 -0.3155 -0.6588  1.0190
10222SOL    HW231062   0.531   4.315   2.544 -0.9173 -0.5514  0.9361
10223SOL     OW31063   0.850   2.959   5.683  0.5463  0.3715 -0.8616
10223SOL    HW131064   0.805   3.038   5.655 -0.6324 -0.3039 -0.9526
10223SOL    HW231065   0.809   2.889   5.632  1.0699 -0.3808 -0.2720
10224SOL     OW31066   5.756   3.619   3.396  0.2494 -0.9575 -0.0663
10224SOL    HW131067   5.718   3.696   3.352 -0.0791 -1.2571 -0.3066
10224SOL    HW231068   5.708   3.613   3.478 -0.0716 -1.2099 -0.2748
10225SOL     OW31069   0.644   2.013   0.826  0.2395  0.2064 -0.2221
10225SOL    HW131070   0.570   1.960   0.857  1.8317 -1.9763  0.0682
10225SOL    HW231071   0.684   2.047   0.907  0.3567  0.2257 -0.2883
10226SOL     OW31072   6.731   4.593   0.707 -0.3872  0.0465  0.6685
10226SOL    HW131073   6.794   4.525   0.684 -0.0793  0.4200  0.3887
10226SOL    HW231074   6.689   4.561   0.786 -0.4323 -0.5920  0.3966
10227SOL     OW31075   2.028   4.887   4.629 -0.2982  0.0085 -0.2323
10227SOL    HW131076   2.040   4.818   4.694  2.5851  2.1044  1.7073
10227SOL    HW231077   2.098   4.871   4.565 -1.2667 -0.3066 -1.2489
10228SOL     OW31078   4.660   2.165   2.737 -0.1952  0.1441 -0.2061
10228SOL    HW131079   4.651   2.148   2.643  0.1646  1.0112 -0.4023
10228SOL    HW231080   4.589   2.114   2.777 -0.4978 -0.0454 -0.9634
10229SOL     OW31081   1.146   5.483   2.070  0.1750  0.4820  0.4612
10229SOL    HW131082   1.192   5.552   2.023  0.6384 -0.6814 -0.8815
10229SOL    HW231083   1.118   5.523   2.152  2.7752  1.5023  0.9283
10230SOL     OW31084   5.231   6.493   4.275  0.5621 -0.3242  0.2540
10230SOL    HW131085   5.144   6.518   4.242  0.8983 -1.2942 -1.5248
10230SOL    HW231086   5.291   6.555   4.234  0.7635  0.1435  1.2299
10231SOL     OW31087   6.835   5.125   1.656 -0.9264 -0.2915  0.0228
10231SOL    HW131088   6.878   5.047   1.691 -0.6614 -1.0270 -1.8246
10231SOL    HW231089   6.857   5.195   1.719  0.6077 -1.2418  0.6026
10232SOL     OW31090   5.207   1.021   4.647 -0.6690  0.2811  0.4637
10232SOL    HW131091   5.196   1.047   4.739 -0.2718  0.6523  0.4118
10232SOL    HW231092   5.129   1.056   4.603 -0.4499  0.8457  0.5113
10233SOL     OW31093   4.268   2.533   6.654  0.0590  0.1890 -0.0242
10233SOL    HW131094   4.274   2.506   6.562 -2.2849 -0.1822 -0.1310
10233SOL    HW231095   4.304   2.622   6.654  2.2394 -0.6191 -0.8123
10234SOL     OW31096   6.888   0.690   1.017 -0.0957 -0.1862 -0.6220
10234SOL    HW131097   6.836   0.610   1.023 -0.6959  0.3176  1.3623
10234SOL    HW231098   6.831   0.759   1.050  1.1821  0.6994 -0.1733
10235SOL     OW31099   6.520   2.449   4.157  0.2651 -0.1851 -0.0386
10235SOL    HW131100   6.533   2.507   4.232  1.7998 -0.7416  0.1594
10235SOL    HW231101   6.432   2.413   4.170 -0.0296  0.7591  0.7500
10236SOL     OW31102   6.255   6.482   4.280 -0.3648  0.3187 -0.3786
10236SOL    HW131103   6.297   6.558   4.320  0.9713 -0.7708  0.3840
10236SOL    HW231104   6.280   6.486   4.187 -2.7897  2.3967 -1.0483
10237SOL     OW31105   2.111   3.925   6.018 -0.2303 -0.4767 -0.2836
10237SOL    HW131106   2.159   3.943   6.098 -0.0841  0.6995 -0.6006
10237SOL    HW231107   2.068   3.841   6.033  1.3413 -1.2233  0.2734
10238SOL     OW31108   2.575   2.095   2.589  0.1339 -0.2287  0.4539
10238SOL    HW131109   2.557   2.123   2.679 -1.4001  1.4340 -0.2993
10238SOL    HW231110   2.506   2.031   2.570  1.0900 -1.3833  0.7726
10239SOL     OW31111   0.481   1.999   3.108 -0.2962 -0.4679  1.0951
10239SOL    HW131112   0.422   2.058   3.155 -0.3282 -0.2078  0.7346
10239SOL    HW231113   0.564   2.046   3.104 -0.9376  0.6225 -1.2487
10240SOL     OW31114   3.831   5.487   0.758  0.4811  0.2966  0.2148
10240SOL    HW131115   3.870   5.436   0.686 -0.5075  0.1879 -0.2732
10240SOL    HW231116   3.758   5.534   0.716 -1.1082 -0.9681  1.4083
10241SOL     OW31117   4.897   5.204   1.526 -0.3484  0.5355  0.2617
10241SOL    HW131118   4.845   5.151   1.586 -0.4490  0.8678  0.4739
10241SOL    HW231119   4.853   5.289   1.526  0.0621  0.7495  0.2631
10242SOL     OW31120   4.121   3.208   5.311  0.0027  0.7310 -0.5774
10242SOL    HW131121   4.120   3.301   5.291 -0.6337  0.9154  0.2450
10242SOL    HW231122   4.179   3.170   5.245  2.1012  2.0044  0.4004
10243SOL     OW31123   4.711   1.919   1.976 -0.6421 -0.1859  0.5867
10243SOL    HW131124   4.746   1.942   1.890 -0.6755  2.6915  1.2228
10243SOL    HW231125   4.664   1.837   1.962  2.0423 -1.5141 -1.3777
10244SOL     OW31126   4.237   4.099   5.525 -0.2309 -0.3450  0.1657
10244SOL    HW131127   4.144   4.077   5.519  0.1228 -1.5311 -2.4883
10244SOL    HW231128   4.239   4.187   5.563 -2.4309 -0.2420  0.1698
10245SOL     OW31129   2.865   3.313   2.144 -0.1631 -0.1228  0.3855
10245SOL    HW131130   2.924   3.238   2.137 -1.6128 -1.1671 -1.2290
10245SOL    HW231131   2.918   3.381   2.185  1.4461 -1.7427  1.1315
10246SOL     OW31132   3.169   1.690   0.364 -0.0793  0.1836 -0.8791
10246SOL    HW131133   3.201   1.761   0.419  0.2871  0.1195 -1.0063
10246SOL    HW231134   3.075   1.686   0.382 -0.5244  2.1373 -2.4674
10247SOL     OW31135   1.495   5.994   2.747 -0.2439  0.3302  0.6193
10247SOL    HW131136   1.561   5.997   2.678 -0.7006  1.6200  0.2139
10247SOL    HW231137   1.423   5.942   2.709  0.5463 -1.1556  1.0982
10248SOL     OW31138   2.975   4.187   2.330  0.1873  0.6897 -0.4946
10248SOL    HW131139   3.016   4.193   2.243 -1.5613 -1.9090 -1.6062
10248SOL    HW231140   3.041   4.143   2.384 -0.3088 -1.7847 -1.7790
10249SOL     OW31141   1.156   1.209   2.246  0.1217 -0.2695 -0.1681
10249SOL    HW131142   1.070   1.168   2.254  0.0536 -0.1415 -0.2384
10249SOL    HW231143   1.166   1.261   2.325  0.5234 -1.0060  0.2770
10250SOL     OW31144   3.057   1.137   3.894 -0.1122 -0.2304  0.4092
10250SOL    HW131145   3.059   1.049   3.855 -0.4498 -0.7428  1.5056
10250SOL    HW231146   2.983   1.135   3.955 -2.1797  1.8379 -1.8057
10251SOL     OW31147   2.473   5.707   2.088 -0.8978  0.1342 -0.6361
10251SOL    HW131148   2.506   5.786   2.045 -1.7985  0.8207 -0.1306
10251SOL    HW231149   2.508   5.711   2.177 -0.7050 -0.1909 -0.6971
10252SOL     OW31150   2.487   5.110   3.334 -0.3255  0.0455  0.4084
10252SOL    HW131151   2.448   5.072   3.412 -1.0829 -0.8526 -0.3982
10252SOL    HW231152   2.414   5.123   3.273 -0.0896  2.6260  0.5500
10253SOL     OW31153   6.526   6.728   5.312 -0.2033  0.1451 -0.1210
10253SOL    HW131154   6.605   6.760   5.268 -0.0804  0.0765  0.0497
10253SOL    HW231155   6.493   6.658   5.255  0.4688 -0.5729  0.3491
10254SOL     OW31156   4.072   1.806   5.264 -0.2129  0.6830  0.1925
10254SOL    HW131157   3.991   1.851   5.241  0.4089  1.5803 -0.3224
10254SOL    HW231158   4.067   1.722   5.218 -2.0973 -0.5180  2.4040
10255SOL     OW31159   1.030   1.420   3.855  0.4318 -0.0797  0.1512
10255SOL    HW131160   1.062   1.334   3.825 -1.4872 -1.0626  0.7726
10255SOL    HW231161   0.944   1.429   3.815  0.4903  1.4760  0.3141
10256SOL     OW31162   6.410   3.063   1.336  0.8172  0.3379  0.1690
10256SOL    HW131163   6.357   3.103   1.267 -0.4387  0.0420  0.9235
10256SOL    HW231164   6.444   2.983   1.297  2.3018  1.4662 -0.9413
10257SOL     OW31165   4.579   5.870   4.870  0.0975  0.1763  0.0984
10257SOL    HW131166   4.539   5.871   4.783  1.0366 -0.3652 -0.3505
10257SOL    HW231167   4.505   5.873   4.930 -0.5548  0.9722 -0.7120
10258SOL     OW31168   3.784   4.089   3.575 -0.1182  0.0610 -0.1498
10258SOL    HW131169   3.838   4.145   3.520 -0.4205  0.1846 -0.3226
10258SOL    HW231170   3.721   4.050   3.515 -1.3972  1.3249  0.3161
10259SOL     OW31171   1.591   5.352   0.251 -0.5756  0.5165  0.0023
10259SOL    HW131172   1.534   5.429   0.241 -1.5148 -0.4316 -3.7726
10259SOL    HW231173   1.639   5.348   0.168  2.2467 -0.9209  1.5804
10260SOL     OW31174   4.661   2.665   3.428  1.0579 -0.2456 -0.0463
10260SOL    HW131175   4.623   2.652   3.341  1.0172  1.6427 -0.3625
10260SOL    HW231176   4.725   2.595   3.438 -0.9225 -2.1837 -0.4045
10261SOL     OW31177   5.506   2.628   5.720  0.4940  0.8229  0.1894
10261SOL    HW131178   5.489   2.535   5.728  2.6012  0.3291 -0.2687
10261SOL    HW231179   5.565   2.635   5.644 -0.5776  2.6639 -0.5340
10262SOL     OW31180   4.514   0.655   5.112 -0.3479 -0.0110  0.7815
10262SOL    HW131181   4.600   0.637   5.074 -0.5244  2.8339 -1.2867
10262SOL    HW231182   4.451   0.622   5.048 -0.8703 -1.6754  2.0791
10263SOL     OW31183   4.975   5.114   3.013 -0.1215 -0.2964 -0.5814
10263SOL    HW131184   5.070   5.129   3.006  0.0541 -1.1445 -0.1326
10263SOL    HW231185   4.937   5.202   3.006  0.7175  0.1049 -0.3328
10264SOL     OW31186   3.886   0.666   4.746 -0.3761 -0.3414  0.1419
10264SOL    HW131187   3.805   0.717   4.754  0.2378  0.7540 -0.3688
10264SOL    HW231188   3.940   0.695   4.819  1.6271  2.9412 -2.3519
10265SOL     OW31189   0.651   4.541   3.312 -0.0124  0.5910 -0.2907
10265SOL    HW131190   0.725   4.520   3.368  0.1077  0.5609 -0.4587
10265SOL    HW231191   0.621   4.627   3.342 -0.9248 -0.0908  0.8394
10266SOL     OW31192   2.432   2.559   1.017 -0.5405  0.0708  0.1493
10266SOL    HW131193   2.451   2.650   1.042 -0.6259 -0.4285  2.1878
10266SOL    HW231194   2.397   2.519   1.097 -0.7162 -1.7067 -0.7742
10267SOL     OW31195   0.235   5.212   0.806 -0.3909 -0.0907  0.3004
10267SOL    HW131196   0.264   5.257   0.726 -0.7679 -0.5972 -0.1216
10267SOL    HW231197   0.177   5.275   0.849  0.3362  0.4476  0.5267
10268SOL     OW31198   1.949   0.235   2.976  0.0440  0.0166 -0.1359
10268SOL    HW131199   1.931   0.162   2.917  1.8915  1.3131 -2.5032
10268SOL    HW231200   2.005   0.198   3.044  0.0976 -0.9971 -0.7186
10269SOL     OW31201   4.144   2.931   4.081 -0.0136 -0.1392 -0.1204
10269SOL    HW131202   4.166   2.960   3.993 -1.4314 -1.1198 -0.8467
10269SOL    HW231203   4.057   2.892   4.072  0.7363 -2.3107  1.2562
10270SOL     OW31204   4.094   3.720   6.860  0.0911  0.0682  0.3374
10270SOL    HW131205   4.153   3.734   6.934 -1.2774  0.0012  1.4941
10270SOL    HW231206   4.014   3.767   6.884 -0.7387 -0.7775 -0.6594
10271SOL     OW31207   4.461   5.575   4.961 -0.0366  0.0831  0.0785
10271SOL    HW131208   4.410   5.563   4.881 -0.1899 -0.5711  0.2661
10271SOL    HW231209   4.425   5.654   5.002 -1.1558 -0.5766  0.3962
10272SOL     OW31210   1.141   3.608   3.520  0.2185  0.0404  0.7434
10272SOL    HW131211   1.176   3.687   3.562 -0.0031  0.1705  0.6848
10272SOL    HW231212   1.199   3.592   3.445  0.6593 -0.2327  1.1365
10273SOL     OW31213   6.422   1.639   4.709 -0.1875 -0.3036 -0.7576
10273SOL    HW131214   6.332   1.625   4.739  0.7844 -0.5368  2.4599
10273SOL    HW231215   6.470   1.563   4.742  1.0824 -0.7644 -3.3851
10274SOL     OW31216   5.505   2.739   4.653  0.1894 -0.0508 -0.6591
10274SOL    HW131217   5.538   2.702   4.571  0.6644 -0.9698 -0.0726
10274SOL    HW231218   5.410   2.733   4.646  0.2346 -0.3422 -1.0422
10275SOL     OW31219   4.360   5.637   2.493 -0.2224  0.9059  0.5925
10275SOL    HW131220   4.304   5.564   2.467 -2.1973  2.0721  1.3722
10275SOL    HW231221   4.408   5.604   2.569 -1.7862  0.6668  1.5221
10276SOL     OW31222   6.172   1.756   0.484 -0.0460 -0.0777  0.0269
10276SOL    HW131223   6.105   1.813   0.448 -0.3674  0.2177  1.0560
10276SOL    HW231224   6.233   1.742   0.411 -1.3740 -0.6262 -1.0261
10277SOL     OW31225   6.030   4.181   2.051  0.5088  0.8477 -0.3822
10277SOL    HW131226   6.124   4.199   2.058  1.3296 -3.0775  0.8503
10277SOL    HW231227   6.009   4.131   2.130 -2.1098 -0.2269 -1.6520
10278SOL     OW31228   5.084   1.856   1.159  0.3357 -0.3828  0.2540
10278SOL    HW131229   5.146   1.895   1.098 -0.7188  1.2573  0.1813
10278SOL    HW231230   5.110   1.890   1.245 -0.3157  0.1323  0.2511
10279SOL     OW31231   4.758   3.355   6.261 -0.3759 -0.1247  0.1591
10279SOL    HW131232   4.833   3.296   6.255 -1.2214 -1.0499 -3.0116
10279SOL    HW231233   4.683   3.298   6.275 -0.8566  0.4987  0.1668
10280SOL     OW31234   1.428   0.797   4.885  0.2286 -0.6259 -0.3337
10280SOL    HW131235   1.423   0.718   4.939 -0.4501 -2.6214 -3.0716
10280SOL    HW231236   1.359   0.854   4.918  1.1483 -0.8425  2.1228
10281SOL     OW31237   1.113   2.513   4.769 -0.6719 -0.1234  0.0036
10281SOL    HW131238   1.148   2.519   4.680 -2.5044 -0.4452 -0.7938
10281SOL    HW231239   1.159   2.440   4.809  1.0803  0.8164 -0.2149
10282SOL     OW31240   0.157   0.205   0.636  0.0578 -0.1500  0.1007
10282SOL    HW131241   0.137   0.236   0.725 -0.4847  0.6049 -0.2706
10282SOL    HW231242   0.242   0.244   0.616 -0.2273  0.4275 -0.0341
10283SOL     OW31243   2.663   4.869   0.889  0.1012 -0.7559 -0.1663
10283SOL    HW131244   2.582   4.858   0.939 -1.1659 -0.2849 -2.0307
10283SOL    HW231245   2.707   4.784   0.896  0.2289 -0.5543  2.1213
10284SOL     OW31246   6.524   0.562   0.575  0.1160 -0.4466  0.4054
10284SOL    HW131247   6.592   0.563   0.508  1.5040  1.3345  1.7171
10284SOL    HW231248   6.545   0.486   0.630  1.2400  0.2314  0.9424
10285SOL     OW31249   4.885   2.648   1.368  0.0889 -0.2899 -0.8069
10285SOL    HW131250   4.819   2.598   1.416  0.4235 -0.4449 -0.5087
10285SOL    HW231251   4.968   2.603   1.387  0.3859  0.3500 -0.5725
10286SOL     OW31252   5.900   1.175   0.211  0.2094  0.0803  0.0386
10286SOL    HW131253   5.964   1.142   0.148  1.9792  0.0224  1.7798
10286SOL    HW231254   5.914   1.122   0.290 -4.4057 -2.4300 -0.4803
10287SOL     OW31255   0.241   3.293   5.941 -0.0135  0.5133  0.3645
10287SOL    HW131256   0.230   3.377   5.986  2.2843  1.8555 -1.3622
10287SOL    HW231257   0.152   3.267   5.916 -0.7757  2.4620  0.9054
10288SOL     OW31258   4.367   1.854   3.915 -0.1859  0.0579 -0.4769
10288SOL    HW131259   4.407   1.914   3.853 -0.4574 -0.1832 -0.8898
10288SOL    HW231260   4.282   1.833   3.876 -0.0500 -0.6738 -0.3886
10289SOL     OW31261   6.177   5.251   3.542 -0.0065 -0.0275  0.2504
10289SOL    HW131262   6.146   5.241   3.452  0.5305 -0.3807  0.1005
10289SOL    HW231263   6.099   5.274   3.592 -0.4233 -0.4633 -0.1927
10290SOL     OW31264   2.713   0.276   3.549  0.3502 -0.2696  0.0173
10290SOL    HW131265   2.691   0.330   3.625 -1.6793 -1.0181  0.0147
10290SOL    HW231266   2.795   0.233   3.574  0.2994  0.3318  1.3240
10291SOL     OW31267   3.210   3.493   2.090 -0.4604 -0.3114 -0.4384
10291SOL    HW131268   3.269   3.426   2.125 -0.1162  0.4286  0.4312
10291SOL    HW231269   3.198   3.468   1.998 -0.1167 -1.3997 -0.2085
10292SOL     OW31270   1.566   0.075   3.989  0.6138 -0.1476 -0.1400
10292SOL    HW131271   1.589   0.166   3.973 -0.1387 -0.2311 -1.9862
10292SOL    HW231272   1.496   0.078   4.054 -0.8509  0.7932 -1.6607
10293SOL     OW31273   2.026   5.885   3.349 -0.2923  0.2315  0.0164
10293SOL    HW131274   2.081   5.960   3.374 -0.3204 -0.3380  1.9709
10293SOL    HW231275   1.957   5.923   3.296  1.0255  1.2233 -1.0570
10294SOL     OW31276   0.880   0.283   0.971 -0.0905  0.0904  0.3232
10294SOL    HW131277   0.935   0.279   1.049 -0.8748  0.2365  0.9001
10294SOL    HW231278   0.941   0.298   0.899  0.7213 -0.7961  0.8024
10295SOL     OW31279   2.133   6.117   6.090 -0.0091  0.9371 -0.1862
10295SOL    HW131280   2.161   6.165   6.168  2.3404  0.6450 -0.7902
10295SOL    HW231281   2.116   6.028   6.121 -1.6596  1.4142  0.4149
10296SOL     OW31282   0.965   4.130   6.201 -0.0829 -0.1461 -0.2534
10296SOL    HW131283   0.909   4.152   6.126  0.0914 -1.1215 -0.6862
10296SOL    HW231284   0.978   4.213   6.246 -2.4234  0.0289  0.2453
10297SOL     OW31285   5.564   4.102   1.170  0.1991 -0.3535 -0.2929
10297SOL    HW131286   5.631   4.170   1.167  0.9491 -1.0594 -0.0977
10297SOL    HW231287   5.546   4.091   1.264 -0.3632 -0.0033 -0.3588
10298SOL     OW31288   2.179   4.199   1.634 -0.0716  0.0093  0.0261
10298SOL    HW131289   2.233   4.276   1.619 -0.4227  0.1339 -0.6292
10298SOL    HW231290   2.101   4.232   1.679  0.2433 -0.1246  0.6882
10299SOL     OW31291   3.055   6.041   5.947  0.0703  0.0295  0.0801
10299SOL    HW131292   2.972   5.997   5.929 -1.0781  0.6823  3.2414
10299SOL    HW231293   3.099   5.983   6.010  0.6470  1.0985  0.6818
10300SOL     OW31294   2.863   1.643   0.830  0.4997  0.3231 -0.3337
10300SOL    HW131295   2.909   1.569   0.871  0.1364 -0.8216 -1.8828
10300SOL    HW231296   2.879   1.717   0.889  1.1433 -0.9102  1.1135
10301SOL     OW31297   1.561   5.938   4.145 -0.0284 -0.4751  0.1708
10301SOL    HW131298   1.638   5.994   4.156 -0.7524  0.3723  1.2337
10301SOL    HW231299   1.570   5.870   4.211  0.1445 -0.7894 -0.1718
10302SOL     OW31300   2.332   0.457   6.013 -0.0812 -0.0458 -0.4946
10302SOL    HW131301   2.386   0.529   5.981 -0.5355  0.3917 -0.2876
10302SOL    HW231302   2.243   0.493   6.017 -0.2956 -0.5839 -0.2935
10303SOL     OW31303   0.877   0.262   5.947 -0.0724  0.2071 -0.0874
10303SOL    HW131304   0.876   0.192   5.882 -1.3125  0.4925 -0.3910
10303SOL    HW231305   0.905   0.340   5.899  0.0126  0.2046 -0.0426
10304SOL     OW31306   4.862   0.632   5.673  0.0312 -0.5423  0.3067
10304SOL    HW131307   4.818   0.709   5.709  1.7229  0.0681  1.1724
10304SOL    HW231308   4.795   0.564   5.676 -1.7774  1.0577 -1.2982
10305SOL     OW31309   5.340   1.526   0.366 -0.0089 -0.2785  0.1198
10305SOL    HW131310   5.410   1.476   0.407  1.5633  1.3494 -0.4022
10305SOL    HW231311   5.360   1.522   0.272 -0.5134  0.3219 -0.0205
10306SOL     OW31312   0.923   0.516   1.184 -0.5245 -0.4784 -0.5680
10306SOL    HW131313   0.880   0.578   1.125  0.1874 -0.6486 -1.2807
10306SOL    HW231314   0.998   0.484   1.135 -0.5791 -1.5146 -0.0132
10307SOL     OW31315   2.738   5.975   0.112 -0.4096 -0.0423 -1.1874
10307SOL    HW131316   2.738   5.984   0.016  0.2946 -0.5374 -1.2411
10307SOL    HW231317   2.781   6.055   0.143 -0.8042  0.2062 -1.2683
10308SOL     OW31318   3.192   2.551   0.209 -0.0423  0.0259 -0.1307
10308SOL    HW131319   3.278   2.593   0.213 -0.5387  0.9981  0.9429
10308SOL    HW231320   3.137   2.612   0.161 -0.3522 -0.1735 -0.0363
10309SOL     OW31321   5.871   4.638   6.252 -0.3157  0.0851  0.5261
10309SOL    HW131322   5.833   4.653   6.339  1.2105  1.0616  1.0594
10309SOL    HW231323   5.839   4.551   6.227 -0.4367 -0.4075  2.2571
10310SOL     OW31324   2.767   0.612   3.492  0.1654  0.2509 -0.4319
10310SOL    HW131325   2.705   0.592   3.423 -0.6915 -0.1492  0.4306
10310SOL    HW231326   2.805   0.696   3.467 -2.8533  2.0066  0.4148
10311SOL     OW31327   0.179   4.134   5.235 -0.3448 -0.5440  0.1131
10311SOL    HW131328   0.163   4.151   5.327 -1.7905  1.9147 -0.4874
10311SOL    HW231329   0.226   4.212   5.204 -0.7274 -0.8747 -1.4131
10312SOL     OW31330   0.571   3.293   4.928 -0.0820  0.5005  0.3007
10312SOL    HW131331   0.497   3.321   4.874 -0.8738  0.3715  1.2878
10312SOL    HW231332   0.561   3.342   5.009  0.1961 -0.4402  0.9166
10313SOL     OW31333   6.189   0.912   1.685 -0.5080 -0.1182 -0.5451
10313SOL    HW131334   6.160   0.988   1.736 -1.4632  0.9143 -2.5012
10313SOL    HW231335   6.184   0.839   1.747 -0.8382  1.1798  1.0453
10314SOL     OW31336   6.853   3.940   1.392  0.7321 -0.0701 -0.3014
10314SOL    HW131337   6.792   4.013   1.396  1.6276  0.6260  1.6247
10314SOL    HW231338   6.934   3.977   1.360  0.5809 -0.7028 -1.4689
10315SOL     OW31339   0.428   3.443   5.375 -0.2474  0.4613  0.2486
10315SOL    HW131340   0.416   3.534   5.402 -2.8295  0.7624 -1.5395
10315SOL    HW231341   0.407   3.392   5.453  0.6688  1.3491  1.1117
10316SOL     OW31342   5.738   6.852   0.996  0.3308 -0.7207 -0.3566
10316SOL    HW131343   5.799   6.791   1.037 -0.1542 -0.7728  0.3108
10316SOL    HW231344   5.725   6.921   1.061  0.2782 -0.3036 -0.7999
10317SOL     OW31345   0.362   1.270   2.649 -0.2549  0.0561 -0.1154
10317SOL    HW131346   0.291   1.213   2.618 -0.9713  0.9520 -0.1476
10317SOL    HW231347   0.416   1.285   2.571 -0.7467  0.3992 -0.4005
10318SOL     OW31348   2.504   5.906   1.097  0.1500 -0.1534 -0.3576
10318SOL    HW131349   2.503   5.999   1.076 -0.8981 -0.0391  0.1279
10318SOL    HW231350   2.497   5.861   1.013  0.1188  0.2128 -0.5491
10319SOL     OW31351   6.552   4.598   3.060 -0.8213 -0.6582 -0.1817
10319SOL    HW131352   6.539   4.654   3.136 -0.4191 -0.9904  0.1364
10319SOL    HW231353   6.472   4.546   3.055 -1.0844 -0.2474 -0.3229
10320SOL     OW31354   2.796   3.032   4.311 -0.6011 -0.1479 -0.7908
10320SOL    HW131355   2.767   3.056   4.223 -2.4401 -0.0727 -0.2184
10320SOL    HW231356   2.730   3.072   4.369 -0.3808 -1.5841  0.5070
10321SOL     OW31357   1.869   5.764   6.709  0.4510 -0.2323 -0.2211
10321SOL    HW131358   1.886   5.826   6.638 -3.3103  0.4722 -0.7220
10321SOL    HW231359   1.845   5.682   6.665 -2.0583  0.2510  0.1016
10322SOL     OW31360   6.799   0.503   2.793 -0.1057  0.1111 -0.0606
10322SOL    HW131361   6.856   0.528   2.720  0.0497 -0.5721 -0.1756
10322SOL    HW231362   6.828   0.559   2.866  0.4087  0.0885 -0.2423
10323SOL     OW31363   5.932   4.501   2.663 -0.1395 -0.1752  0.5423
10323SOL    HW131364   5.970   4.416   2.640 -0.9238 -0.2365 -0.6223
10323SOL    HW231365   5.955   4.514   2.755  0.9697 -1.1181  0.4231
10324SOL     OW31366   0.776   3.650   6.057  0.2576 -0.0898 -0.3520
10324SOL    HW131367   0.718   3.678   5.986  0.6118  0.2507 -0.5145
10324SOL    HW231368   0.738   3.568   6.088 -0.1611 -0.0058 -0.6285
10325SOL     OW31369   3.356   2.831   0.342  0.2750  0.2135  0.3310
10325SOL    HW131370   3.412   2.776   0.397  0.7418  0.7991  0.4511
10325SOL    HW231371   3.267   2.808   0.368  0.4809  0.0982  0.9616
10326SOL     OW31372   5.814   4.120   5.356 -0.0275  0.1277  0.3855
10326SOL    HW131373   5.863   4.180   5.410  1.4861  0.0033 -0.7923
10326SOL    HW231374   5.774   4.059   5.418  1.9390 -0.2345  1.3620
10327SOL     OW31375   2.210   2.067   4.619  0.5232 -0.7128 -0.8035
10327SOL    HW131376   2.133   2.092   4.567  0.6865  2.4983  0.2728
10327SOL    HW231377   2.281   2.121   4.585  1.4643 -1.1115  0.4407
10328SOL     OW31378   5.161   1.765   3.320  0.7721 -0.7695 -0.0735
10328SOL    HW131379   5.222   1.691   3.325  0.3425 -1.0283  2.5423
10328SOL    HW231380   5.218   1.842   3.310  1.2911 -1.2927 -1.4074
10329SOL     OW31381   4.437   4.747   1.034  0.6361 -0.4296 -0.6189
10329SOL    HW131382   4.364   4.685   1.028  1.0712 -1.0249  0.0508
10329SOL    HW231383   4.467   4.758   0.944 -0.6558  0.2940 -0.9817
10330SOL     OW31384   3.268   5.777   3.751  0.3999 -0.3548 -0.2645
10330SOL    HW131385   3.353   5.746   3.784 -0.4636 -0.7984  1.6860
10330SOL    HW231386   3.234   5.702   3.702  0.8914 -0.3708 -0.5914
10331SOL     OW31387   3.305   1.915   5.251  0.0735 -0.1120  0.3892
10331SOL    HW131388   3.373   1.847   5.248  1.9948  1.6201  1.7940
10331SOL    HW231389   3.300   1.947   5.161 -0.3525 -1.5678 -0.1407
10332SOL     OW31390   6.446   6.218   2.087  0.2534 -0.1279 -0.0988
10332SOL    HW131391   6.445   6.294   2.145  1.2830  0.7149 -1.1372
10332SOL    HW231392   6.431   6.143   2.145 -0.5245  0.8294  0.9764
10333SOL     OW31393   1.409   0.400   5.674 -0.7162  0.6533  0.1079
10333SOL    HW131394   1.451   0.351   5.603  0.8319  0.3207  1.2088
10333SOL    HW231395   1.418   0.492   5.647 -1.3159  0.4855 -0.7222
10334SOL     OW31396   3.815   4.821   6.022 -0.3962 -0.0666 -0.2191
10334SOL    HW131397   3.764   4.748   5.987  1.8395 -1.1725 -1.4371
10334SOL    HW231398   3.807   4.890   5.956  0.1305 -0.4654 -0.7131
10335SOL     OW31399   4.705   5.197   5.817  0.1435 -0.1402  0.2409
10335SOL    HW131400   4.701   5.170   5.725 -0.5327 -1.1735  0.5600
10335SOL    HW231401   4.703   5.115   5.866  2.9080  0.2235  1.1649
10336SOL     OW31402   5.356   5.008   0.157 -0.0533 -0.1838  0.1455
10336SOL    HW131403   5.350   5.085   0.101 -1.3396 -1.2029 -1.1992
10336SOL    HW231404   5.450   4.996   0.173  0.2805  0.6052 -1.1445
10337SOL     OW31405   5.551   3.987   4.586  0.4766 -0.0243  0.0724
10337SOL    HW131406   5.635   4.017   4.621  0.6406  1.7847 -1.7143
10337SOL    HW231407   5.573   3.935   4.509  0.0138 -1.6274  0.9805
10338SOL     OW31408   5.798   2.626   6.272  0.1790  0.2972 -0.1880
10338SOL    HW131409   5.779   2.651   6.181 -2.0085 -0.7813 -0.1110
10338SOL    HW231410   5.861   2.554   6.264  0.8426  0.9311 -0.7794
10339SOL     OW31411   5.020   6.639   5.463  0.4930  0.1185 -0.2765
10339SOL    HW131412   4.963   6.713   5.484  0.8222  0.0401  0.9587
10339SOL    HW231413   5.061   6.616   5.546  1.9527 -0.1473 -1.0363
10340SOL     OW31414   1.489   4.341   0.215 -0.2413  1.0424 -0.1419
10340SOL    HW131415   1.553   4.348   0.144 -0.8482 -3.3782 -1.4070
10340SOL    HW231416   1.541   4.316   0.292 -0.2273 -1.6398 -0.9493
10341SOL     OW31417   2.177   1.722   1.990 -0.4601  0.5378 -0.4085
10341SOL    HW131418   2.148   1.640   2.030 -0.7415  0.9028  0.1551
10341SOL    HW231419   2.148   1.790   2.052 -1.9944  1.2177 -1.8003
10342SOL     OW31420   0.388   4.504   6.598 -0.0722 -0.1750 -0.0694
10342SOL    HW131421   0.475   4.471   6.623  0.7952  0.2513 -2.2821
10342SOL    HW231422   0.341   4.427   6.567  1.0323  0.1097 -2.7429
10343SOL     OW31423   3.964   6.835   3.174  0.3925  0.7578 -0.1651
10343SOL    HW131424   3.989   6.896   3.104 -1.3886  3.0074  1.0126
10343SOL    HW231425   3.953   6.891   3.251 -0.5077 -1.2199  1.2156
10344SOL     OW31426   2.642   4.468   2.106 -0.2582  0.1306  0.2200
10344SOL    HW131427   2.707   4.508   2.049 -0.5589  0.1790 -0.0938
10344SOL    HW231428   2.693   4.423   2.173  0.0897  1.0393  0.5839
10345SOL     OW31429   2.179   6.204   2.881 -0.1291  0.3087  0.1068
10345SOL    HW131430   2.189   6.153   2.801 -0.9643  4.1952 -2.8297
10345SOL    HW231431   2.264   6.199   2.924  1.6377  0.8463 -3.0012
10346SOL     OW31432   6.711   6.163   2.072  0.3786 -0.0551  0.5711
10346SOL    HW131433   6.619   6.190   2.076  0.6683  0.8633  1.5941
10346SOL    HW231434   6.727   6.144   1.980 -0.6440  0.4797  0.2680
10347SOL     OW31435   0.829   1.322   2.873  0.3323 -0.0957 -0.1341
10347SOL    HW131436   0.783   1.345   2.953 -0.5622  2.4940 -1.3081
10347SOL    HW231437   0.920   1.350   2.889  1.1310 -3.1134  1.3139
10348SOL     OW31438   3.164   6.434   4.252  0.1788 -0.6228 -0.4161
10348SOL    HW131439   3.242   6.389   4.218 -0.8667 -1.0231 -2.4230
10348SOL    HW231440   3.117   6.366   4.301  1.0491 -0.3835  0.7925
10349SOL     OW31441   1.019   2.526   3.844  0.2982  0.1511 -0.1216
10349SOL    HW131442   1.090   2.551   3.784  0.0136 -2.2484 -1.5956
10349SOL    HW231443   0.960   2.601   3.843  1.7998  1.3828 -0.4773
10350SOL     OW31444   0.919   3.219   0.258  0.3190  0.2740 -0.0247
10350SOL    HW131445   0.887   3.288   0.200  1.6092 -1.2992 -2.8175
10350SOL    HW231446   1.014   3.220   0.246  0.4468 -1.3751  0.5964
10351SOL     OW31447   5.466   5.997   1.870  0.1605  0.0450 -0.3462
10351SOL    HW131448   5.531   5.990   1.940 -0.0273 -0.3553 -0.2096
10351SOL    HW231449   5.495   5.935   1.803  0.3924  0.4972 -0.6691
10352SOL     OW31450   0.947   6.079   5.705 -0.0169 -0.2408  0.1522
10352SOL    HW131451   1.041   6.072   5.688  0.2011  0.7204  0.9122
10352SOL    HW231452   0.940   6.083   5.800 -0.9375 -1.6616  0.1622
10353SOL     OW31453   1.800   5.598   0.492  0.1625  0.0442  0.5599
10353SOL    HW131454   1.723   5.645   0.462  0.6099  0.2762 -0.2557
10353SOL    HW231455   1.874   5.644   0.453  0.6720 -0.6897  0.6241
10354SOL     OW31456   3.870   0.917   5.691 -0.0093  0.1496 -0.3029
10354SOL    HW131457   3.840   0.990   5.636  0.3259  1.4881  1.1907
10354SOL    HW231458   3.797   0.903   5.752  0.6180  0.4283  0.5218
10355SOL     OW31459   3.911   5.996   0.467 -0.4759  0.7431 -0.5574
10355SOL    HW131460   3.988   5.992   0.410  0.6144 -1.4722  0.9498
10355SOL    HW231461   3.884   6.088   0.464  2.4621  1.6817 -0.8304
10356SOL     OW31462   4.480   1.222   4.613  0.7599 -0.1921 -0.6870
10356SOL    HW131463   4.499   1.259   4.527  1.2107 -1.0742 -0.9845
10356SOL    HW231464   4.428   1.289   4.657  0.8938  0.4553 -1.4825
10357SOL     OW31465   5.644   4.425   4.069  0.2543  0.3470 -0.5275
10357SOL    HW131466   5.578   4.472   4.019 -1.8847  0.6547  2.2864
10357SOL    HW231467   5.628   4.332   4.050  0.1526  0.4945 -1.1668
10358SOL     OW31468   6.550   1.792   4.141  0.2277  0.5165  0.1990
10358SOL    HW131469   6.618   1.727   4.126 -0.7642 -0.5926  0.3416
10358SOL    HW231470   6.507   1.802   4.056 -0.8632 -0.4957  0.6012
10359SOL     OW31471   3.710   1.439   5.888 -0.3053  0.8435 -0.1110
10359SOL    HW131472   3.801   1.416   5.904 -0.3140  0.5261 -0.4970
10359SOL    HW231473   3.672   1.450   5.975 -1.0185 -3.4165  0.3452
10360SOL     OW31474   2.931   1.698   5.662 -0.4609 -0.2421  0.9456
10360SOL    HW131475   3.009   1.702   5.718  0.0210 -0.1829  0.2792
10360SOL    HW231476   2.941   1.617   5.613 -1.1626 -0.5721  1.3429
10361SOL     OW31477   1.265   5.694   0.078  0.0646 -0.0046 -0.1843
10361SOL    HW131478   1.289   5.787   0.079  0.0808  0.0034  1.5038
10361SOL    HW231479   1.170   5.694   0.066 -0.1227  0.3179  1.1010
10362SOL     OW31480   5.577   1.234   5.650  0.3643 -0.7405  0.1829
10362SOL    HW131481   5.531   1.153   5.630  0.5883 -1.2913  1.7914
10362SOL    HW231482   5.532   1.270   5.726 -0.9829  1.7062 -1.6413
10363SOL     OW31483   1.802   4.289   0.715  0.2396 -0.2438 -0.3856
10363SOL    HW131484   1.884   4.335   0.698  0.4808  0.4299  2.2202
10363SOL    HW231485   1.769   4.327   0.796 -2.5670 -0.6617 -1.2226
10364SOL     OW31486   3.714   5.698   3.237 -0.6977  0.1182 -0.1622
10364SOL    HW131487   3.637   5.746   3.208 -1.1954 -0.8526 -0.5053
10364SOL    HW231488   3.695   5.674   3.327 -0.9839 -0.4747 -0.3763
10365SOL     OW31489   2.764   0.082   2.925  0.7587 -0.6318  0.5371
10365SOL    HW131490   2.676   0.044   2.922  0.1304  0.7086 -2.6884
10365SOL    HW231491   2.823   0.007   2.915 -0.1579 -1.3021 -0.0346
10366SOL     OW31492   1.824   3.453   1.812  0.2174  0.0143 -0.6234
10366SOL    HW131493   1.908   3.439   1.855  0.5281  0.7684 -0.9578
10366SOL    HW231494   1.825   3.393   1.737  1.9570  2.3029 -2.6318
10367SOL     OW31495   0.842   6.515   0.593 -0.1908  0.2911 -0.7153
10367SOL    HW131496   0.796   6.461   0.528  0.5048  0.6138 -1.4870
10367SOL    HW231497   0.817   6.605   0.571  1.0584  0.5047 -1.3748
10368SOL     OW31498   6.091   1.642   0.049  0.3085 -0.2516  0.0989
10368SOL    HW131499   6.053   1.729   0.045 -0.4111 -0.4240  1.8912
10368SOL    HW231500   6.016   1.583   0.057  0.7204 -1.1818 -2.1683
10369SOL     OW31501   5.984   0.223   3.024 -0.2049 -0.1955 -0.1150
10369SOL    HW131502   5.973   0.137   3.066 -2.7812  0.8446  1.6010
10369SOL    HW231503   5.921   0.222   2.952  1.7491 -0.6745 -1.9373
10370SOL     OW31504   5.330   6.921   2.536 -0.0505  0.8308 -0.1056
10370SOL    HW131505   5.243   6.935   2.572  0.2364  3.2215 -0.1794
10370SOL    HW231506   5.378   7.001   2.557  1.1115  0.9991 -2.9193
10371SOL     OW31507   6.479   1.310   5.118  0.0335  0.3645 -0.1016
10371SOL    HW131508   6.467   1.221   5.152 -1.7389  0.4321 -0.4212
10371SOL    HW231509   6.402   1.358   5.149 -0.1024  1.2253 -1.6488
10372SOL     OW31510   6.055   6.647   2.612 -0.1602 -0.1061 -0.1161
10372SOL    HW131511   6.099   6.606   2.686  0.5407 -0.3528 -0.6540
10372SOL    HW231512   6.004   6.718   2.650  3.4186  2.5531  0.2710
10373SOL     OW31513   2.523   4.368   2.406  0.1257  0.2414 -0.2815
10373SOL    HW131514   2.568   4.313   2.341 -0.8081 -2.2094  0.9915
10373SOL    HW231515   2.566   4.347   2.489 -2.4520 -1.3504  0.8078
10374SOL     OW31516   6.903   3.873   0.812  1.1127  0.0028 -0.1504
10374SOL    HW131517   6.874   3.927   0.885  0.4417 -2.1675  1.2851
10374SOL    HW231518   6.886   3.926   0.734 -0.5229  1.4063  1.0892
10375SOL     OW31519   0.540   0.820   4.999 -0.2149  0.6080  0.0449
10375SOL    HW131520   0.480   0.839   4.927  1.6112 -3.0193 -2.7416
10375SOL    HW231521   0.626   0.848   4.968  0.3687  0.7871  1.7031
10376SOL     OW31522   0.414   0.921   4.770 -0.2835  0.1082 -1.0509
10376SOL    HW131523   0.322   0.943   4.784  0.1468  0.6598  1.1999
10376SOL    HW231524   0.457   1.005   4.756 -0.1468 -0.1853 -2.6929
10377SOL     OW31525   4.012   0.221   5.295  0.0929 -0.2679 -0.2233
10377SOL    HW131526   4.087   0.237   5.353 -0.1495  1.1049 -0.2691
10377SOL    HW231527   3.958   0.158   5.343 -0.1162  0.8530  1.0846
10378SOL     OW31528   1.153   6.683   5.430 -0.5121 -0.0123 -0.6271
10378SOL    HW131529   1.181   6.630   5.505  1.9419 -0.5730 -1.8321
10378SOL    HW231530   1.074   6.639   5.398  0.4669 -1.9637 -0.5161
10379SOL     OW31531   2.116   0.834   3.392  0.3785 -0.6900  0.2754
10379SOL    HW131532   2.182   0.897   3.361 -0.6908 -0.1388 -1.0027
10379SOL    HW231533   2.076   0.875   3.468  0.2145 -0.1522 -0.0965
10380SOL     OW31534   2.089   0.252   4.850 -0.9598 -0.4218 -0.2552
10380SOL    HW131535   2.183   0.259   4.833 -0.6815 -0.1470  1.2478
10380SOL    HW231536   2.048   0.303   4.781 -0.0987 -1.5408 -1.6617
10381SOL     OW31537   2.378   3.250   4.803 -0.4187 -0.6667  0.5177
10381SOL    HW131538   2.372   3.182   4.870 -3.0312 -0.1383  0.9247
10381SOL    HW231539   2.328   3.215   4.729 -1.6985  0.7277  0.6932
10382SOL     OW31540   0.087   0.096   2.650  0.3270 -0.1060 -0.2569
10382SOL    HW131541   0.075   0.137   2.736  0.4801 -0.0578 -0.2578
10382SOL    HW231542   0.071   0.167   2.588 -0.6927 -0.3549 -0.2987
10383SOL     OW31543   1.462   0.072   2.074  0.6510  0.0611  0.2262
10383SOL    HW131544   1.413   0.001   2.115  1.9848 -0.7509  0.4862
10383SOL    HW231545   1.504   0.118   2.147  0.7434  0.3937 -0.0315
10384SOL     OW31546   4.306   0.720   1.815 -0.0119 -0.1213 -0.0283
10384SOL    HW131547   4.386   0.770   1.832 -1.7995  2.3347  1.9985
10384SOL    HW231548   4.286   0.679   1.899 -1.4336  0.2456 -0.1652
10385SOL     OW31549   0.902   6.093   3.254 -0.2280  0.2138 -0.6688
10385SOL    HW131550   0.908   6.187   3.242 -0.5582  0.4401  0.7735
10385SOL    HW231551   0.824   6.080   3.309  0.6044 -0.7589  0.3478
10386SOL     OW31552   0.030   4.660   3.196  0.3811  0.2365 -0.0798
10386SOL    HW131553   0.112   4.709   3.189  1.0741 -1.0284 -1.3361
10386SOL    HW231554   0.004   4.644   3.106 -1.0986  0.3235  0.3035
10387SOL     OW31555   6.384   4.702   0.898 -0.1344 -0.0531 -0.3931
10387SOL    HW131556   6.302   4.683   0.854  1.1640  0.0494 -3.0357
10387SOL    HW231557   6.414   4.784   0.858  0.7480  0.5148  1.3219
10388SOL     OW31558   1.107   2.608   3.605  0.0881 -0.2668  0.1752
10388SOL    HW131559   1.103   2.703   3.601 -1.2863 -0.3148 -0.0189
10388SOL    HW231560   1.166   2.584   3.534  0.7147  0.4422  0.4375
10389SOL     OW31561   6.082   1.077   6.096 -0.1462  0.2261 -0.0446
10389SOL    HW131562   6.016   1.008   6.104  1.3023 -1.2216 -0.1472
10389SOL    HW231563   6.125   1.078   6.181  0.2845  0.5415 -0.2680
10390SOL     OW31564   0.981   3.045   5.902 -0.0373  0.1925 -0.4940
10390SOL    HW131565   0.922   3.003   5.839 -0.7790 -0.4013  0.5718
10390SOL    HW231566   1.017   2.973   5.953  0.0298  0.7136  0.2131
10391SOL     OW31567   3.688   6.268   0.804 -0.1796  0.1364 -0.2863
10391SOL    HW131568   3.651   6.349   0.768  0.7360  0.4555 -0.5433
10391SOL    HW231569   3.764   6.298   0.856 -0.3697 -0.4835  0.3636
10392SOL     OW31570   0.501   0.251   6.134 -0.1322  0.3283 -0.9265
10392SOL    HW131571   0.502   0.294   6.048  0.7592  0.7200 -0.7347
10392SOL    HW231572   0.592   0.225   6.148 -0.3132  0.0818 -0.1883
10393SOL     OW31573   1.543   4.494   0.573 -0.2596  0.1007  0.2369
10393SOL    HW131574   1.620   4.516   0.625 -0.1988 -0.8650  0.5818
10393SOL    HW231575   1.470   4.529   0.623 -0.0811  0.5714  0.1682
10394SOL     OW31576   1.953   3.277   5.528  0.7452  0.6627  0.6339
10394SOL    HW131577   1.965   3.183   5.542 -0.1383  0.4716  0.2081
10394SOL    HW231578   2.029   3.304   5.477  0.8382  0.1051  0.4706
10395SOL     OW31579   1.233   6.126   4.645  0.5651 -0.8594  0.0003
10395SOL    HW131580   1.243   6.210   4.600  3.0130 -1.2010 -0.1999
10395SOL    HW231581   1.159   6.084   4.601 -0.2896  0.9042 -0.3146
10396SOL     OW31582   5.755   0.483   1.754  0.3836 -0.1711 -0.6514
10396SOL    HW131583   5.761   0.400   1.706  2.8524 -0.4009 -0.0729
10396SOL    HW231584   5.675   0.524   1.721 -1.6456 -3.3261 -0.0171
10397SOL     OW31585   3.963   3.044   4.927 -0.3193 -0.0131 -0.4736
10397SOL    HW131586   4.020   3.121   4.918  0.3470 -0.3376  0.7240
10397SOL    HW231587   3.876   3.081   4.937 -0.2839  0.5109 -1.8012
10398SOL     OW31588   3.608   2.284   3.971 -0.2939  0.2506 -0.6542
10398SOL    HW131589   3.550   2.335   3.914 -1.9556 -1.2026 -0.3317
10398SOL    HW231590   3.578   2.303   4.060 -0.5035 -0.7512 -0.4996
10399SOL     OW31591   3.768   2.197   1.132 -0.3228 -0.3029  0.6530
10399SOL    HW131592   3.852   2.179   1.174  0.2196 -0.6682 -0.5552
10399SOL    HW231593   3.721   2.114   1.136 -0.2936 -0.3224  0.5958
10400SOL     OW31594   3.599   6.913   0.432  0.1278  0.5642 -0.3205
10400SOL    HW131595   3.690   6.883   0.427 -0.4142 -1.1810 -0.3128
10400SOL    HW231596   3.606   7.007   0.445  1.9800  0.1925  2.1431
10401SOL     OW31597   0.878   1.446   3.565 -0.3051  0.9501 -0.0192
10401SOL    HW131598   0.868   1.541   3.557  1.8091  1.1747 -0.4502
10401SOL    HW231599   0.945   1.423   3.501 -0.0444 -0.6936  0.7909
10402SOL     OW31600   6.684   5.452   4.177 -0.2336  0.1834  0.0073
10402SOL    HW131601   6.770   5.445   4.219 -1.4104 -0.5539  2.4966
10402SOL    HW231602   6.688   5.533   4.128  1.2647  1.2122  1.6961
10403SOL     OW31603   5.533   0.882   5.227  0.7069  0.6916  0.1317
10403SOL    HW131604   5.466   0.919   5.284 -2.3403 -2.1503 -1.2919
10403SOL    HW231605   5.499   0.895   5.139  1.5263 -1.6313 -0.5998
10404SOL     OW31606   0.666   0.024   2.922  0.3788 -0.0995  0.5289
10404SOL    HW131607   0.628   0.047   2.837  1.5114 -1.8370 -0.4828
10404SOL    HW231608   0.719   0.100   2.945 -0.4866  0.6796  0.0298
10405SOL     OW31609   6.470   4.396   5.772 -0.4392 -0.1169  0.4929
10405SOL    HW131610   6.548   4.391   5.828  0.3583  0.0206 -0.5703
10405SOL    HW231611   6.505   4.413   5.685 -1.6834  0.0522  0.0150
10406SOL     OW31612   0.741   2.638   2.217 -0.1253  0.3877  0.3491
10406SOL    HW131613   0.714   2.580   2.288 -1.5472  0.7827  0.1626
10406SOL    HW231614   0.663   2.646   2.161  0.4902  1.3122 -0.4165
10407SOL     OW31615   5.477   0.887   4.367 -0.2828 -0.3552 -0.1180
10407SOL    HW131616   5.398   0.919   4.323 -0.4078  0.4850  0.6717
10407SOL    HW231617   5.448   0.866   4.455  0.1961 -0.9247 -0.0926
10408SOL     OW31618   6.500   3.294   1.053  0.3052  0.0292  0.5904
10408SOL    HW131619   6.417   3.326   1.087 -1.0488 -1.2401 -1.3061
10408SOL    HW231620   6.542   3.250   1.127 -0.0415  1.8530  1.9303
10409SOL     OW31621   3.292   4.734   6.294  0.3269 -0.9203  0.2157
10409SOL    HW131622   3.252   4.703   6.212  0.6133 -2.0308  0.4710
10409SOL    HW231623   3.351   4.663   6.319  0.6598 -0.3437  1.0981
10410SOL     OW31624   6.553   0.579   6.704  0.0844 -0.4693 -0.3708
10410SOL    HW131625   6.563   0.674   6.698  0.5959 -0.4402  0.6257
10410SOL    HW231626   6.640   0.544   6.684  0.0022 -0.7040 -0.3277
10411SOL     OW31627   6.400   5.021   6.590 -0.0697 -0.4460 -0.0094
10411SOL    HW131628   6.359   5.107   6.578 -1.3941 -1.2055 -1.3655
10411SOL    HW231629   6.347   4.962   6.536 -0.1294 -2.4215  2.0507
10412SOL     OW31630   4.920   1.055   6.311  0.2538  0.3236 -0.5291
10412SOL    HW131631   4.975   1.063   6.389  0.7312  1.1135 -0.9330
10412SOL    HW231632   4.981   1.040   6.240 -0.1923 -0.5515 -0.7451
10413SOL     OW31633   1.727   5.130   0.960 -0.1388 -0.3760 -0.2921
10413SOL    HW131634   1.809   5.094   0.925 -0.5081 -0.0941 -1.5271
10413SOL    HW231635   1.685   5.171   0.884 -1.3937 -0.4547  0.3285
10414SOL     OW31636   5.988   4.974   0.763 -0.6820  0.2229  0.0097
10414SOL    HW131637   5.944   4.961   0.679 -1.5349  1.9980  0.1456
10414SOL    HW231638   5.936   4.922   0.825 -0.0333 -1.1114 -0.5379
10415SOL     OW31639   0.605   0.031   0.040 -0.8183 -0.1070  0.3106
10415SOL    HW131640   0.677   0.004   0.098  0.2944  0.5343 -0.7352
10415SOL    HW231641   0.546   0.079   0.097 -0.6312 -0.9877  1.2807
10416SOL     OW31642   6.587   3.493   3.648  0.1097  0.2676  0.0697
10416SOL    HW131643   6.565   3.583   3.626  0.6330  0.3074 -0.2989
10416SOL    HW231644   6.583   3.490   3.744 -2.7323 -0.0460  0.0377
10417SOL     OW31645   6.926   5.955   5.595  0.1660  0.2430 -0.3601
10417SOL    HW131646   6.884   6.019   5.538  0.3539  0.0670 -0.7007
10417SOL    HW231647   6.891   5.870   5.567 -0.6436  0.2529  0.5830
10418SOL     OW31648   1.883   0.399   3.886 -0.2336  0.1080  0.0319
10418SOL    HW131649   1.962   0.440   3.851 -0.4243 -1.0421 -1.9240
10418SOL    HW231650   1.905   0.306   3.893 -0.5745  0.1346  2.0678
10419SOL     OW31651   3.203   1.546   0.636 -0.8382  0.1675  0.3283
10419SOL    HW131652   3.159   1.479   0.688 -1.4689  1.1767  1.1477
10419SOL    HW231653   3.199   1.514   0.546 -0.4490 -1.2350  0.7872
10420SOL     OW31654   5.737   1.501   1.542 -0.1258 -0.0344  0.4924
10420SOL    HW131655   5.802   1.523   1.475 -0.0874 -1.7251 -0.0718
10420SOL    HW231656   5.654   1.495   1.495  0.2073 -3.2989  0.0634
10421SOL     OW31657   3.475   1.919   0.640 -0.0242 -0.0688  0.1553
10421SOL    HW131658   3.535   1.986   0.673 -0.0289  0.4342 -0.8279
10421SOL    HW231659   3.522   1.877   0.569 -0.5845 -0.1211 -0.1912
10422SOL     OW31660   5.385   6.789   6.173 -0.1365 -0.4587  0.6170
10422SOL    HW131661   5.463   6.844   6.183  0.3541 -1.1748  0.7856
10422SOL    HW231662   5.416   6.700   6.186 -0.6353 -0.9365 -1.2319
10423SOL     OW31663   2.824   6.233   0.123  0.0098  0.6469  0.7559
10423SOL    HW131664   2.858   6.192   0.044 -0.9480 -1.6746  1.4554
10423SOL    HW231665   2.902   6.261   0.171  0.6286  1.2272 -0.5475
10424SOL     OW31666   0.520   0.831   3.634 -0.0502 -0.0476 -0.6385
10424SOL    HW131667   0.438   0.789   3.610  0.3113 -0.8791 -0.4797
10424SOL    HW231668   0.497   0.922   3.652 -0.9113 -0.2471 -0.6961
10425SOL     OW31669   6.765   2.368   1.255  0.0094  0.3746 -0.2035
10425SOL    HW131670   6.830   2.298   1.260 -0.6225 -0.2380 -0.4014
10425SOL    HW231671   6.767   2.409   1.342 -1.5863 -1.7156  0.9044
10426SOL     OW31672   2.150   6.930   1.772  0.0014  0.1959  0.0756
10426SOL    HW131673   2.101   6.990   1.715 -1.5520  0.5836  1.7180
10426SOL    HW231674   2.082   6.876   1.813  1.1942 -1.0588  0.4743
10427SOL     OW31675   5.291   4.586   5.829 -0.3848 -0.1270  0.0974
10427SOL    HW131676   5.384   4.597   5.852 -0.6848  1.4142  0.7410
10427SOL    HW231677   5.270   4.497   5.856  1.3439 -1.1838 -1.7308
10428SOL     OW31678   5.322   2.800   5.822 -0.1749  0.2036  0.1176
10428SOL    HW131679   5.396   2.748   5.792 -0.3543  0.0215 -0.0069
10428SOL    HW231680   5.278   2.829   5.742  0.1002  0.8043  0.1759
10429SOL     OW31681   3.284   2.894   6.880 -0.4416 -0.4397  0.0271
10429SOL    HW131682   3.362   2.948   6.894 -0.6603 -0.1879  0.2867
10429SOL    HW231683   3.220   2.927   6.943 -2.3316  2.4321 -3.0125
10430SOL     OW31684   5.032   6.741   4.266  0.2134  0.7028  0.2809
10430SOL    HW131685   5.047   6.816   4.209  1.5980  1.0657  1.0616
10430SOL    HW231686   5.106   6.743   4.328 -0.6738 -0.2765  1.4222
10431SOL     OW31687   6.780   3.030   3.569 -0.0634  0.1741  0.1484
10431SOL    HW131688   6.836   2.956   3.544  0.4005  0.0693  1.4004
10431SOL    HW231689   6.816   3.105   3.522  2.5518  0.5571  2.5017
10432SOL     OW31690   4.595   3.440   0.461 -0.3046  0.3456 -0.3621
10432SOL    HW131691   4.577   3.451   0.555 -0.5519 -1.8646 -0.0928
10432SOL    HW231692   4.551   3.358   0.438  2.4394 -0.8795 -1.6426
10433SOL     OW31693   5.552   2.510   2.499  0.0364 -0.3449  0.3275
10433SOL    HW131694   5.568   2.583   2.440 -0.5051  0.2008  0.8339
10433SOL    HW231695   5.578   2.543   2.585  0.8684 -1.1443  0.4085
10434SOL     OW31696   1.738   6.355   1.695  1.2464 -0.2475  0.0510
10434SOL    HW131697   1.824   6.329   1.727  2.5046  1.2223 -1.8187
10434SOL    HW231698   1.687   6.274   1.690  3.0298 -1.3994 -0.1799
10435SOL     OW31699   4.893   4.057   0.740 -0.2421  0.3184  0.5015
10435SOL    HW131700   4.910   4.110   0.662 -1.8350  0.1882  0.0408
10435SOL    HW231701   4.927   3.970   0.718 -0.9632  0.2050 -0.1664
10436SOL     OW31702   2.919   2.284   4.620  0.0050 -0.3992  0.4034
10436SOL    HW131703   2.929   2.346   4.691 -0.3358 -0.4670  0.5111
10436SOL    HW231704   2.826   2.262   4.619 -0.0207 -0.2961 -0.1463
10437SOL     OW31705   4.484   2.099   1.040 -0.1764  0.3069 -0.6165
10437SOL    HW131706   4.554   2.051   1.083  0.9413  2.0732 -0.3921
10437SOL    HW231707   4.410   2.091   1.100  0.6737  0.7852  0.5235
10438SOL     OW31708   1.838   3.030   0.015  0.1269 -0.0394 -0.0112
10438SOL    HW131709   1.756   2.982   0.021  0.3965 -0.3416  2.7518
10438SOL    HW231710   1.893   2.993   0.085  1.4792  2.1648  0.2237
10439SOL     OW31711   5.718   5.565   3.750 -0.1715  0.2131  0.0496
10439SOL    HW131712   5.702   5.550   3.843 -1.5852  0.8529 -0.0680
10439SOL    HW231713   5.721   5.477   3.712 -0.0821 -0.0322  0.6160
10440SOL     OW31714   5.179   3.348   1.419 -0.7867  0.1770  0.1323
10440SOL    HW131715   5.114   3.281   1.441 -0.8917  0.4754  0.7659
10440SOL    HW231716   5.130   3.430   1.421 -0.1416  0.5796  2.0218
10441SOL     OW31717   2.127   5.524   4.444 -0.5157 -0.7343  0.2927
10441SOL    HW131718   2.222   5.527   4.431 -0.3482 -2.3518  0.8453
10441SOL    HW231719   2.113   5.556   4.533 -0.4991 -0.4629  0.1990
10442SOL     OW31720   0.301   6.914   0.414 -0.5034  0.7502 -0.0528
10442SOL    HW131721   0.263   6.852   0.352 -0.9831 -0.8971  1.7922
10442SOL    HW231722   0.391   6.925   0.385 -1.1186  1.2950 -1.9425
10443SOL     OW31723   4.731   5.108   6.239 -0.6268 -0.1891 -0.0849
10443SOL    HW131724   4.760   5.018   6.226 -1.3439 -0.5891  1.0053
10443SOL    HW231725   4.769   5.156   6.166 -0.1338 -1.3503 -0.6082
10444SOL     OW31726   4.408   2.070   2.792 -0.1544  0.0696 -0.3885
10444SOL    HW131727   4.378   2.006   2.727 -0.2508 -0.3084  0.0255
10444SOL    HW231728   4.371   2.039   2.875 -2.7920  2.3014 -0.5881
10445SOL     OW31729   5.840   5.718   2.250 -0.0071  0.3854 -0.2839
10445SOL    HW131730   5.919   5.665   2.238  0.4631  1.3619 -1.6201
10445SOL    HW231731   5.871   5.799   2.290 -0.7219 -0.2359  1.6961
10446SOL     OW31732   3.451   0.806   3.174  0.0726 -0.1005 -0.4354
10446SOL    HW131733   3.442   0.817   3.079 -0.1192  0.9089 -0.3128
10446SOL    HW231734   3.485   0.890   3.204  1.7339 -0.9481  0.1958
10447SOL     OW31735   2.180   3.876   1.267 -0.4218 -0.9630 -0.3892
10447SOL    HW131736   2.160   3.889   1.359  0.6243 -1.3129 -0.0995
10447SOL    HW231737   2.276   3.877   1.263 -0.4133 -2.6145 -1.2224
10448SOL     OW31738   6.824   3.254   6.475 -0.4185 -0.3345  0.2334
10448SOL    HW131739   6.773   3.175   6.463  0.1808 -0.8117  0.7437
10448SOL    HW231740   6.839   3.287   6.386 -0.8224 -0.6913  0.0324
10449SOL     OW31741   2.146   1.106   2.048  0.7133  0.1072  0.3575
10449SOL    HW131742   2.050   1.101   2.049  0.7373 -1.1341  2.0118
10449SOL    HW231743   2.166   1.180   1.991 -1.2374  0.5183  0.1307
10450SOL     OW31744   2.091   1.042   0.538  0.0610 -0.6906  0.2370
10450SOL    HW131745   2.077   1.111   0.474 -0.2249 -1.6645 -0.7940
10450SOL    HW231746   2.186   1.028   0.538  0.1475 -0.1428  0.6373
10451SOL     OW31747   2.094   0.054   0.631  0.5423 -0.3083 -0.1468
10451SOL    HW131748   2.013   0.105   0.620 -0.1414 -1.3567 -0.0806
10451SOL    HW231749   2.161   0.120   0.650 -0.3259  0.5656 -0.0251
10452SOL     OW31750   4.423   4.343   0.054  0.0751 -0.3821  0.9427
10452SOL    HW131751   4.395   4.295  -0.024 -0.8954  1.4633  0.0833
10452SOL    HW231752   4.490   4.288   0.094 -2.4996 -3.5790  1.3251
10453SOL     OW31753   5.711   4.604   2.300 -0.4464  0.1895 -0.0043
10453SOL    HW131754   5.689   4.578   2.210  0.9860  0.6042 -0.5097
10453SOL    HW231755   5.806   4.620   2.297 -0.0023 -1.6523  2.0456
10454SOL     OW31756   6.831   4.536   6.132  0.0705 -0.1704  0.3653
10454SOL    HW131757   6.923   4.539   6.156 -0.1174  0.0269  1.0901
10454SOL    HW231758   6.784   4.538   6.215 -0.6201  1.2886 -0.0216
10455SOL     OW31759   0.625   0.383   2.397 -0.1403  0.0215 -0.4265
10455SOL    HW131760   0.642   0.469   2.437  0.0686  0.3235 -1.1549
10455SOL    HW231761   0.662   0.389   2.309 -1.3001 -0.3596 -0.9670
10456SOL     OW31762   6.932   0.878   1.858  0.1337 -0.1306  0.4100
10456SOL    HW131763   6.840   0.860   1.842 -0.1090 -1.2143  2.5801
10456SOL    HW231764   6.933   0.948   1.922  0.9145  1.2681 -1.0597
10457SOL     OW31765   1.017   2.566   0.623 -0.4189 -0.0256  0.4841
10457SOL    HW131766   0.960   2.511   0.677 -0.3906 -0.0867  0.4516
10457SOL    HW231767   1.019   2.522   0.538 -0.5659  0.1386  0.3944
10458SOL     OW31768   0.524   5.041   0.561 -0.0957  0.0123  0.1207
10458SOL    HW131769   0.508   4.991   0.641 -0.6114 -1.8083 -1.0509
10458SOL    HW231770   0.608   5.084   0.576  0.8737 -2.0132  0.8575
10459SOL     OW31771   1.545   2.195   1.525  0.4798  0.1905  0.5271
10459SOL    HW131772   1.508   2.263   1.468 -0.9921 -1.4680 -0.6383
10459SOL    HW231773   1.632   2.178   1.488 -0.9515 -1.8442 -2.3510
10460SOL     OW31774   1.381   1.474   2.054  0.7627 -0.3314 -0.3796
10460SOL    HW131775   1.316   1.409   2.025  1.9573 -1.7023 -0.1270
10460SOL    HW231776   1.360   1.489   2.146  0.3674 -0.2288 -0.4855
10461SOL     OW31777   6.438   5.770   3.918 -0.0751  0.3472 -0.2197
10461SOL    HW131778   6.399   5.692   3.879 -0.0129  0.2617 -0.1129
10461SOL    HW231779   6.378   5.793   3.989  0.1070  0.1720 -0.0085
10462SOL     OW31780   3.863   2.143   1.961  0.4039  0.0497 -0.2619
10462SOL    HW131781   3.837   2.155   2.053  0.0296 -0.5486 -0.2811
10462SOL    HW231782   3.781   2.150   1.913  0.6865  1.0130 -0.6284
10463SOL     OW31783   4.394   5.106   3.766  0.3924 -0.3394  0.3892
10463SOL    HW131784   4.462   5.096   3.833 -0.5642  1.7101  1.7574
10463SOL    HW231785   4.441   5.141   3.691  1.0282  0.0461  0.9489
10464SOL     OW31786   2.076   2.693   3.083 -0.1178  0.0640 -0.5211
10464SOL    HW131787   1.990   2.733   3.080  0.5366  1.6624  0.5901
10464SOL    HW231788   2.059   2.599   3.091 -1.7039  0.1025 -2.7791
10465SOL     OW31789   0.363   3.713   0.027  0.0510 -0.0937 -0.7592
10465SOL    HW131790   0.319   3.635   0.061 -0.1583  0.4716  0.3091
10465SOL    HW231791   0.350   3.779   0.095  1.5110  0.4423 -0.9672
10466SOL     OW31792   1.328   4.643   2.552 -0.7792 -0.1601 -0.2280
10466SOL    HW131793   1.266   4.647   2.625  0.1551  2.1512  0.5009
10466SOL    HW231794   1.296   4.707   2.489  0.6970  0.8771  0.0424
10467SOL     OW31795   1.549   2.224   5.476  0.9438 -0.2168 -0.1231
10467SOL    HW131796   1.599   2.244   5.555  2.0088 -1.3204 -0.4901
10467SOL    HW231797   1.484   2.294   5.470  4.5572  3.4238 -1.4765
10468SOL     OW31798   2.462   5.028   6.302 -0.2130  0.5170 -0.0581
10468SOL    HW131799   2.493   5.087   6.233 -0.7410  0.1335 -0.6250
10468SOL    HW231800   2.400   4.970   6.259  2.3112 -2.3367 -0.2031
10469SOL     OW31801   3.870   0.868   1.785  0.2715  1.1605  0.1941
10469SOL    HW131802   3.876   0.774   1.801  0.9207  0.9548 -1.1394
10469SOL    HW231803   3.784   0.893   1.819 -1.0713 -0.4249 -1.8060
10470SOL     OW31804   6.698   3.783   4.480 -0.4398  0.7302 -0.2324
10470SOL    HW131805   6.613   3.741   4.469 -0.3188 -0.3554  2.2901
10470SOL    HW231806   6.677   3.875   4.496 -1.2794  0.2717  1.5028
10471SOL     OW31807   1.817   4.622   2.424  0.7076  0.3163 -0.0282
10471SOL    HW131808   1.877   4.639   2.352 -0.1236 -0.6694 -0.9990
10471SOL    HW231809   1.843   4.536   2.457  0.9622  0.6765  0.7374
10472SOL     OW31810   1.401   5.970   6.227  0.6031  0.6996 -0.0546
10472SOL    HW131811   1.461   6.015   6.166 -0.0871  0.8137 -0.6619
10472SOL    HW231812   1.424   6.005   6.313  0.7766  1.4428 -0.3952
10473SOL     OW31813   2.724   0.568   6.790 -0.8386 -0.1722 -0.1491
10473SOL    HW131814   2.709   0.659   6.765 -0.8856 -0.0772  0.2155
10473SOL    HW231815   2.705   0.566   6.884 -2.5424 -0.9256 -0.4711
10474SOL     OW31816   1.592   4.503   1.224  0.1136 -0.4224  0.2208
10474SOL    HW131817   1.673   4.473   1.263 -0.9862 -2.3563  1.1676
10474SOL    HW231818   1.556   4.426   1.179 -0.4776  0.7766 -1.4795
10475SOL     OW31819   0.008   5.111   6.320 -0.5265  0.1582 -0.3870
10475SOL    HW131820   0.050   5.139   6.239  1.0225  1.4199  0.7813
10475SOL    HW231821  -0.069   5.169   6.329  0.3045  1.2511 -0.0917
10476SOL     OW31822   4.968   0.204   0.002  0.3865 -0.0434  0.0026
10476SOL    HW131823   4.995   0.142  -0.066 -0.1877 -0.6228  0.2908
10476SOL    HW231824   4.872   0.197   0.004  0.3738  0.2704  0.5862
10477SOL     OW31825   5.555   2.670   6.070 -0.2873  0.1602  0.1633
10477SOL    HW131826   5.582   2.753   6.109  1.1645  0.6444 -1.7500
10477SOL    HW231827   5.634   2.634   6.031 -1.0156 -1.8667  0.4581
10478SOL     OW31828   6.486   4.269   1.558 -0.1866 -0.7426 -0.5458
10478SOL    HW131829   6.511   4.361   1.561 -0.6500 -0.5796 -1.3744
10478SOL    HW231830   6.557   4.223   1.603  0.3929 -0.0532 -0.7428
10479SOL     OW31831   5.875   4.973   6.480  0.7409  0.2756 -0.2117
10479SOL    HW131832   5.946   4.917   6.514 -0.4786 -0.8745  0.5337
10479SOL    HW231833   5.815   4.912   6.437 -0.4243  1.0488  0.2726
10480SOL     OW31834   1.805   4.222   6.051 -0.1641  0.6658  0.3011
10480SOL    HW131835   1.848   4.187   5.973 -0.4319  1.1343 -0.0658
10480SOL    HW231836   1.779   4.145   6.101  1.0359  0.3726  0.5004
10481SOL     OW31837   5.426   6.531   2.263 -0.0560 -0.0715  0.1459
10481SOL    HW131838   5.438   6.515   2.169  0.4895  0.6739  0.0760
10481SOL    HW231839   5.504   6.581   2.289 -0.3507 -0.0020  0.9312
10482SOL     OW31840   5.444   0.959   2.867  0.2239  0.1662 -0.0668
10482SOL    HW131841   5.479   1.030   2.921 -0.9070  1.3226 -0.8022
10482SOL    HW231842   5.432   0.886   2.928  0.0675  1.0661  1.0137
10483SOL     OW31843   3.238   5.086   1.928 -0.1354  0.4554 -0.0351
10483SOL    HW131844   3.310   5.036   1.966  0.8501  2.1122  0.3671
10483SOL    HW231845   3.195   5.128   2.002 -2.2201 -1.3088 -0.1476
10484SOL     OW31846   0.935   1.089   2.330 -0.0633  0.5911 -0.3436
10484SOL    HW131847   0.896   1.094   2.417 -2.0499  1.7033 -1.2297
10484SOL    HW231848   0.965   0.998   2.322  0.1556  0.4732  1.4703
10485SOL     OW31849   1.056   2.311   5.183 -0.0332  0.1938 -0.2576
10485SOL    HW131850   1.129   2.273   5.232  0.6573  1.3022 -0.4045
10485SOL    HW231851   0.991   2.240   5.179  1.5344 -1.2499 -1.2497
10486SOL     OW31852   2.096   3.532   4.819 -0.3185  0.0189 -0.6495
10486SOL    HW131853   2.134   3.521   4.906 -1.1544  0.4817 -0.2021
10486SOL    HW231854   2.110   3.625   4.799  0.0670 -0.1365 -1.1091
10487SOL     OW31855   4.297   5.977   2.980  0.4352 -0.3017  0.1566
10487SOL    HW131856   4.318   5.946   3.068  0.8571 -0.0795  0.1364
10487SOL    HW231857   4.222   5.923   2.953 -1.3140  1.2824  1.5895
10488SOL     OW31858   6.768   5.996   4.279 -0.0481 -0.2840 -0.7390
10488SOL    HW131859   6.675   6.000   4.300 -0.6747  0.0482 -3.2696
10488SOL    HW231860   6.798   5.915   4.318 -1.8140 -1.2620 -1.2929
10489SOL     OW31861   2.031   5.647   5.866  0.1353  0.0033  0.7849
10489SOL    HW131862   1.939   5.643   5.891  0.2079  1.3921  1.3509
10489SOL    HW231863   2.033   5.699   5.786  0.6501  2.5402  2.3370
10490SOL     OW31864   0.308   6.297   4.893 -0.0499 -0.0111  0.2186
10490SOL    HW131865   0.235   6.245   4.928  2.9234 -3.8860  1.3170
10490SOL    HW231866   0.299   6.290   4.798 -1.6776  0.5602  0.2987
10491SOL     OW31867   5.260   2.234   6.621 -0.1460 -0.0231 -0.1177
10491SOL    HW131868   5.217   2.185   6.552  0.6564  0.1092 -0.7211
10491SOL    HW231869   5.253   2.326   6.594  0.5626 -0.0047 -0.2526
10492SOL     OW31870   3.352   3.059   5.555 -0.0615  0.3168 -0.2058
10492SOL    HW131871   3.393   3.016   5.629 -0.0952  2.5488  1.2013
10492SOL    HW231872   3.425   3.091   5.501 -0.0263 -0.3186 -0.5391
10493SOL     OW31873   1.633   4.012   3.453 -0.1037 -0.2220  0.3936
10493SOL    HW131874   1.537   4.014   3.447 -0.3357 -1.4336  2.4042
10493SOL    HW231875   1.659   4.104   3.458 -1.3789  0.1123  1.7542
10494SOL     OW31876   0.177   6.076   1.169  1.0753 -0.2260 -0.0132
10494SOL    HW131877   0.232   6.009   1.129  0.6379 -0.9552  0.5707
10494SOL    HW231878   0.144   6.127   1.096  0.8722 -1.0759 -0.5365
10495SOL     OW31879   5.698   6.633   2.369 -0.4627  0.2040  0.4615
10495SOL    HW131880   5.735   6.713   2.332  1.7649  0.0575  2.1850
10495SOL    HW231881   5.649   6.663   2.446  0.8800 -0.0685  1.4667
10496SOL     OW31882   4.971   2.663   3.252 -0.0040  0.6888 -0.3203
10496SOL    HW131883   4.995   2.668   3.345 -0.7349 -0.1736 -0.0748
10496SOL    HW231884   4.902   2.597   3.248  0.3795  0.3323 -1.5514
10497SOL     OW31885   0.865   0.683   5.440  0.1358  0.1764 -0.4744
10497SOL    HW131886   0.912   0.614   5.394  0.1439  1.0139 -1.7651
10497SOL    HW231887   0.901   0.765   5.406 -0.6015  0.8298  0.2514
10498SOL     OW31888   1.154   6.196   6.648  0.2061 -0.0031  0.3472
10498SOL    HW131889   1.153   6.255   6.573 -2.5342  0.0398  0.3276
10498SOL    HW231890   1.245   6.196   6.677  0.9879  1.3891 -1.8496
10499SOL     OW31891   2.696   6.929   3.248  0.3607  0.1674  0.3928
10499SOL    HW131892   2.737   6.927   3.335  0.1332  1.6036  0.5633
10499SOL    HW231893   2.764   6.963   3.190 -0.2286  1.5272  0.4756
10500SOL     OW31894   2.331   1.175   4.862 -0.4471 -0.4460  0.4272
10500SOL    HW131895   2.326   1.101   4.802  0.4266 -1.1137  1.1395
10500SOL    HW231896   2.356   1.136   4.946  0.9374  0.7437  0.6063
10501SOL     OW31897   1.579   4.695   4.859  0.0574  0.4156 -0.0031
10501SOL    HW131898   1.610   4.775   4.816  1.1208  0.6021  1.0797
10501SOL    HW231899   1.598   4.709   4.952 -2.6945  0.2537  0.6632
10502SOL     OW31900   2.505   1.756   5.062 -0.3726 -0.0237 -0.2458
10502SOL    HW131901   2.579   1.744   5.003  2.5808  1.9677  2.7253
10502SOL    HW231902   2.488   1.851   5.060 -0.9467 -0.0696  1.1868
10503SOL     OW31903   6.365   5.248   6.264  0.1956  0.0413  0.6416
10503SOL    HW131904   6.307   5.246   6.188 -1.2298 -0.9643  1.7017
10503SOL    HW231905   6.424   5.174   6.250 -0.8499 -0.9007  1.0746
10504SOL     OW31906   4.778   5.971   0.043  0.0020  0.3585 -0.3637
10504SOL    HW131907   4.757   5.922  -0.037 -0.1112  0.4554 -0.3929
10504SOL    HW231908   4.841   6.037   0.014  0.7888 -0.2812 -0.1763
10505SOL     OW31909   2.418   3.473   2.226 -0.5298  0.5248  0.2082
10505SOL    HW131910   2.333   3.449   2.190 -0.9315  0.2242  1.2953
10505SOL    HW231911   2.408   3.460   2.321  0.6955  0.5875  0.3620
10506SOL     OW31912   1.085   1.363   6.526 -0.0494  0.7392  0.5856
10506SOL    HW131913   1.155   1.333   6.585 -0.1783 -0.0960  0.3258
10506SOL    HW231914   1.131   1.392   6.448  0.0138  0.0109  0.3381
10507SOL     OW31915   1.928   3.461   4.351 -0.4042 -0.0480 -0.3024
10507SOL    HW131916   1.970   3.402   4.289 -3.0079 -1.8650 -0.5239
10507SOL    HW231917   1.935   3.547   4.311  2.7289 -0.2623 -0.4154
10508SOL     OW31918   4.344   2.296   0.729  0.4706  0.2700 -0.0321
10508SOL    HW131919   4.352   2.370   0.669  0.1642 -0.5000 -1.0567
10508SOL    HW231920   4.430   2.289   0.770  0.9581  0.2881 -1.0239
10509SOL     OW31921   3.748   0.508   0.611  0.0212 -0.4672 -0.4321
10509SOL    HW131922   3.666   0.539   0.648 -0.0340 -0.3004 -0.6897
10509SOL    HW231923   3.734   0.414   0.596  0.8678 -1.0928  2.2110
10510SOL     OW31924   1.284   1.043   6.940 -0.3660 -0.0277  0.1375
10510SOL    HW131925   1.224   1.104   6.896  1.4157  1.1150 -0.8356
10510SOL    HW231926   1.371   1.076   6.918  0.6773 -2.7432 -0.0881
10511SOL     OW31927   1.160   1.842   4.556 -0.1743  0.0779  0.1641
10511SOL    HW131928   1.181   1.757   4.595 -1.2635 -0.5515 -0.5692
10511SOL    HW231929   1.245   1.879   4.532  0.2908 -1.0817 -0.0561
10512SOL     OW31930   3.222   6.482   2.931  0.1226  0.4693 -0.3461
10512SOL    HW131931   3.138   6.528   2.928 -1.3716 -2.0491 -0.3647
10512SOL    HW231932   3.257   6.502   3.018 -1.1066  0.5874  0.1405
10513SOL     OW31933   4.074   0.260   6.802  0.1090 -0.2596 -0.0338
10513SOL    HW131934   4.020   0.331   6.768 -0.6055 -1.1052 -0.7212
10513SOL    HW231935   4.162   0.297   6.808 -0.1507  0.5272 -0.8672
10514SOL     OW31936   6.808   1.157   0.673  0.1838 -0.4502 -0.5196
10514SOL    HW131937   6.716   1.172   0.649  0.1462  1.7498  0.7335
10514SOL    HW231938   6.804   1.104   0.752  0.1936 -3.7518 -2.5527
10515SOL     OW31939   6.436   4.040   6.813 -0.0080 -0.8873  0.2741
10515SOL    HW131940   6.373   4.049   6.884 -0.6986  0.5367 -0.4826
10515SOL    HW231941   6.397   3.974   6.755 -1.2159  0.5246 -0.5742
10516SOL     OW31942   4.284   0.598   0.836  0.3326 -0.3855  0.4358
10516SOL    HW131943   4.213   0.622   0.776  0.6222  0.0721  0.2781
10516SOL    HW231944   4.248   0.525   0.887  0.4095 -1.4213 -0.9276
10517SOL     OW31945   5.942   3.266   2.910  0.3228  0.2388  0.3918
10517SOL    HW131946   5.865   3.320   2.892 -1.7245 -1.6649  2.9050
10517SOL    HW231947   5.962   3.224   2.826 -1.9225  0.0994 -0.1191
10518SOL     OW31948   0.273   2.218   2.624 -0.3487 -0.4368  0.2009
10518SOL    HW131949   0.295   2.281   2.556  0.8899 -1.2285 -0.1521
10518SOL    HW231950   0.177   2.218   2.626 -0.3792  1.5636  0.3339
10519SOL     OW31951   1.223   2.013   0.230  0.2785  0.4372 -0.3399
10519SOL    HW131952   1.170   1.939   0.260 -0.5698  1.2585  0.2243
10519SOL    HW231953   1.296   1.972   0.183  0.8477 -0.8246  1.5445
10520SOL     OW31954   0.202   6.377   4.233 -0.1909 -0.0746  0.0037
10520SOL    HW131955   0.266   6.306   4.229  1.1957  0.8697  2.8146
10520SOL    HW231956   0.123   6.337   4.269  0.9388 -0.0805  2.6474
10521SOL     OW31957   0.985   6.633   0.357 -0.6801  0.1455 -0.2825
10521SOL    HW131958   0.935   6.552   0.344 -0.3984 -0.0040 -0.4454
10521SOL    HW231959   1.067   6.618   0.310 -0.0914  0.0124  0.7444
10522SOL     OW31960   1.153   6.668   3.010 -0.0646 -0.2971 -0.0204
10522SOL    HW131961   1.091   6.721   2.961  0.8692  0.7447 -0.1252
10522SOL    HW231962   1.163   6.588   2.959 -0.2291  0.1486 -0.7617
10523SOL     OW31963   3.765   2.997   2.584  0.1796 -0.1879  0.0253
10523SOL    HW131964   3.700   3.045   2.533  1.3162 -0.3897 -1.7202
10523SOL    HW231965   3.755   2.906   2.556 -0.2888 -0.6122  1.4585
10524SOL     OW31966   4.654   4.246   1.209 -0.4382 -0.6397 -0.1782
10524SOL    HW131967   4.726   4.228   1.149  1.1160  1.6768  0.8075
10524SOL    HW231968   4.669   4.337   1.237 -2.8786 -0.5945  1.2914
10525SOL     OW31969   0.925   0.136   1.290  0.6615  0.3857  0.0911
10525SOL    HW131970   0.997   0.149   1.352  0.6117  0.5081  0.1217
10525SOL    HW231971   0.864   0.079   1.336  0.4547  0.7652  0.2866
10526SOL     OW31972   5.338   3.111   4.913  0.4068 -0.1165  0.2883
10526SOL    HW131973   5.354   3.173   4.984  0.4462 -0.1040  0.2684
10526SOL    HW231974   5.403   3.133   4.847 -0.0011  0.2503  0.0008
10527SOL     OW31975   6.776   4.264   4.978 -0.6018 -0.4236 -0.0898
10527SOL    HW131976   6.730   4.338   4.938 -1.5654 -0.9452  0.0279
10527SOL    HW231977   6.720   4.237   5.050 -0.0110 -0.9580  0.1805
10528SOL     OW31978   1.036   3.674   2.897  0.0874  0.0627 -0.1256
10528SOL    HW131979   1.101   3.658   2.830 -0.4359  0.0163 -0.6321
10528SOL    HW231980   1.073   3.636   2.977 -0.5861 -2.7312 -1.0022
10529SOL     OW31981   2.126   1.964   6.289  0.1685 -0.1074 -0.3598
10529SOL    HW131982   2.184   1.991   6.361 -0.5025  1.2075 -0.2958
10529SOL    HW231983   2.181   1.908   6.234  0.7400 -1.0280  1.0887
10530SOL     OW31984   2.645   1.868   5.954 -0.4070  0.2191  0.5124
10530SOL    HW131985   2.698   1.793   5.981 -0.1687  0.1066 -0.2437
10530SOL    HW231986   2.681   1.894   5.869 -1.8360 -0.1334 -0.2302
10531SOL     OW31987   5.354   5.583   3.855 -0.0483 -0.3873  0.6731
10531SOL    HW131988   5.346   5.488   3.861 -0.3811 -0.5177 -1.1615
10531SOL    HW231989   5.415   5.597   3.782 -0.6535  0.7966  0.3649
10532SOL     OW31990   2.708   0.822   4.458  0.5801 -0.5461  0.2405
10532SOL    HW131991   2.782   0.805   4.400  0.3697 -0.4615 -0.0563
10532SOL    HW231992   2.656   0.742   4.455  0.7012 -0.6340  0.5088
10533SOL     OW31993   0.238   6.520   3.105 -0.1013  0.5060  0.1804
10533SOL    HW131994   0.180   6.596   3.114 -1.7232 -0.5884 -0.5196
10533SOL    HW231995   0.223   6.489   3.016  2.1336  0.5765 -0.2842
10534SOL     OW31996   0.479   2.573   0.112 -0.4034 -0.1327 -0.0731
10534SOL    HW131997   0.474   2.660   0.072  1.5804  0.4126  0.7443
10534SOL    HW231998   0.483   2.512   0.038 -1.2299  0.4991 -0.6506
10535SOL     OW31999   0.610   5.231   3.369  0.3625 -0.3124  0.4554
10535SOL    HW132000   0.671   5.200   3.302 -1.0614  1.0242 -1.5953
10535SOL    HW232001   0.638   5.321   3.386 -1.1884  0.4637 -0.8201
10536SOL     OW32002   6.339   2.013   3.313  0.1790  0.2922  0.3786
10536SOL    HW132003   6.283   1.997   3.389 -1.5552  1.8613 -0.4945
10536SOL    HW232004   6.313   2.100   3.282  2.1201  0.4623 -0.9426
10537SOL     OW32005   6.105   5.355   3.929 -0.3956  0.5360 -0.2693
10537SOL    HW132006   6.188   5.373   3.885 -0.4031 -1.1451 -1.0517
10537SOL    HW232007   6.045   5.331   3.859 -0.9901 -0.1902  0.4586
10538SOL     OW32008   2.257   6.661   3.977  0.0941 -0.4052 -0.2584
10538SOL    HW132009   2.306   6.691   4.053  0.3921 -3.6750  0.9919
10538SOL    HW232010   2.324   6.629   3.916 -0.2874 -0.9605 -0.3937
10539SOL     OW32011   2.002   2.608   6.317 -0.4080  0.4624  0.4247
10539SOL    HW132012   2.065   2.542   6.289  0.0877  1.1646 -0.1433
10539SOL    HW232013   1.980   2.583   6.407 -0.1035 -0.3760  0.2717
10540SOL     OW32014   0.452   6.098   4.681  0.9236  0.0177 -0.1427
10540SOL    HW132015   0.496   6.027   4.635  1.5325 -0.1150  0.6069
10540SOL    HW232016   0.502   6.107   4.763  0.2458  0.6384  0.2125
10541SOL     OW32017   1.091   6.772   6.904  0.4103 -0.7626 -0.1481
10541SOL    HW132018   1.141   6.758   6.824  0.2899  1.2962 -0.6182
10541SOL    HW232019   1.156   6.766   6.974  0.6753 -1.6151 -0.4518
10542SOL     OW32020   2.558   4.115   6.677 -0.0031  0.0697 -0.1942
10542SOL    HW132021   2.626   4.150   6.620 -0.6439  0.9508 -0.4269
10542SOL    HW232022   2.478   4.119   6.625 -0.2247 -1.0824  0.0287
10543SOL     OW32023   1.731   1.443   5.664 -0.2667  0.0096 -0.2845
10543SOL    HW132024   1.814   1.475   5.629  0.1654 -0.4891  0.2491
10543SOL    HW232025   1.695   1.387   5.595 -1.0763  1.6717 -1.2609
10544SOL     OW32026   1.520   5.051   5.103 -0.5237  0.5628  0.3949
10544SOL    HW132027   1.586   5.116   5.129  0.4801 -0.4343  0.4187
10544SOL    HW232028   1.505   5.069   5.010 -0.7175  1.2236  0.5509
10545SOL     OW32029   5.459   2.182   3.433  0.1430  0.0714  0.7725
10545SOL    HW132030   5.548   2.216   3.424  0.6116 -0.5966  2.6074
10545SOL    HW232031   5.407   2.259   3.458  0.3727  0.2775  0.6281
10546SOL     OW32032   2.495   2.409   5.128  0.2311  0.9151  0.3262
10546SOL    HW132033   2.446   2.329   5.110 -0.6728  1.6491 -0.6383
10546SOL    HW232034   2.548   2.388   5.205 -1.7093  0.1089  1.5399
10547SOL     OW32035   0.031   2.345   3.744 -0.3171  0.4232 -0.6745
10547SOL    HW132036  -0.010   2.430   3.761  0.4791  0.6243  0.3135
10547SOL    HW232037   0.125   2.364   3.739  0.1457 -0.7089  2.0019
10548SOL     OW32038   4.778   2.110   4.392 -0.1134 -0.3215  0.2652
10548SOL    HW132039   4.697   2.064   4.370 -0.4420  0.1314  0.5114
10548SOL    HW232040   4.758   2.202   4.376 -0.3253  0.0227  2.2701
10549SOL     OW32041   6.341   6.122   5.201  0.5875 -0.4366 -0.1335
10549SOL    HW132042   6.287   6.123   5.281 -1.5606 -0.5233 -1.5013
10549SOL    HW232043   6.381   6.036   5.201 -1.1298 -1.2884 -0.1816
10550SOL     OW32044   3.233   6.063   5.200 -0.2685  0.4663 -0.0279
10550SOL    HW132045   3.304   6.037   5.140 -0.5556  0.2729 -0.2872
10550SOL    HW232046   3.174   6.116   5.146  1.1327  3.1326  0.8794
10551SOL     OW32047   4.132   2.976   1.176  0.4113 -0.1186 -0.1271
10551SOL    HW132048   4.186   2.914   1.126 -0.1239  0.3493 -1.3307
10551SOL    HW232049   4.186   3.055   1.183  0.7012 -0.3649  0.5403
10552SOL     OW32050   4.229   2.067   4.779 -0.0741 -0.1854  0.1983
10552SOL    HW132051   4.318   2.103   4.778  1.1111 -2.8441  0.6581
10552SOL    HW232052   4.187   2.109   4.854  0.3355  2.0160 -0.7354
10553SOL     OW32053   4.657   4.273   2.905  0.4268  0.6049 -0.4671
10553SOL    HW132054   4.658   4.188   2.947 -1.2748  0.2279 -1.1484
10553SOL    HW232055   4.687   4.256   2.815  0.9460  0.8851 -0.3534
10554SOL     OW32056   4.019   1.928   5.714 -0.2438 -0.2343  0.0734
10554SOL    HW132057   4.057   1.941   5.628  0.3114  2.7737  0.6738
10554SOL    HW232058   4.093   1.903   5.770  0.2082  1.7628  0.4362
10555SOL     OW32059   2.945   5.914   1.948  0.2294 -0.2833 -0.5847
10555SOL    HW132060   2.932   6.008   1.954 -0.9204 -0.4367 -0.5270
10555SOL    HW232061   2.983   5.901   1.861  3.9283  0.5634  0.7191
10556SOL     OW32062   5.476   3.551   4.391 -0.5003 -0.3339 -0.3295
10556SOL    HW132063   5.537   3.478   4.404  0.3493  0.2715 -0.8024
10556SOL    HW232064   5.495   3.611   4.463  0.9711  0.8396 -1.6246
10557SOL     OW32065   4.342   2.409   6.106 -0.0868 -0.2526  0.0705
10557SOL    HW132066   4.247   2.412   6.104 -0.1106  0.8115  1.3270
10557SOL    HW232067   4.369   2.407   6.014 -1.2914  0.2955 -0.3040
10558SOL     OW32068   4.811   6.323   6.423 -0.4151 -0.4139 -0.0410
10558SOL    HW132069   4.878   6.259   6.399  1.4082  1.3036  0.1251
10558SOL    HW232070   4.805   6.381   6.347  0.2847  0.9727  0.8959
10559SOL     OW32071   0.047   3.515   4.786  0.0980 -0.6917 -0.4040
10559SOL    HW132072  -0.027   3.572   4.768  0.1403 -0.8378 -1.0672
10559SOL    HW232073   0.118   3.575   4.811  0.2206 -0.4136 -1.3514
10560SOL     OW32074   5.385   4.298   1.942  0.1588  0.8318  0.0701
10560SOL    HW132075   5.360   4.359   2.012 -0.1511  1.2111 -0.3598
10560SOL    HW232076   5.372   4.348   1.861 -2.6728 -0.6166 -0.4855
10561SOL     OW32077   5.273   6.792   4.405 -0.4489 -0.6606  0.1452
10561SOL    HW132078   5.289   6.701   4.431  0.7323 -0.6129 -0.3381
10561SOL    HW232079   5.242   6.835   4.485  0.3654 -1.1660  0.7537
10562SOL     OW32080   6.011   5.388   2.531  0.2982 -0.7011 -0.0382
10562SOL    HW132081   6.072   5.316   2.518  0.2110 -0.9518  0.8794
10562SOL    HW232082   6.043   5.434   2.609 -0.9262 -1.1341  0.7612
10563SOL     OW32083   0.625   6.828   5.370  0.2331 -0.4356  0.5283
10563SOL    HW132084   0.571   6.806   5.446 -0.7681 -0.5815 -0.2044
10563SOL    HW232085   0.563   6.830   5.297  0.8150  1.5735  0.0122
10564SOL     OW32086   2.156   6.351   1.559 -0.0904 -0.0611  0.6972
10564SOL    HW132087   2.087   6.286   1.573 -1.5412  0.8810 -1.6047
10564SOL    HW232088   2.227   6.302   1.517 -1.2384 -0.1811 -1.1896
10565SOL     OW32089   1.077   4.427   6.167  0.2949 -0.5805  0.2993
10565SOL    HW132090   1.076   4.445   6.073  0.7470 -2.4807 -0.0974
10565SOL    HW232091   1.031   4.502   6.206 -0.3261  0.0026 -1.4620
10566SOL     OW32092   1.936   0.148   4.047  0.0284  0.8314  0.2524
10566SOL    HW132093   1.985   0.219   4.089 -0.5791  2.0647 -1.0292
10566SOL    HW232094   1.890   0.105   4.119  0.0993  1.9953  1.0327
10567SOL     OW32095   1.581   5.716   0.169 -0.4781 -0.5886 -0.4304
10567SOL    HW132096   1.605   5.702   0.261 -0.5970 -1.4872 -0.5209
10567SOL    HW232097   1.499   5.766   0.172 -1.1800 -1.7254 -0.0048
10568SOL     OW32098   4.642   3.321   4.252  0.1163 -0.3708 -0.5296
10568SOL    HW132099   4.636   3.358   4.165  0.3536  0.9884  0.0106
10568SOL    HW232100   4.736   3.303   4.264 -0.1550 -2.8238 -1.4181
10569SOL     OW32101   6.012   4.232   3.886 -0.5981 -0.3016  0.3309
10569SOL    HW132102   6.050   4.239   3.799  0.4512 -0.0629  0.7972
10569SOL    HW232103   5.988   4.322   3.909  1.2101 -0.0025  1.1855
10570SOL     OW32104   1.337   1.371   5.583 -0.2141  1.1168 -0.2557
10570SOL    HW132105   1.338   1.368   5.487 -2.3795 -0.9185 -0.3211
10570SOL    HW232106   1.390   1.295   5.610  0.4055  1.6948  0.1743
10571SOL     OW32107   5.632   1.185   2.837  0.1978  0.0755 -0.1458
10571SOL    HW132108   5.722   1.216   2.827 -0.0091  0.3484 -1.3438
10571SOL    HW232109   5.599   1.231   2.914  1.6306 -1.4024  1.4306
10572SOL     OW32110   2.344   3.716   5.126 -0.6457 -0.0705  0.1756
10572SOL    HW132111   2.314   3.783   5.064 -1.7092 -1.0340 -0.4025
10572SOL    HW232112   2.391   3.652   5.072  0.2951  0.1683  0.7067
10573SOL     OW32113   0.007   1.730   6.373  0.1288 -0.3166 -0.0613
10573SOL    HW132114  -0.028   1.642   6.387  0.7263 -0.8484 -1.7357
10573SOL    HW232115  -0.066   1.780   6.336 -0.2253 -0.0707  0.9373
10574SOL     OW32116   2.772   3.228   1.853  0.4686 -0.0604  0.6136
10574SOL    HW132117   2.698   3.187   1.808  0.3283  0.2959  0.5137
10574SOL    HW232118   2.742   3.240   1.943  1.0705 -1.5931  1.0500
10575SOL     OW32119   3.027   2.330   3.094  0.5081  0.0149 -0.1966
10575SOL    HW132120   3.029   2.335   2.999 -2.5632 -0.2461 -0.3991
10575SOL    HW232121   2.996   2.417   3.122  0.5219 -0.1880  0.4846
10576SOL     OW32122   0.010   1.380   5.194 -0.4160  0.0784  0.0627
10576SOL    HW132123   0.079   1.329   5.237 -0.7717  1.2578  2.1629
10576SOL    HW232124  -0.067   1.323   5.195 -0.2219 -0.1805  0.3761
10577SOL     OW32125   5.048   6.515   6.480 -0.4111 -0.1895 -0.0542
10577SOL    HW132126   5.127   6.513   6.535  0.3106 -1.4078 -1.1027
10577SOL    HW232127   5.068   6.458   6.406 -1.5810  0.9526 -1.3174
10578SOL     OW32128   6.244   5.611   1.747  0.5955  0.0787  0.0828
10578SOL    HW132129   6.239   5.521   1.779 -1.1305  0.2753  0.4583
10578SOL    HW232130   6.282   5.661   1.819  1.0480 -0.2490  0.0745
10579SOL     OW32131   3.806   4.135   6.201 -0.3924  0.0867 -0.5879
10579SOL    HW132132   3.846   4.053   6.230  0.6340  0.8391  0.1718
10579SOL    HW232133   3.856   4.203   6.246 -2.3677  1.0805  0.1712
10580SOL     OW32134   2.555   5.685   2.370  0.0406 -0.1265 -0.2599
10580SOL    HW132135   2.602   5.606   2.398 -2.0510 -1.0131  0.9658
10580SOL    HW232136   2.564   5.746   2.443  0.1805  0.0989 -0.4648
10581SOL     OW32137   4.412   0.631   5.819  0.5569  0.1117 -0.9131
10581SOL    HW132138   4.476   0.602   5.885 -0.1374 -1.6787 -0.9642
10581SOL    HW232139   4.403   0.725   5.834  2.0395  0.1320  0.1057
10582SOL     OW32140   0.968   0.415   0.422 -0.1715  0.4494  0.3852
10582SOL    HW132141   1.049   0.367   0.440  0.2475  1.8899  3.0243
10582SOL    HW232142   0.994   0.486   0.364  0.2614  0.3103  0.4084
10583SOL     OW32143   0.508   3.289   0.767 -0.4354  0.7181  0.0758
10583SOL    HW132144   0.418   3.265   0.743 -0.1119 -1.9627  1.2517
10583SOL    HW232145   0.560   3.264   0.691 -0.3849 -0.2825  0.4251
10584SOL     OW32146   1.686   5.047   3.984  0.1991  0.6098 -0.2902
10584SOL    HW132147   1.609   5.101   3.969 -0.7735 -0.2477  1.3686
10584SOL    HW232148   1.652   4.958   3.992  1.3558  0.2119  0.4513
10585SOL     OW32149   6.032   6.115   3.509 -0.0522  0.7149  0.4077
10585SOL    HW132150   5.953   6.160   3.477  0.5138  1.5883  0.2067
10585SOL    HW232151   6.063   6.065   3.435 -0.3760  0.4207  0.4672
10586SOL     OW32152   6.783   6.585   1.808 -0.1679 -0.1842 -0.2768
10586SOL    HW132153   6.830   6.516   1.760 -1.7710 -0.3860 -1.6560
10586SOL    HW232154   6.694   6.581   1.774 -0.1760  3.0281 -0.8978
10587SOL     OW32155   6.773   1.489   5.570  0.1080  0.1613 -0.1669
10587SOL    HW132156   6.819   1.409   5.597  1.5342  1.4281  1.4139
10587SOL    HW232157   6.840   1.558   5.577 -1.4541  1.7276 -0.0583
10588SOL     OW32158   5.408   1.730   0.977 -0.1087  0.2316 -0.1595
10588SOL    HW132159   5.383   1.766   1.062 -1.1172  0.3252 -0.4826
10588SOL    HW232160   5.326   1.698   0.939  0.2365  0.6742 -1.3250
10589SOL     OW32161   0.321   2.401   2.444 -0.2507  0.2808  0.2167
10589SOL    HW132162   0.253   2.447   2.395 -1.1336 -1.0616  0.1440
10589SOL    HW232163   0.362   2.343   2.380  0.5880  0.6518  0.3988
10590SOL     OW32164   6.921   4.160   0.527 -0.2318 -0.4655 -0.1753
10590SOL    HW132165   6.976   4.089   0.493  0.3369 -0.7572  1.3026
10590SOL    HW232166   6.872   4.191   0.450 -0.5771 -2.5242 -0.8506
10591SOL     OW32167   4.108   1.601   0.021 -0.1544  0.4302 -0.1598
10591SOL    HW132168   4.056   1.642  -0.048  0.7435  1.3246 -0.3259
10591SOL    HW232169   4.196   1.593  -0.016  0.8227  2.6094  1.4516
10592SOL     OW32170   3.999   6.363   2.095 -0.4399  0.0721 -0.0636
10592SOL    HW132171   4.040   6.383   2.179 -0.2921 -0.1167 -0.0921
10592SOL    HW232172   4.064   6.313   2.046 -0.0081  1.3172 -0.8225
10593SOL     OW32173   2.319   1.563   0.153  0.1819 -0.4643 -0.1540
10593SOL    HW132174   2.304   1.634   0.091  0.2496  0.5160  0.9323
10593SOL    HW232175   2.330   1.485   0.098  0.3786  0.4038 -1.3712
10594SOL     OW32176   2.590   3.262   4.119 -0.3490  0.3030 -0.5025
10594SOL    HW132177   2.667   3.319   4.113 -1.1193  1.3638 -0.4607
10594SOL    HW232178   2.613   3.186   4.065  1.0360  0.2289  0.1292
10595SOL     OW32179   4.595   6.328   1.008  0.1277  0.1729  0.1936
10595SOL    HW132180   4.681   6.306   1.043  0.0638 -0.3752  0.0190
10595SOL    HW232181   4.595   6.291   0.919  0.2801  1.5221 -0.3877
10596SOL     OW32182   3.894   6.296   3.515  0.3286  0.3984  0.2255
10596SOL    HW132183   3.854   6.240   3.580 -0.6594 -0.7270 -1.2860
10596SOL    HW232184   3.931   6.369   3.565 -3.4387  1.4611  1.7955
10597SOL     OW32185   1.614   2.114   6.099 -0.4567 -0.2983 -0.7900
10597SOL    HW132186   1.638   2.183   6.038 -0.9909 -0.3234 -1.0320
10597SOL    HW232187   1.588   2.041   6.044  0.8482 -0.9883 -0.5520
10598SOL     OW32188   3.353   3.616   5.832 -0.1323  0.3931 -0.5982
10598SOL    HW132189   3.311   3.530   5.822 -0.5349  0.7740 -2.5201
10598SOL    HW232190   3.427   3.613   5.771  0.1843  1.2233 -0.2611
10599SOL     OW32191   3.521   0.104   0.157  0.0991  0.0430 -0.3560
10599SOL    HW132192   3.526   0.054   0.076  0.1994  0.6480 -0.7348
10599SOL    HW232193   3.569   0.052   0.222  0.3564 -0.2544 -0.7824
10600SOL     OW32194   3.334   6.034   5.454 -0.5578  0.5376  0.3364
10600SOL    HW132195   3.335   5.949   5.409 -1.0349 -0.4241  2.0703
10600SOL    HW232196   3.284   6.091   5.396  0.3857 -0.1375 -1.2120
10601SOL     OW32197   4.478   1.742   5.794 -0.1266  0.3171 -0.3258
10601SOL    HW132198   4.548   1.780   5.846 -1.8531  1.3774  1.3634
10601SOL    HW232199   4.459   1.807   5.727 -1.2130  1.2872  0.8599
10602SOL     OW32200   2.375   3.322   4.287 -0.1987 -0.2162  0.0563
10602SOL    HW132201   2.395   3.346   4.377  1.6419 -1.4220  0.0154
10602SOL    HW232202   2.460   3.303   4.248 -1.0116 -0.2721 -1.7824
10603SOL     OW32203   0.521   5.884   5.404 -0.1670  0.1385  0.0210
10603SOL    HW132204   0.527   5.906   5.311  1.0043  3.3413  0.7233
10603SOL    HW232205   0.610   5.859   5.428  0.0701  1.5190  0.6865
10604SOL     OW32206   6.844   1.084   2.625 -0.2855 -0.0206 -0.0335
10604SOL    HW132207   6.756   1.046   2.628 -0.7376  0.9949 -0.0932
10604SOL    HW232208   6.857   1.121   2.712 -0.9913  2.1217 -0.7739
10605SOL     OW32209   1.149   0.547   1.430 -0.1713  0.3128  0.4789
10605SOL    HW132210   1.172   0.458   1.458  0.2953 -0.4097 -1.9619
10605SOL    HW232211   1.069   0.536   1.379  0.4505  1.1230 -0.7193
10606SOL     OW32212   5.868   5.925   6.835 -0.0223 -0.3806 -0.0864
10606SOL    HW132213   5.774   5.932   6.816 -0.3187 -2.4930  0.3157
10606SOL    HW232214   5.910   5.938   6.750 -0.8010 -1.2053 -0.6221
10607SOL     OW32215   0.963   2.075   3.859  0.5380  0.2125 -0.0615
10607SOL    HW132216   0.954   2.049   3.951  0.4430  1.8250  0.4226
10607SOL    HW232217   1.012   2.004   3.818  0.0224 -0.8361  1.0925
10608SOL     OW32218   0.119   5.866   5.824  0.3357  0.1848  0.1168
10608SOL    HW132219   0.127   5.771   5.832 -1.3363  0.0549  0.6531
10608SOL    HW232220   0.053   5.880   5.756  0.0180  0.9491  0.5650
10609SOL     OW32221   0.843   1.009   6.131  0.5590  0.4329  0.0632
10609SOL    HW132222   0.884   0.999   6.217  2.7030  1.8072 -0.7095
10609SOL    HW232223   0.901   1.069   6.084  0.0520 -1.0729 -2.7235
10610SOL     OW32224   1.794   6.306   0.323 -0.0137 -0.2483 -0.1755
10610SOL    HW132225   1.761   6.224   0.358  0.4035 -0.3608 -0.0379
10610SOL    HW232226   1.866   6.280   0.264  1.3022  0.1004  1.2070
10611SOL     OW32227   0.402   1.753   1.166  0.3138  0.4337  0.2903
10611SOL    HW132228   0.312   1.720   1.155  0.7772 -0.8710  0.2520
10611SOL    HW232229   0.414   1.814   1.093  0.1898 -1.0464 -1.0099
10612SOL     OW32230   4.319   1.690   0.398  0.5721 -0.3064 -0.1340
10612SOL    HW132231   4.266   1.718   0.324  0.2096  0.7961  0.5269
10612SOL    HW232232   4.256   1.665   0.465  0.8960 -0.8315 -0.0207
10613SOL     OW32233   2.555   0.699   6.319  0.1313  0.0455  0.4228
10613SOL    HW132234   2.603   0.772   6.359 -0.2903  1.0369 -0.8292
10613SOL    HW232235   2.597   0.687   6.234 -0.8517 -0.0818 -0.0576
10614SOL     OW32236   2.088   3.470   1.872  0.0542 -0.3204  0.0697
10614SOL    HW132237   2.168   3.423   1.891 -0.0661 -0.3899  0.4046
10614SOL    HW232238   2.098   3.498   1.781  0.7385  0.2330  0.3055
10615SOL     OW32239   2.420   6.552   4.249  0.1394 -0.3527  0.5137
10615SOL    HW132240   2.512   6.524   4.255 -0.0725 -1.5875 -1.0426
10615SOL    HW232241   2.424   6.644   4.225  1.0135 -0.6195 -0.4335
10616SOL     OW32242   2.424   4.450   4.715 -0.4878  0.1823 -0.4701
10616SOL    HW132243   2.371   4.421   4.641 -0.3135  0.4313 -0.6935
10616SOL    HW232244   2.458   4.369   4.753 -0.4151  0.0650 -0.7812
10617SOL     OW32245   1.596   5.303   6.301 -0.1911 -0.6273 -0.7782
10617SOL    HW132246   1.571   5.221   6.344 -0.8292 -0.5394 -0.9728
10617SOL    HW232247   1.550   5.302   6.218 -0.9603  0.3602 -0.3870
10618SOL     OW32248   6.819   1.563   3.426  0.2118  0.7113  0.4746
10618SOL    HW132249   6.743   1.511   3.452 -0.9912  1.3878 -1.4340
10618SOL    HW232250   6.884   1.499   3.399 -0.5331  0.1403  0.0012
10619SOL     OW32251   1.508   6.251   1.916 -0.0007 -0.3007  0.2152
10619SOL    HW132252   1.583   6.309   1.932  0.2938 -0.8910  1.0224
10619SOL    HW232253   1.537   6.194   1.845 -0.5933  1.0463 -1.1660
10620SOL     OW32254   5.536   2.442   1.084  0.5508 -0.2225 -0.4598
10620SOL    HW132255   5.575   2.458   0.998  0.1713 -0.3602 -0.6609
10620SOL    HW232256   5.455   2.493   1.083 -0.0868 -1.1989 -0.6691
10621SOL     OW32257   5.167   6.282   1.271  0.0579  0.5447  0.3586
10621SOL    HW132258   5.211   6.216   1.324 -0.2470  0.9751  1.1574
10621SOL    HW232259   5.139   6.234   1.192  0.0372 -0.2301  0.8239
10622SOL     OW32260   4.497   6.163   0.782  0.2925 -0.3521  0.2944
10622SOL    HW132261   4.568   6.099   0.771  0.2143 -0.6078  1.1667
10622SOL    HW232262   4.493   6.210   0.699  1.3475 -0.4748  0.1642
10623SOL     OW32263   1.317   0.794   0.806 -0.6069  0.5402  0.0839
10623SOL    HW132264   1.315   0.874   0.754  0.4161  0.5532  0.0518
10623SOL    HW232265   1.225   0.771   0.816 -0.8712  1.0476 -0.9402
10624SOL     OW32266   3.488   5.702   0.312 -0.3109 -0.2217  0.3110
10624SOL    HW132267   3.541   5.662   0.242 -0.6197  0.9785 -0.6546
10624SOL    HW232268   3.545   5.771   0.348 -0.5185 -0.1839  0.5657
10625SOL     OW32269   2.823   5.960   1.651 -0.9510 -0.3030  0.1815
10625SOL    HW132270   2.785   6.042   1.682 -1.8202 -0.4938 -0.3288
10625SOL    HW232271   2.901   5.986   1.602 -0.0564  0.0524  1.7551
10626SOL     OW32272   4.713   5.324   6.918  1.0005  0.0964  0.6704
10626SOL    HW132273   4.748   5.334   7.007 -0.4802  1.3505  1.1544
10626SOL    HW232274   4.671   5.408   6.899 -0.9571 -1.0180 -0.1992
10627SOL     OW32275   2.280   2.862   3.009  0.1214  0.2227  0.2787
10627SOL    HW132276   2.206   2.805   3.030 -0.9628  1.4348 -0.0898
10627SOL    HW232277   2.313   2.890   3.094  1.2857 -1.6490  0.5020
10628SOL     OW32278   4.296   3.756   1.025 -0.5595  0.6810  0.1003
10628SOL    HW132279   4.215   3.805   1.006 -0.3287  0.8304 -0.5223
10628SOL    HW232280   4.356   3.822   1.061 -1.7908 -0.0240  3.8938
10629SOL     OW32281   5.283   3.072   3.659 -0.8886  0.2741  0.0913
10629SOL    HW132282   5.216   3.028   3.712 -1.9942  1.1991 -0.4844
10629SOL    HW232283   5.335   3.000   3.623 -2.1273 -0.5444 -0.1618
10630SOL     OW32284   1.485   2.590   4.696  0.2687  0.0779 -0.6499
10630SOL    HW132285   1.516   2.676   4.667  1.0048 -1.0280 -3.4962
10630SOL    HW232286   1.413   2.569   4.636 -0.4850 -0.9472  0.5698
10631SOL     OW32287   5.342   4.359   2.684  1.1031 -0.4852  0.4694
10631SOL    HW132288   5.286   4.304   2.630  2.1884 -1.2387  0.1000
10631SOL    HW232289   5.334   4.446   2.645  1.5919 -0.9473 -0.7033
10632SOL     OW32290   1.451   1.998   5.339  0.7698 -1.2025  0.0353
10632SOL    HW132291   1.431   2.018   5.247 -0.7402 -1.1240  0.3535
10632SOL    HW232292   1.501   2.073   5.370 -1.6986  0.4499  0.2156
10633SOL     OW32293   0.428   0.706   0.161  0.0957  0.1287  0.1586
10633SOL    HW132294   0.436   0.616   0.129  2.0020  0.0462  0.7340
10633SOL    HW232295   0.518   0.737   0.167 -0.5139  2.0053  0.2375
10634SOL     OW32296   4.399   3.443   4.310  0.3408  0.7250 -0.6460
10634SOL    HW132297   4.336   3.381   4.347 -2.0583  1.8579 -2.5378
10634SOL    HW232298   4.481   3.394   4.304 -0.1192 -0.6776  2.3937
10635SOL     OW32299   0.318   3.932   2.646 -0.0962  0.1258  0.3557
10635SOL    HW132300   0.396   3.877   2.646  0.1395  0.4507  1.5154
10635SOL    HW232301   0.266   3.901   2.720 -0.5368  0.6658  0.2773
10636SOL     OW32302   5.048   3.261   6.308 -0.0316  0.3370 -0.2637
10636SOL    HW132303   5.084   3.184   6.264  0.0533 -1.5017  2.7350
10636SOL    HW232304   5.069   3.334   6.249 -0.1253 -1.8502 -3.2733
10637SOL     OW32305   2.586   3.971   3.056 -0.6364  0.4954  0.2404
10637SOL    HW132306   2.505   3.945   3.101 -1.6875  1.2126 -1.1708
10637SOL    HW232307   2.636   3.890   3.050 -1.5052 -0.0919  0.6206
10638SOL     OW32308   2.990   3.070   6.281  0.2080  0.1055 -0.0182
10638SOL    HW132309   2.929   3.014   6.233 -0.5113  0.6126  0.2838
10638SOL    HW232310   2.936   3.143   6.312  1.0838  0.8604 -0.2235
10639SOL     OW32311   3.513   1.031   6.299 -0.2649 -0.2677 -0.2317
10639SOL    HW132312   3.594   1.022   6.249  0.6643  0.1264  1.1368
10639SOL    HW232313   3.512   1.122   6.329 -1.3504 -0.1977 -0.4350
10640SOL     OW32314   4.692   4.625   2.562 -0.1588  0.2869 -0.6899
10640SOL    HW132315   4.677   4.637   2.655 -0.6781  0.8933 -0.8508
10640SOL    HW232316   4.768   4.567   2.558 -0.8750 -0.7522  0.1140
10641SOL     OW32317   5.322   3.958   3.822 -0.3409 -0.3910  0.2488
10641SOL    HW132318   5.275   3.946   3.904 -1.2675  0.4048 -0.1506
10641SOL    HW232319   5.317   4.052   3.805  1.3652 -0.2746  0.1600
10642SOL     OW32320   4.061   4.931   2.394 -0.5621  0.3738 -0.0714
10642SOL    HW132321   4.077   4.937   2.488 -1.0169  0.4081  0.0036
10642SOL    HW232322   3.977   4.886   2.386 -0.8135  0.8908 -0.4408
10643SOL     OW32323   0.871   5.243   1.173  0.0100 -0.0941 -0.0548
10643SOL    HW132324   0.783   5.274   1.195  0.6073  0.4901  1.6899
10643SOL    HW232325   0.857   5.164   1.121 -1.5398  0.2648 -0.2099
10644SOL     OW32326   1.912   0.930   6.386  0.1373 -0.4919  0.1816
10644SOL    HW132327   1.964   0.877   6.447  0.0305 -0.8453 -0.0320
10644SOL    HW232328   1.952   0.916   6.301 -2.3933 -3.6711 -0.6747
10645SOL     OW32329   1.020   0.334   3.820 -0.0002  0.0300  0.0642
10645SOL    HW132330   0.944   0.301   3.773 -1.2319  0.7697  1.4694
10645SOL    HW232331   1.067   0.388   3.757 -0.3906 -0.7839 -0.9427
10646SOL     OW32332   6.164   4.326   6.020 -0.9012 -0.2836 -0.1567
10646SOL    HW132333   6.174   4.231   6.012  1.0907 -0.1411  0.1055
10646SOL    HW232334   6.173   4.343   6.114  1.6953  0.3789 -0.4508
10647SOL     OW32335   0.081   3.016   2.598 -0.1121 -0.5364  0.2385
10647SOL    HW132336   0.092   3.071   2.520 -1.6863  0.1487  0.4600
10647SOL    HW232337   0.168   3.011   2.637  0.0859  1.8282  0.2125
10648SOL     OW32338   6.470   5.821   6.411 -0.2477 -0.3063 -0.2826
10648SOL    HW132339   6.456   5.861   6.325 -0.6004 -1.8615 -0.9860
10648SOL    HW232340   6.556   5.851   6.438 -0.6058  1.1136 -0.6461
10649SOL     OW32341   3.198   3.740   3.709  0.0314  0.6763 -0.7356
10649SOL    HW132342   3.176   3.650   3.735  0.3191  0.7962 -0.0584
10649SOL    HW232343   3.282   3.732   3.663 -0.1532  0.5469 -1.0524
10650SOL     OW32344   0.890   4.978   0.352 -0.4378  0.0476  0.4389
10650SOL    HW132345   0.905   5.005   0.443  0.4986  0.2164  0.2430
10650SOL    HW232346   0.977   4.957   0.318 -0.5744  1.4689 -0.8905
10651SOL     OW32347   0.905   1.649   0.030  0.0164  0.4392 -0.1942
10651SOL    HW132348   0.859   1.568   0.006 -0.5802 -0.1872  2.6915
10651SOL    HW232349   0.997   1.623   0.038 -0.2632 -0.1821  1.3664
10652SOL     OW32350   5.583   3.213   3.144 -0.5029  0.2764  0.1916
10652SOL    HW132351   5.558   3.220   3.052  1.0238  1.0537 -0.1850
10652SOL    HW232352   5.657   3.272   3.154  0.5606 -1.1810  1.4757
10653SOL     OW32353   1.053   0.998   5.692  1.1926 -0.1064  0.3946
10653SOL    HW132354   0.965   1.015   5.660  1.5381  1.4912  0.2041
10653SOL    HW232355   1.057   1.043   5.776  2.0460  0.4617  0.0606
10654SOL     OW32356   2.271   3.814   2.352 -0.2926  0.4530  0.4372
10654SOL    HW132357   2.326   3.747   2.392  0.0637  0.3888 -0.1637
10654SOL    HW232358   2.332   3.875   2.311 -0.6926 -0.3253 -1.3835
10655SOL     OW32359   4.915   1.346   2.936  0.4268 -0.4358 -0.4827
10655SOL    HW132360   4.910   1.262   2.891  0.4786 -0.0938 -1.1326
10655SOL    HW232361   4.875   1.408   2.876 -2.5540 -0.4568  1.2642
10656SOL     OW32362   2.969   2.501   6.212 -0.3026  0.6485 -0.1580
10656SOL    HW132363   3.013   2.586   6.214  0.7502  0.1445 -0.6623
10656SOL    HW232364   2.977   2.467   6.301 -2.6031  1.9599  0.6070
10657SOL     OW32365   5.549   0.528   2.483 -0.2312 -0.3090  0.5362
10657SOL    HW132366   5.598   0.503   2.561  1.2454 -1.7422 -0.7758
10657SOL    HW232367   5.566   0.622   2.473  0.8545 -0.4423  1.0628
10658SOL     OW32368   6.235   3.958   6.461 -0.2908 -0.2991  0.2933
10658SOL    HW132369   6.193   3.994   6.539  1.5603  0.6471  0.9228
10658SOL    HW232370   6.291   3.888   6.494  0.9409  0.4791 -0.0704
10659SOL     OW32371   2.943   5.917   0.274 -0.1749  0.1862  0.0095
10659SOL    HW132372   2.900   5.924   0.358 -0.5158 -0.3716 -0.1164
10659SOL    HW232373   2.876   5.885   0.214 -0.1650  1.3597 -0.6666
10660SOL     OW32374   4.357   4.319   6.016  0.1879 -0.4768 -0.0856
10660SOL    HW132375   4.355   4.226   6.038 -1.7858 -0.6058 -0.5942
10660SOL    HW232376   4.395   4.321   5.928 -1.1830 -0.9939 -0.7161
10661SOL     OW32377   4.459   6.424   1.245 -0.2667 -0.5213 -0.0648
10661SOL    HW132378   4.388   6.370   1.210 -0.0876 -0.9082  0.1548
10661SOL    HW232379   4.524   6.428   1.174  0.3533 -1.7803  0.3979
10662SOL     OW32380   4.863   4.525   0.298 -0.4900 -0.0175  0.3598
10662SOL    HW132381   4.867   4.495   0.207  0.0323 -1.0213  0.6910
10662SOL    HW232382   4.820   4.453   0.344  2.6820 -1.3702  1.5607
10663SOL     OW32383   5.367   1.225   0.340 -0.0429  0.1955  0.0567
10663SOL    HW132384   5.440   1.214   0.280  1.1546  0.0483  1.4736
10663SOL    HW232385   5.369   1.147   0.395 -1.8028 -0.2054 -0.4024
10664SOL     OW32386   3.411   3.177   0.549  0.5444  0.6491  0.5763
10664SOL    HW132387   3.451   3.116   0.611 -0.6723  0.3848  1.1416
10664SOL    HW232388   3.356   3.234   0.604 -1.0844 -0.0091 -0.2880
10665SOL     OW32389   0.483   2.928   6.443 -0.8120 -0.2023  0.2582
10665SOL    HW132390   0.502   3.013   6.483 -0.2026 -0.0293 -0.3788
10665SOL    HW232391   0.531   2.865   6.495  3.2017  0.3619 -2.2880
10666SOL     OW32392   4.039   6.357   5.623  0.1039  0.1594 -0.2050
10666SOL    HW132393   4.114   6.299   5.610  0.3193  0.2552  0.6255
10666SOL    HW232394   4.043   6.417   5.548  0.6113 -0.0885 -0.3857
10667SOL     OW32395   0.543   3.953   2.881  0.0390 -0.1696  0.4904
10667SOL    HW132396   0.483   3.882   2.858 -0.1989 -0.0548  0.7472
10667SOL    HW232397   0.531   3.965   2.976 -0.1752  0.4384  0.3941
10668SOL     OW32398   3.651   1.265   1.861 -0.3134  0.4234  0.1011
10668SOL    HW132399   3.737   1.280   1.902  0.3055 -0.1136 -0.9530
10668SOL    HW232400   3.635   1.171   1.875 -1.4883  0.8196  1.6681
10669SOL     OW32401   5.037   6.815   0.189  0.3936  0.3318  0.3983
10669SOL    HW132402   5.001   6.792   0.103  2.1417  2.1764 -0.9363
10669SOL    HW232403   4.964   6.801   0.250 -1.3845  0.3525 -1.5874
10670SOL     OW32404   3.123   1.695   2.158  0.6010  0.3685  0.1214
10670SOL    HW132405   3.073   1.699   2.240 -0.0139  1.0889 -0.2793
10670SOL    HW232406   3.181   1.771   2.161  0.8105  0.2144  0.0308
10671SOL     OW32407   5.139   2.136   5.708 -0.5314 -0.3060 -0.2842
10671SOL    HW132408   5.059   2.182   5.732 -0.2175 -0.3752  0.9267
10671SOL    HW232409   5.110   2.045   5.693 -1.0055  0.0698 -1.8690
10672SOL     OW32410   2.181   4.516   6.161  0.3311  0.4214  0.0068
10672SOL    HW132411   2.193   4.429   6.122  2.6193  0.6780  0.0140
10672SOL    HW232412   2.270   4.548   6.175 -0.4715  2.3706  0.9301
10673SOL     OW32413   4.597   0.231   6.270  0.0814 -0.0874 -0.3662
10673SOL    HW132414   4.676   0.189   6.304 -0.4829 -0.4766  0.5082
10673SOL    HW232415   4.613   0.240   6.176  1.2861  0.1326 -0.1463
10674SOL     OW32416   6.079   4.214   6.855  0.3291  0.0479 -0.2700
10674SOL    HW132417   6.058   4.280   6.921 -2.0406 -0.8587 -0.0265
10674SOL    HW232418   6.135   4.151   6.901 -1.2724 -0.5616  0.9479
10675SOL     OW32419   3.552   4.867   4.088 -0.1680  0.1817 -0.7068
10675SOL    HW132420   3.611   4.823   4.149 -0.6011 -0.6732 -0.8842
10675SOL    HW232421   3.544   4.806   4.014 -0.4788  0.7310 -1.1353
10676SOL     OW32422   2.601   0.737   0.540 -0.1434 -0.5265  0.0576
10676SOL    HW132423   2.696   0.739   0.528 -0.0450 -0.8511  0.7433
10676SOL    HW232424   2.583   0.810   0.600 -0.3217 -0.4886 -0.0424
10677SOL     OW32425   0.022   4.593   4.824  0.2006 -0.1356  0.0327
10677SOL    HW132426   0.080   4.647   4.771  0.3357  1.3794  1.6140
10677SOL    HW232427   0.076   4.520   4.853  0.2172 -0.7947 -1.5550
10678SOL     OW32428   0.175   1.983   0.344  0.1659  0.1387  0.5294
10678SOL    HW132429   0.090   2.020   0.320 -0.1352 -1.0798 -0.4271
10678SOL    HW232430   0.188   2.009   0.435 -1.3640  0.1155  0.7843
10679SOL     OW32431   6.109   2.304   2.729 -0.1851 -0.0674 -0.4036
10679SOL    HW132432   6.051   2.243   2.775 -0.2973 -0.0405 -0.5067
10679SOL    HW232433   6.182   2.251   2.700  2.1360  0.5928  3.4691
10680SOL     OW32434   3.231   1.344   4.730  0.2477 -1.1557 -0.0972
10680SOL    HW132435   3.199   1.419   4.680 -1.0933 -1.8216 -0.2846
10680SOL    HW232436   3.255   1.381   4.816 -1.2860 -0.6343  0.1426
10681SOL     OW32437   2.262   1.101   1.692  0.1148  0.2298 -0.2260
10681SOL    HW132438   2.223   1.013   1.695 -1.7172  0.9818 -0.5550
10681SOL    HW232439   2.262   1.130   1.783 -2.2974  1.0688 -0.4087
10682SOL     OW32440   3.749   1.923   3.965 -0.0331 -0.6520  0.0310
10682SOL    HW132441   3.829   1.903   4.013  0.1127 -0.0200  0.0569
10682SOL    HW232442   3.773   1.996   3.908 -1.1094  0.9760  1.5422
10683SOL     OW32443   5.809   4.011   6.245  0.1390  0.2989  0.1183
10683SOL    HW132444   5.879   3.946   6.237  0.5400  0.7551 -0.1466
10683SOL    HW232445   5.737   3.976   6.194  0.8872  0.7763 -1.3133
10684SOL     OW32446   6.564   1.185   3.874  0.3932 -0.2536 -0.4261
10684SOL    HW132447   6.624   1.138   3.932 -0.7119 -1.7930 -0.4725
10684SOL    HW232448   6.477   1.171   3.912 -0.2425 -0.4092 -1.8506
10685SOL     OW32449   1.962   1.253   4.845  0.8541 -0.2828 -0.0496
10685SOL    HW132450   1.985   1.162   4.865 -0.5368 -0.9685 -1.3397
10685SOL    HW232451   1.918   1.248   4.760  0.6479  1.5996 -0.0905
10686SOL     OW32452   2.004   0.277   5.777  0.1837  0.0090  0.2570
10686SOL    HW132453   2.071   0.284   5.845 -1.0234  0.3504  1.4516
10686SOL    HW232454   1.923   0.305   5.820 -0.3001  2.1873 -1.8200
10687SOL     OW32455   2.738   1.484   3.406 -0.0149  0.2966 -0.6573
10687SOL    HW132456   2.798   1.415   3.378  0.8131  1.1253 -0.9907
10687SOL    HW232457   2.655   1.463   3.364  0.3935 -0.1526 -1.2552
10688SOL     OW32458   3.362   6.579   4.687 -0.0014 -0.0228  0.1140
10688SOL    HW132459   3.375   6.488   4.713 -0.3296  0.2829  1.3899
10688SOL    HW232460   3.291   6.575   4.623 -2.9683 -0.3196  3.1604
10689SOL     OW32461   1.019   1.492   2.426  0.6799  0.2899 -0.1990
10689SOL    HW132462   0.986   1.499   2.516 -1.9779  2.7323 -1.1897
10689SOL    HW232463   1.077   1.567   2.415  1.0201 -0.0139 -0.5298
10690SOL     OW32464   3.590   5.254   5.139  0.2259 -0.1454  0.1513
10690SOL    HW132465   3.658   5.254   5.207 -0.0466 -0.7690  0.4284
10690SOL    HW232466   3.621   5.190   5.075 -0.2672 -0.6965  0.4538
10691SOL     OW32467   4.575   6.478   4.882 -0.4297  0.5139 -0.3617
10691SOL    HW132468   4.610   6.470   4.793  1.6489 -0.1252  0.4381
10691SOL    HW232469   4.637   6.537   4.927 -1.1314  0.4093  0.7955
10692SOL     OW32470   4.556   6.124   5.259  0.4193 -0.1566  0.7775
10692SOL    HW132471   4.515   6.168   5.184 -0.4961  0.2703  1.5102
10692SOL    HW232472   4.522   6.171   5.336  2.8521  0.7198  1.4038
10693SOL     OW32473   3.801   4.214   1.792  0.1459  0.5731 -0.0752
10693SOL    HW132474   3.760   4.188   1.709  0.8245  2.2330 -0.9947
10693SOL    HW232475   3.770   4.304   1.806  1.1888  0.8287  0.6950
10694SOL     OW32476   1.284   2.130   3.918 -0.0434 -0.5478 -0.0488
10694SOL    HW132477   1.204   2.079   3.925 -0.1397 -0.3761  0.1099
10694SOL    HW232478   1.336   2.104   3.994  0.2324 -0.9727 -0.3819
10695SOL     OW32479   2.388   4.487   6.640  0.3258  0.4425 -0.2503
10695SOL    HW132480   2.453   4.453   6.702  0.4298  1.9853  0.5201
10695SOL    HW232481   2.414   4.449   6.555  2.0585  0.7957  0.0927
10696SOL     OW32482   0.776   6.859   4.527  0.1858 -0.0387 -0.0657
10696SOL    HW132483   0.683   6.864   4.548  0.2970  1.8280  0.1031
10696SOL    HW232484   0.790   6.927   4.461  1.6791  0.6453  0.9070
10697SOL     OW32485   4.642   1.812   1.275 -0.0111  0.8022  0.2194
10697SOL    HW132486   4.574   1.751   1.244 -1.9658  2.4844  0.9980
10697SOL    HW232487   4.719   1.788   1.224 -1.5749 -0.2114 -1.8473
10698SOL     OW32488   4.410   4.283   1.400  0.2207 -0.0174 -0.5678
10698SOL    HW132489   4.457   4.207   1.434  1.0445  0.5368 -0.4319
10698SOL    HW232490   4.469   4.321   1.335  0.6668  1.5906  0.7095
10699SOL     OW32491   0.182   5.196   5.296  0.0071  0.5872  0.1897
10699SOL    HW132492   0.135   5.273   5.265 -0.4841  1.1416  2.1497
10699SOL    HW232493   0.120   5.124   5.287  0.5663  0.3086 -1.9229
10700SOL     OW32494   0.440   6.568   0.779  0.0817 -0.6103  0.1726
10700SOL    HW132495   0.490   6.567   0.861  0.1418  0.2868  0.1594
10700SOL    HW232496   0.458   6.483   0.739 -0.1750 -1.1760  1.2211
10701SOL     OW32497   6.580   4.657   0.098 -0.0615 -0.7147 -0.2817
10701SOL    HW132498   6.574   4.749   0.074 -0.5322 -0.6642  0.0100
10701SOL    HW232499   6.507   4.615   0.053  1.0488 -1.2335 -1.6549
10702SOL     OW32500   0.478   3.277   6.337 -0.4646  0.5213  0.5036
10702SOL    HW132501   0.444   3.285   6.426 -1.8720  0.4754  0.0091
10702SOL    HW232502   0.537   3.352   6.326 -2.0257  1.8602  0.7614
10703SOL     OW32503   4.351   6.706   4.359 -0.0292 -0.5899  0.0026
10703SOL    HW132504   4.290   6.767   4.317  1.4850  2.0689  1.3951
10703SOL    HW232505   4.295   6.636   4.394 -2.0855  0.8423 -0.2325
10704SOL     OW32506   6.787   0.986   0.941  0.2815 -0.7741 -0.2809
10704SOL    HW132507   6.873   0.953   0.915 -0.3016 -2.1747 -0.5076
10704SOL    HW232508   6.805   1.037   1.020  1.5763  0.6091 -1.3974
10705SOL     OW32509   2.510   5.924   3.557  0.2410  0.5555  0.1169
10705SOL    HW132510   2.532   5.981   3.484  2.7240 -0.4927 -0.0799
10705SOL    HW232511   2.455   5.856   3.519  2.6547 -0.7793 -1.2298
10706SOL     OW32512   4.415   5.092   5.696  0.0968  0.2757 -0.1372
10706SOL    HW132513   4.475   5.034   5.650 -0.2514  0.5535 -0.9602
10706SOL    HW232514   4.452   5.179   5.685 -0.0431  0.3546  0.0109
10707SOL     OW32515   3.253   2.919   1.910  0.0736 -0.3886  0.0191
10707SOL    HW132516   3.331   2.882   1.871  1.4349  0.0512  2.1454
10707SOL    HW232517   3.282   3.001   1.951 -0.8139 -1.4356  3.0638
10708SOL     OW32518   6.299   4.390   3.415 -0.3490  0.5244  0.7804
10708SOL    HW132519   6.351   4.466   3.390  0.6604 -0.3475  0.1753
10708SOL    HW232520   6.275   4.348   3.332 -0.3196 -0.1878  1.1176
10709SOL     OW32521   2.819   3.158   1.049  0.5803 -0.2368 -0.0514
10709SOL    HW132522   2.813   3.081   1.106 -2.0885  0.6850  1.0726
10709SOL    HW232523   2.810   3.123   0.960  2.8471 -1.5018  0.1383
10710SOL     OW32524   4.357   2.062   4.123 -0.2021 -0.7000 -0.4771
10710SOL    HW132525   4.336   2.001   4.053  1.0284 -0.7202 -0.8635
10710SOL    HW232526   4.275   2.075   4.170 -1.1371 -0.4318 -2.1167
10711SOL     OW32527   1.301   4.695   1.458 -0.1439 -1.1147 -0.2579
10711SOL    HW132528   1.296   4.644   1.539 -4.5957  2.5051  2.2001
10711SOL    HW232529   1.355   4.770   1.480  3.2911 -2.6049 -2.6935
10712SOL     OW32530   5.953   2.785   4.137  0.2987  0.4566  0.1111
10712SOL    HW132531   5.886   2.725   4.105  1.5148  0.5457 -2.9784
10712SOL    HW232532   5.912   2.872   4.133 -0.1313  0.2808  0.5643
10713SOL     OW32533   5.716   4.007   0.321  0.0421  0.2445  0.1206
10713SOL    HW132534   5.749   4.080   0.373  0.4190  0.7978 -0.8633
10713SOL    HW232535   5.788   3.944   0.320  0.9455  1.2051 -1.5477
10714SOL     OW32536   5.664   4.125   6.516  0.0352 -0.4554 -0.3711
10714SOL    HW132537   5.712   4.092   6.440  0.8030  0.2274 -0.1987
10714SOL    HW232538   5.732   4.152   6.578 -0.5547  1.2809 -0.4327
10715SOL     OW32539   6.946   4.045   1.755  0.1369 -0.3049  0.4206
10715SOL    HW132540   7.038   4.058   1.778 -0.8501  2.6939  3.5274
10715SOL    HW232541   6.913   3.984   1.821 -0.1233 -1.6454 -0.8844
10716SOL     OW32542   3.039   3.322   4.240  0.4679 -0.3172 -0.7043
10716SOL    HW132543   2.995   3.361   4.316  0.8597  0.6719 -0.9688
10716SOL    HW232544   3.006   3.371   4.165  1.2913 -0.2118 -1.0066
10717SOL     OW32545   4.044   2.806   0.619 -0.3105  0.0596  0.1248
10717SOL    HW132546   3.992   2.869   0.669 -0.8690  1.0572 -1.6173
10717SOL    HW232547   4.062   2.851   0.536  2.0967 -0.8193  0.0776
10718SOL     OW32548   3.245   0.692   2.748 -0.1172 -0.3595 -0.4997
10718SOL    HW132549   3.333   0.660   2.771  0.2306  0.3245 -0.8646
10718SOL    HW232550   3.242   0.781   2.783  0.1670  0.4555 -2.4409
10719SOL     OW32551   2.065   0.927   6.150  0.8719  0.5375 -0.1353
10719SOL    HW132552   2.060   0.961   6.061  0.0717  0.0926 -0.2662
10719SOL    HW232553   2.154   0.892   6.157  0.7782  0.1125 -0.9372
10720SOL     OW32554   3.922   3.041   1.800  0.1898  0.5312  0.1770
10720SOL    HW132555   3.892   2.973   1.740 -0.8433  1.2661 -0.1716
10720SOL    HW232556   3.921   3.121   1.747 -0.2264  1.0994  1.0298
10721SOL     OW32557   1.379   3.065   3.545  0.1162 -0.1511 -0.2973
10721SOL    HW132558   1.339   3.016   3.618  0.7315 -1.8246 -1.0253
10721SOL    HW232559   1.469   3.034   3.543  1.0936  2.4466  0.3512
10722SOL     OW32560   0.583   5.279   0.373 -0.2714 -0.1569  0.1813
10722SOL    HW132561   0.666   5.235   0.353 -0.2699 -2.3365  4.0195
10722SOL    HW232562   0.602   5.372   0.362  3.0295 -0.4994  1.6504
10723SOL     OW32563   2.430   3.371   0.534  0.2547 -0.1923 -0.2594
10723SOL    HW132564   2.526   3.378   0.534  0.2515 -0.0491 -1.0506
10723SOL    HW232565   2.399   3.461   0.545  0.1813 -0.5280  3.1018
10724SOL     OW32566   6.325   0.315   5.906 -0.0683 -0.2710  0.1467
10724SOL    HW132567   6.329   0.244   5.971  0.9502 -0.9685 -0.6388
10724SOL    HW232568   6.392   0.292   5.842  0.0459  1.2513 -0.3074
10725SOL     OW32569   3.931   0.599   1.381  0.1969 -0.4813  0.3207
10725SOL    HW132570   3.935   0.694   1.386 -4.0982  0.1001 -2.3850
10725SOL    HW232571   3.990   0.576   1.308 -0.4535  0.4086 -0.5046
10726SOL     OW32572   0.971   2.516   2.072  0.2797  0.3537 -0.1696
10726SOL    HW132573   0.898   2.553   2.121 -1.7399 -1.4115 -1.6577
10726SOL    HW232574   1.039   2.502   2.138 -1.4380  0.2569  1.6915
10727SOL     OW32575   4.252   6.044   6.152  0.0928 -0.5330  0.5466
10727SOL    HW132576   4.266   6.089   6.068 -2.1423 -0.3741  0.1930
10727SOL    HW232577   4.329   6.067   6.204  0.7077  0.8092 -0.8473
10728SOL     OW32578   0.149   6.060   4.957 -0.0682  0.3995  0.2303
10728SOL    HW132579   0.102   5.987   4.998 -0.3366  0.6674  0.4013
10728SOL    HW232580   0.234   6.024   4.934  0.2972  0.4015  1.5340
10729SOL     OW32581   6.763   0.468   1.010  0.2194  0.3498  0.1404
10729SOL    HW132582   6.747   0.392   1.067 -2.0321  0.7284  0.0932
10729SOL    HW232583   6.702   0.457   0.938  0.8858  1.4878 -0.6245
10730SOL     OW32584   6.418   0.807   6.407 -0.2572  0.5065  0.7258
10730SOL    HW132585   6.469   0.740   6.362  0.6668  0.9474  1.0855
10730SOL    HW232586   6.482   0.874   6.430 -1.1165  1.3931  0.6057
10731SOL     OW32587   6.514   4.605   3.897  0.3513  0.9137 -0.1369
10731SOL    HW132588   6.442   4.546   3.916  0.5942  1.0339  1.2931
10731SOL    HW232589   6.513   4.668   3.969  0.4501  2.3285 -1.3242
10732SOL     OW32590   4.108   2.805   3.582 -0.4245  0.4188 -0.3192
10732SOL    HW132591   4.108   2.711   3.602  1.2618  0.2686 -0.9337
10732SOL    HW232592   4.199   2.832   3.588 -0.8930  2.0903  0.0336
10733SOL     OW32593   5.579   4.539   4.983  0.2881 -0.0482  0.3847
10733SOL    HW132594   5.671   4.545   5.007  0.2258 -1.8756  1.2599
10733SOL    HW232595   5.559   4.446   4.989 -1.6928  0.3390  0.5048
10734SOL     OW32596   4.370   3.275   6.695  0.2695 -0.5235  0.3942
10734SOL    HW132597   4.392   3.328   6.771  0.5335 -1.2056  0.8059
10734SOL    HW232598   4.290   3.315   6.660  0.3681  0.0304  0.7962
10735SOL     OW32599   0.774   4.704   3.733 -0.4807 -0.6743  0.2983
10735SOL    HW132600   0.706   4.754   3.780 -0.5910 -1.2971  0.8178
10735SOL    HW232601   0.803   4.763   3.664 -0.2147  0.3349  1.2366
10736SOL     OW32602   2.571   4.869   6.493 -0.2937 -0.5802 -0.1457
10736SOL    HW132603   2.614   4.792   6.458  0.9549  0.6120 -1.3456
10736SOL    HW232604   2.527   4.909   6.417  2.3159  1.9519 -0.4970
10737SOL     OW32605   4.422   6.709   3.134 -0.1940 -0.2497 -0.4334
10737SOL    HW132606   4.392   6.800   3.140  2.6044  0.9295 -2.3242
10737SOL    HW232607   4.495   6.703   3.196  0.7095 -0.6854 -1.5113
10738SOL     OW32608   6.445   2.595   4.828  0.0440  0.4196 -0.0434
10738SOL    HW132609   6.517   2.542   4.796 -0.9819 -1.7070  0.9370
10738SOL    HW232610   6.433   2.567   4.918  0.3185  3.3922  1.0351
10739SOL     OW32611   1.065   6.294   6.896  0.0420 -0.0293 -0.1795
10739SOL    HW132612   1.075   6.268   6.804 -1.0242  0.4307 -0.4395
10739SOL    HW232613   1.139   6.351   6.913  0.0016  0.2482 -0.8962
10740SOL     OW32614   1.161   4.127   1.794 -0.0506 -0.1227  0.7741
10740SOL    HW132615   1.122   4.146   1.880  0.3299  0.2541  0.8659
10740SOL    HW232616   1.094   4.076   1.748 -0.8497  0.9116  0.7524
10741SOL     OW32617   1.786   0.138   5.360  0.2932 -0.4896  0.2160
10741SOL    HW132618   1.865   0.169   5.405 -0.7290 -0.3056  1.9884
10741SOL    HW232619   1.772   0.050   5.395  0.9411 -1.4317 -1.7892
10742SOL     OW32620   5.791   3.452   3.167 -0.6641 -0.0327  0.0353
10742SOL    HW132621   5.782   3.497   3.251 -0.2660 -0.5466  0.3650
10742SOL    HW232622   5.854   3.505   3.118 -0.5135  0.0000  0.2596
10743SOL     OW32623   2.363   5.713   4.952 -0.0211  0.2509 -0.3124
10743SOL    HW132624   2.445   5.676   4.920  0.8022  1.8137 -0.1254
10743SOL    HW232625   2.301   5.699   4.881  0.2847 -1.3114 -0.2965
10744SOL     OW32626   0.631   0.153   5.688  0.1926 -0.1133 -0.1460
10744SOL    HW132627   0.703   0.145   5.751 -1.7003  0.7525  2.3088
10744SOL    HW232628   0.610   0.246   5.688 -1.5815 -0.4744  0.0407
10745SOL     OW32629   2.974   6.801   4.050  0.2995  0.4464 -0.1960
10745SOL    HW132630   3.054   6.752   4.033  1.1685  1.6665  0.2227
10745SOL    HW232631   2.903   6.740   4.030  1.3182 -1.1370  0.8375
10746SOL     OW32632   1.311   1.339   3.544 -0.5434 -0.6983 -0.1451
10746SOL    HW132633   1.326   1.246   3.564  0.9726 -0.5692 -0.4926
10746SOL    HW232634   1.376   1.359   3.477 -0.6879  0.6799  0.1014
10747SOL     OW32635   4.026   1.039   3.029 -0.5931  0.6482 -0.1010
10747SOL    HW132636   4.099   1.032   3.091 -0.5306 -0.0421 -0.2434
10747SOL    HW232637   3.952   1.067   3.082 -0.3912  0.6652  0.1762
10748SOL     OW32638   6.466   5.952   1.001 -0.4838 -0.1664  0.2945
10748SOL    HW132639   6.561   5.952   0.988 -0.6057 -0.1827 -0.6170
10748SOL    HW232640   6.430   5.923   0.918 -1.3389  0.8276  0.2942
10749SOL     OW32641   6.544   6.754   0.535 -0.0912  0.2345  0.5694
10749SOL    HW132642   6.629   6.785   0.504  0.0325  0.3282  0.9936
10749SOL    HW232643   6.501   6.718   0.457  0.4014  0.0362  0.3878
10750SOL     OW32644   4.533   1.596   2.972  0.1861 -0.1726 -0.1303
10750SOL    HW132645   4.583   1.532   3.023 -2.3549 -0.2389  2.5430
10750SOL    HW232646   4.526   1.672   3.030  1.7380  2.0202 -2.5985
10751SOL     OW32647   5.270   6.697   6.892 -0.4612 -0.4976 -0.3495
10751SOL    HW132648   5.245   6.742   6.972 -0.5792  0.7856 -1.0879
10751SOL    HW232649   5.203   6.630   6.879 -0.7027 -0.3924  0.3556
10752SOL     OW32650   3.974   4.658   6.358 -0.4509 -0.1010 -0.6423
10752SOL    HW132651   3.974   4.603   6.437 -0.3448 -0.9157 -1.1967
10752SOL    HW232652   4.067   4.677   6.343 -0.5010  0.3675 -0.3564
10753SOL     OW32653   4.212   6.506   2.226  0.2015 -0.3874 -0.0534
10753SOL    HW132654   4.249   6.453   2.296  0.3829  0.5076  0.5452
10753SOL    HW232655   4.162   6.574   2.272 -0.4548 -0.3436 -0.8123
10754SOL     OW32656   3.692   4.314   1.330  0.0891  0.2280  0.5028
10754SOL    HW132657   3.644   4.241   1.369 -0.4089  0.9715  1.3110
10754SOL    HW232658   3.716   4.370   1.404  1.7391  0.1730  0.0615
10755SOL     OW32659   1.887   5.401   5.657 -0.3465  0.9729  0.2796
10755SOL    HW132660   1.944   5.462   5.611  0.6174  1.0878  1.5795
10755SOL    HW232661   1.800   5.416   5.620  0.7396 -0.9456 -3.6122
10756SOL     OW32662   5.543   2.144   0.223 -0.5039  0.1780 -0.2356
10756SOL    HW132663   5.518   2.222   0.173  0.2679  0.2683 -0.5039
10756SOL    HW232664   5.531   2.169   0.314 -1.3923  0.2062 -0.3570
10757SOL     OW32665   6.336   4.099   1.940 -0.2213 -0.0752 -0.7511
10757SOL    HW132666   6.337   4.066   1.850  2.2167 -0.1373 -0.7601
10757SOL    HW232667   6.363   4.024   1.993  2.3095  0.9749 -0.4433
10758SOL     OW32668   2.243   5.379   4.883  0.2685 -0.1941  0.1141
10758SOL    HW132669   2.315   5.406   4.941 -0.4752  0.3174  0.8135
10758SOL    HW232670   2.216   5.460   4.840 -1.1492 -0.0037  1.2899
10759SOL     OW32671   4.233   1.289   5.827 -0.1176 -0.3579  0.0880
10759SOL    HW132672   4.239   1.230   5.902  1.7560  0.9592  1.0403
10759SOL    HW232673   4.282   1.367   5.852 -0.0375  0.4391 -2.2267
10760SOL     OW32674   0.272   2.345   1.427  0.5060 -0.2585  0.5404
10760SOL    HW132675   0.341   2.280   1.439 -0.4794 -1.4301 -0.0584
10760SOL    HW232676   0.230   2.321   1.345  0.6096  1.6024 -0.1112
10761SOL     OW32677   1.397   5.493   6.359  0.1630 -0.8804  0.1781
10761SOL    HW132678   1.439   5.530   6.437  1.3634 -0.5539 -0.6053
10761SOL    HW232679   1.432   5.404   6.353 -0.2745 -1.0628  0.2472
10762SOL     OW32680   1.714   5.910   1.758 -0.0986  0.4112  0.0448
10762SOL    HW132681   1.798   5.874   1.727 -1.0099 -0.1691 -1.9181
10762SOL    HW232682   1.665   5.833   1.787 -0.0653  0.7153  0.9148
10763SOL     OW32683   2.161   3.509   2.137 -0.1513 -0.1984  0.3215
10763SOL    HW132684   2.129   3.480   2.051  0.2158 -0.5501  0.2992
10763SOL    HW232685   2.189   3.599   2.123 -1.7990  0.3638  0.5142
10764SOL     OW32686   2.982   6.612   3.603 -0.3610  0.5445  0.1603
10764SOL    HW132687   2.930   6.574   3.532 -1.2604 -0.4828  1.3288
10764SOL    HW232688   3.073   6.596   3.577 -0.6181  1.3937 -1.3895
10765SOL     OW32689   6.710   6.943   2.824 -0.1380  0.1699 -0.0694
10765SOL    HW132690   6.734   7.035   2.813  0.3388 -0.1067 -1.5163
10765SOL    HW232691   6.699   6.933   2.919  1.2202  1.3577  0.2542
10766SOL     OW32692   4.348   0.603   3.197  0.0493  0.7007 -0.1753
10766SOL    HW132693   4.290   0.594   3.272 -0.5442  1.2912 -0.5563
10766SOL    HW232694   4.395   0.685   3.212 -0.0088  0.7773 -0.4032
10767SOL     OW32695   6.774   5.627   1.771 -0.4343  0.0916  0.0098
10767SOL    HW132696   6.686   5.656   1.749 -0.5295 -0.8454 -0.9443
10767SOL    HW232697   6.829   5.665   1.702 -0.1916  0.0761  0.1929
10768SOL     OW32698   0.360   4.273   0.418 -0.3204  0.3205 -0.2870
10768SOL    HW132699   0.303   4.237   0.350 -2.5270  3.7614 -0.4804
10768SOL    HW232700   0.428   4.320   0.370  1.3272 -1.6621 -0.0265
10769SOL     OW32701   2.915   3.269   0.510 -0.1817  0.0223 -0.4048
10769SOL    HW132702   2.861   3.344   0.483 -1.1427 -0.8957 -1.0989
10769SOL    HW232703   2.900   3.262   0.604 -0.6205  0.2998 -0.4504
10770SOL     OW32704   3.196   3.288   0.706  0.7323  0.1150 -0.0746
10770SOL    HW132705   3.166   3.215   0.760  1.0438 -0.1644 -0.2788
10770SOL    HW232706   3.251   3.340   0.764 -2.3993  2.2999  1.2696
10771SOL     OW32707   5.485   4.951   4.446 -0.3635 -0.0996  0.2584
10771SOL    HW132708   5.493   4.982   4.536 -0.7583  0.8438 -0.0209
10771SOL    HW232709   5.478   4.856   4.454 -1.4994  0.0497  1.3020
10772SOL     OW32710   2.189   6.555   2.119 -0.3165  0.1527 -0.0835
10772SOL    HW132711   2.242   6.559   2.198 -0.2275 -0.0536 -0.1317
10772SOL    HW232712   2.204   6.467   2.084 -0.3538  0.2429 -0.3307
10773SOL     OW32713   3.242   3.970   1.603 -0.2507 -0.0675  0.2712
10773SOL    HW132714   3.219   4.018   1.683  1.7523 -0.8867  1.4441
10773SOL    HW232715   3.164   3.974   1.549 -1.0457  2.1945  1.4426
10774SOL     OW32716   0.097   2.897   2.996 -0.3625  0.2417  0.4611
10774SOL    HW132717   0.137   2.984   2.988 -0.1706  0.0632 -0.8397
10774SOL    HW232718   0.031   2.895   2.927 -1.2451 -0.2062  1.2969
10775SOL     OW32719   2.955   1.638   6.162  0.0205  0.5050 -0.5091
10775SOL    HW132720   3.039   1.674   6.134  0.1693  0.6450  0.1022
10775SOL    HW232721   2.895   1.658   6.090  0.3274  1.0981 -0.6081
10776SOL     OW32722   2.871   2.787   1.697 -0.2321 -1.0031 -0.1714
10776SOL    HW132723   2.915   2.704   1.716  1.1225 -0.2648  0.0822
10776SOL    HW232724   2.915   2.851   1.754 -1.7303 -0.2251  0.1706
10777SOL     OW32725   6.562   6.223   5.791 -0.4222 -0.7332  1.2082
10777SOL    HW132726   6.468   6.223   5.809 -0.3155  1.6440  2.0711
10777SOL    HW232727   6.600   6.272   5.864  1.2171  0.3610 -0.3030
10778SOL     OW32728   2.456   5.041   0.641  0.4740  0.0588  0.1114
10778SOL    HW132729   2.526   5.097   0.676  1.4335 -1.7666  1.2864
10778SOL    HW232730   2.490   5.011   0.556  0.9227 -0.4325  0.4572
10779SOL     OW32731   4.341   6.216   4.393 -0.1229 -0.2928  0.4668
10779SOL    HW132732   4.418   6.273   4.388 -0.3796  0.0375  0.1560
10779SOL    HW232733   4.340   6.169   4.310 -0.7670  0.3912  0.0710
10780SOL     OW32734   2.974   4.608   6.527  0.3850  0.2640  0.2488
10780SOL    HW132735   3.028   4.530   6.514  0.8848  0.7165 -0.4478
10780SOL    HW232736   2.892   4.574   6.563  0.6866 -0.5555  0.1827
10781SOL     OW32737   4.328   0.351   4.743  0.2543  0.1037  0.5014
10781SOL    HW132738   4.274   0.272   4.739  0.5849 -0.2154  1.9006
10781SOL    HW232739   4.354   0.367   4.652  0.3552 -1.5128  0.2195
10782SOL     OW32740   6.350   2.412   6.442  0.8110 -0.0766 -0.3768
10782SOL    HW132741   6.424   2.405   6.502 -0.7544  1.9756  2.0072
10782SOL    HW232742   6.347   2.505   6.419 -1.1271 -0.0603 -0.2145
10783SOL     OW32743   5.009   1.375   3.323  0.2149  0.1907  0.4994
10783SOL    HW132744   5.072   1.321   3.275 -0.4581  0.5445 -0.8249
10783SOL    HW232745   5.004   1.457   3.272 -1.5701  0.0332  0.3541
10784SOL     OW32746   0.983   5.927   1.533 -0.1401  0.5207 -0.0352
10784SOL    HW132747   1.004   5.839   1.500 -0.6752  0.2995  0.2073
10784SOL    HW232748   0.888   5.932   1.528 -0.1612  0.8216  0.6299
10785SOL     OW32749   0.421   5.616   5.902  0.8522  0.3170 -0.1523
10785SOL    HW132750   0.330   5.587   5.893  0.8200  0.4343 -0.2086
10785SOL    HW232751   0.450   5.579   5.985  1.5906 -1.9870 -1.3243
10786SOL     OW32752   5.134   5.732   2.614  0.9177 -0.8674  0.2624
10786SOL    HW132753   5.211   5.684   2.644  0.0451 -1.8396  1.0128
10786SOL    HW232754   5.063   5.700   2.669  0.1104  0.5628  0.0859
10787SOL     OW32755   6.897   3.459   1.039 -0.1134  0.2616  0.2146
10787SOL    HW132756   6.904   3.546   1.078 -0.4743  1.1452 -1.5800
10787SOL    HW232757   6.904   3.474   0.945 -0.2637 -1.6527 -0.1490
10788SOL     OW32758   6.069   1.241   1.446 -0.0102 -0.0762  0.2139
10788SOL    HW132759   6.116   1.323   1.430  0.9991 -0.9193 -1.4311
10788SOL    HW232760   6.003   1.264   1.511 -0.2881  2.2315 -0.7621
10789SOL     OW32761   0.004   1.120   4.604  0.4942  0.1503  0.3066
10789SOL    HW132762  -0.049   1.198   4.590  0.4795 -0.1937 -1.9867
10789SOL    HW232763  -0.015   1.094   4.694 -0.6890  1.8807  0.6147
10790SOL     OW32764   3.489   4.650   3.894 -1.0649 -0.5488  0.1927
10790SOL    HW132765   3.476   4.569   3.845 -1.6866  0.2198 -0.9526
10790SOL    HW232766   3.504   4.716   3.827  1.9266 -0.0846  1.1409
10791SOL     OW32767   4.832   5.176   0.707  0.2237 -0.4822 -0.1287
10791SOL    HW132768   4.901   5.197   0.770 -0.3378 -0.0229  0.3466
10791SOL    HW232769   4.879   5.148   0.628  0.9202 -1.6602  0.6916
10792SOL     OW32770   6.185   4.774   5.867 -0.0369  0.0178 -0.2131
10792SOL    HW132771   6.158   4.689   5.901 -1.5595 -0.2033 -1.8414
10792SOL    HW232772   6.120   4.795   5.800  1.1732  1.7647 -0.9139
10793SOL     OW32773   0.835   5.904   5.383  0.0930 -0.0918 -0.2122
10793SOL    HW132774   0.861   5.859   5.463 -2.0044  1.4183  1.4421
10793SOL    HW232775   0.858   5.996   5.398 -1.7345  0.4876 -0.6401
10794SOL     OW32776   4.085   1.329   1.885 -0.0478 -0.0292 -0.1610
10794SOL    HW132777   4.034   1.398   1.928  0.4691 -0.1293  0.6387
10794SOL    HW232778   4.113   1.369   1.802 -0.2257  0.5254  0.0385
10795SOL     OW32779   0.074   3.868   4.898 -0.1716  0.7120  0.4065
10795SOL    HW132780  -0.006   3.819   4.880 -0.5375  1.2551  0.5046
10795SOL    HW232781   0.119   3.873   4.813  0.3767 -0.6416  0.5929
10796SOL     OW32782   5.358   6.822   0.737  0.5103 -0.0557 -0.0340
10796SOL    HW132783   5.389   6.828   0.646 -1.3673 -0.6689 -0.7726
10796SOL    HW232784   5.315   6.906   0.753 -0.5605 -0.5261 -0.3128
10797SOL     OW32785   2.075   4.025   0.536  0.6399  0.3581 -0.3430
10797SOL    HW132786   2.020   3.953   0.568  0.4338  0.4217 -0.5558
10797SOL    HW232787   2.157   3.982   0.510  0.3774  0.1426 -0.8341
10798SOL     OW32788   6.504   3.622   0.472 -0.1309 -0.0678  0.5020
10798SOL    HW132789   6.550   3.595   0.393  0.0236 -1.0009  0.8926
10798SOL    HW232790   6.558   3.589   0.544 -0.6627  0.0830  0.9830
10799SOL     OW32791   4.447   1.630   3.724  0.1457 -0.5393 -0.5073
10799SOL    HW132792   4.537   1.662   3.719  0.5419 -1.4598  0.4971
10799SOL    HW232793   4.439   1.594   3.812 -1.2945 -0.2415 -0.4869
10800SOL     OW32794   2.464   6.380   2.851 -0.1050  0.7412  0.0466
10800SOL    HW132795   2.422   6.413   2.930 -0.5737  1.6726 -0.5729
10800SOL    HW232796   2.447   6.286   2.852  1.5348  0.3897  2.0315
10801SOL     OW32797   1.156   2.549   6.414 -0.5900  0.7524  0.5286
10801SOL    HW132798   1.249   2.525   6.424 -0.7807  0.2000  1.0279
10801SOL    HW232799   1.149   2.578   6.323  0.1165  0.9849  0.5376
10802SOL     OW32800   1.523   3.253   0.688 -0.1615 -0.1947  1.0316
10802SOL    HW132801   1.493   3.289   0.605 -0.4206 -0.5673  0.9609
10802SOL    HW232802   1.473   3.302   0.754 -0.6192 -0.5215  0.9308
10803SOL     OW32803   3.664   3.021   5.598 -0.4487 -0.4015  0.2709
10803SOL    HW132804   3.747   3.049   5.638  0.7933 -1.0370 -1.7057
10803SOL    HW232805   3.650   3.082   5.527 -1.2261 -0.8359  0.0451
10804SOL     OW32806   3.007   4.397   6.233  0.2989  0.3180  0.1478
10804SOL    HW132807   3.082   4.350   6.197  1.7101  2.0587  0.6246
10804SOL    HW232808   3.012   4.382   6.327  0.0503  0.4204  0.1782
10805SOL     OW32809   1.000   3.803   5.031 -0.1708  0.4352  0.3825
10805SOL    HW132810   0.937   3.799   5.103 -0.5254 -1.9407  0.0113
10805SOL    HW232811   1.082   3.829   5.074 -0.5244 -0.2775  1.5542
10806SOL     OW32812   4.202   0.014   5.858  0.1269  0.2575 -0.0656
10806SOL    HW132813   4.278   0.019   5.800  1.7889  0.1045  1.9480
10806SOL    HW232814   4.240   0.008   5.946 -2.2377 -0.3378  0.9980
10807SOL     OW32815   5.196   3.283   2.578 -0.2862 -0.1470  0.0964
10807SOL    HW132816   5.106   3.305   2.601 -0.0997  0.9953 -0.1920
10807SOL    HW232817   5.215   3.338   2.502  0.5623 -0.5766 -0.0097
10808SOL     OW32818   1.865   3.252   1.624  0.6406 -0.1171  0.1692
10808SOL    HW132819   1.823   3.169   1.598  1.6141 -0.9827  1.2560
10808SOL    HW232820   1.901   3.286   1.542  0.4474 -0.8991 -0.2603
10809SOL     OW32821   1.794   3.837   2.149  0.9024 -0.6646  0.1086
10809SOL    HW132822   1.848   3.848   2.228  1.2588 -2.5100  0.1727
10809SOL    HW232823   1.773   3.926   2.122  1.9408  0.0479  1.4929
10810SOL     OW32824   3.102   0.128   5.184 -0.4712  0.3695 -0.2345
10810SOL    HW132825   3.058   0.199   5.229  0.6455  1.0447 -0.1517
10810SOL    HW232826   3.193   0.135   5.212  0.3876  1.0887 -2.8265
10811SOL     OW32827   1.358   5.004   5.314  0.0524 -0.7386 -0.4242
10811SOL    HW132828   1.425   5.023   5.379 -1.0283 -0.9699  0.7998
10811SOL    HW232829   1.405   5.003   5.231  1.0764  2.0034  0.0071
10812SOL     OW32830   0.007   4.881   1.727  0.3300  0.1709 -0.2182
10812SOL    HW132831   0.043   4.793   1.737  0.6220  0.0815 -1.7730
10812SOL    HW232832  -0.081   4.875   1.763 -0.0343 -1.0590 -1.2380
10813SOL     OW32833   4.882   3.374   0.021 -0.2300  0.0421  0.5882
10813SOL    HW132834   4.936   3.339  -0.050  0.7495  0.1613  1.2555
10813SOL    HW232835   4.875   3.467   0.002 -0.5567 -0.0476  0.2700
10814SOL     OW32836   4.720   5.057   6.525  0.4113 -0.4176 -0.0130
10814SOL    HW132837   4.788   5.098   6.578  0.6816 -0.1024 -0.5950
10814SOL    HW232838   4.745   5.077   6.435 -0.6790  0.0724 -0.2206
10815SOL     OW32839   4.352   1.327   6.298 -0.1868 -0.8065 -0.6169
10815SOL    HW132840   4.400   1.278   6.232  0.1906 -0.6957 -0.4291
10815SOL    HW232841   4.343   1.266   6.371 -1.9876 -1.4748 -1.3468
10816SOL     OW32842   3.086   4.021   6.189  0.0326 -0.7204 -0.4569
10816SOL    HW132843   3.042   3.987   6.111 -0.8581 -3.8648  1.2443
10816SOL    HW232844   3.102   3.944   6.243  1.7338  1.1696  1.9571
10817SOL     OW32845   5.387   6.870   1.479 -0.0724 -0.0360 -0.3194
10817SOL    HW132846   5.321   6.937   1.461 -0.3422 -0.5741 -1.4371
10817SOL    HW232847   5.461   6.919   1.516  0.2771  1.1187 -2.3685
10818SOL     OW32848   2.905   6.572   1.534  0.1235 -0.4359 -0.1168
10818SOL    HW132849   2.856   6.654   1.522 -1.0473 -0.9604  0.7885
10818SOL    HW232850   2.890   6.549   1.626 -0.6464 -2.3180 -0.6691
10819SOL     OW32851   3.198   4.558   3.737  0.2284 -0.1158  0.2854
10819SOL    HW132852   3.118   4.509   3.719 -1.2120  0.6509  3.7551
10819SOL    HW232853   3.266   4.491   3.748  0.4964 -0.7419 -3.6573
10820SOL     OW32854   4.943   5.916   2.756 -0.3993 -0.3840 -0.2634
10820SOL    HW132855   4.848   5.911   2.768 -0.4522 -0.7466 -0.8062
10820SOL    HW232856   4.979   5.909   2.845 -0.9219  1.2950  0.1127
10821SOL     OW32857   0.344   4.139   3.828 -0.4037  0.1378  0.2950
10821SOL    HW132858   0.369   4.047   3.830  0.8965  0.4631  0.2987
10821SOL    HW232859   0.304   4.152   3.742 -0.2433 -0.3451  0.1492
10822SOL     OW32860   2.829   3.890   3.884 -0.2981  0.1224  0.6396
10822SOL    HW132861   2.850   3.853   3.970  0.9057  2.4807  1.4779
10822SOL    HW232862   2.838   3.985   3.897 -2.2743  0.6870 -1.5581
10823SOL     OW32863   3.107   4.886   2.443 -0.4535 -0.4802 -0.2404
10823SOL    HW132864   3.118   4.868   2.536 -0.8320  1.1307  0.1451
10823SOL    HW232865   3.017   4.861   2.424 -0.0811 -1.7736 -0.4497
10824SOL     OW32866   0.570   1.628   1.692 -0.5020 -0.3203  0.7800
10824SOL    HW132867   0.542   1.617   1.601  0.7952  1.1269  0.1582
10824SOL    HW232868   0.546   1.718   1.714  1.1497  0.0879  1.0974
10825SOL     OW32869   6.188   0.322   5.476  0.1826  0.9592  0.0945
10825SOL    HW132870   6.133   0.269   5.418  2.0607  0.9527 -1.8101
10825SOL    HW232871   6.226   0.388   5.418  0.1689  2.6033  1.8609
10826SOL     OW32872   1.248   0.128   0.153 -0.2009 -0.7114  0.4166
10826SOL    HW132873   1.226   0.199   0.093  1.5293  0.2780  0.8912
10826SOL    HW232874   1.207   0.153   0.236 -2.7536 -2.1706 -0.2660
10827SOL     OW32875   5.445   2.420   4.300 -0.7319 -0.4233  0.5112
10827SOL    HW132876   5.456   2.327   4.279 -1.5756 -0.8388  1.8247
10827SOL    HW232877   5.507   2.437   4.371  2.1892  1.0122 -2.1111
10828SOL     OW32878   5.235   5.850   5.208 -0.1074  0.1259  0.1199
10828SOL    HW132879   5.257   5.936   5.243  0.0250 -0.2785  1.0561
10828SOL    HW232880   5.262   5.853   5.117  2.9194  0.0072  0.9218
10829SOL     OW32881   3.892   3.352   4.846 -0.2200  0.0696 -0.2371
10829SOL    HW132882   3.865   3.330   4.757  1.2441 -0.3647 -0.5896
10829SOL    HW232883   3.974   3.399   4.836 -1.0293  1.8074  0.7991
10830SOL     OW32884   0.292   5.168   2.014 -0.2972 -0.1801 -0.2511
10830SOL    HW132885   0.293   5.219   2.095 -0.7626  1.5702 -1.2828
10830SOL    HW232886   0.207   5.126   2.013  0.1982 -1.2530  0.7537
10831SOL     OW32887   0.409   3.964   5.249  0.2482 -0.1911 -0.6766
10831SOL    HW132888   0.337   4.026   5.243 -0.3783 -0.6669  1.1143
10831SOL    HW232889   0.379   3.887   5.201 -0.7051 -0.5891  0.5179
10832SOL     OW32890   6.892   2.233   3.506 -0.4590 -0.4072  0.8455
10832SOL    HW132891   6.918   2.268   3.592 -0.7133  1.3150  0.2721
10832SOL    HW232892   6.974   2.227   3.458 -0.3590 -1.0440  1.0900
10833SOL     OW32893   4.446   5.672   3.764 -0.3374  0.3375 -0.0183
10833SOL    HW132894   4.375   5.699   3.823 -0.5735  2.7590 -1.3148
10833SOL    HW232895   4.525   5.680   3.817 -0.5462  2.4750  0.0597
10834SOL     OW32896   1.660   3.233   4.406 -0.0111 -0.1825  0.1686
10834SOL    HW132897   1.707   3.150   4.396 -2.3566 -1.4259 -1.7340
10834SOL    HW232898   1.669   3.276   4.321  0.8474  1.3858  1.0156
10835SOL     OW32899   3.581   5.686   4.820  0.7798 -0.4438 -0.1770
10835SOL    HW132900   3.671   5.704   4.847  0.9576 -0.9618 -0.4093
10835SOL    HW232901   3.570   5.593   4.838 -0.2994 -0.0348  1.5502
10836SOL     OW32902   5.214   0.768   5.032  0.1356  0.2782 -0.1078
10836SOL    HW132903   5.181   0.858   5.033  1.3194  0.7472  1.7154
10836SOL    HW232904   5.178   0.729   5.112  0.9347 -0.3568 -0.0449
10837SOL     OW32905   4.286   2.802   1.047  0.3864  0.3506 -0.5264
10837SOL    HW132906   4.226   2.728   1.037  0.3166  0.5484 -1.6407
10837SOL    HW232907   4.373   2.763   1.049  0.2581  0.0234  1.4726
10838SOL     OW32908   3.181   2.444   2.014 -0.4912  0.0503  0.6608
10838SOL    HW132909   3.168   2.446   2.108 -0.3282 -1.3680  0.7325
10838SOL    HW232910   3.271   2.414   2.002 -0.2439  0.9846  0.0537
10839SOL     OW32911   4.396   0.822   6.105 -0.6252 -0.0922  0.4800
10839SOL    HW132912   4.455   0.870   6.046 -0.6469  0.1024  0.6145
10839SOL    HW232913   4.406   0.730   6.079 -1.7950  0.1175 -0.8733
10840SOL     OW32914   0.797   4.227   1.402  0.0499  0.3206 -0.5271
10840SOL    HW132915   0.781   4.312   1.360  1.6424  0.1319 -1.6332
10840SOL    HW232916   0.787   4.244   1.495  0.3652  1.7419 -0.7269
10841SOL     OW32917   5.513   1.298   4.843 -0.0258 -0.4372  0.2153
10841SOL    HW132918   5.517   1.393   4.831  0.7444 -0.5566 -0.6425
10841SOL    HW232919   5.478   1.286   4.931 -0.2039  0.6399  0.3068
10842SOL     OW32920   0.610   0.325   4.048 -0.1447 -0.2555  0.6081
10842SOL    HW132921   0.572   0.238   4.060 -0.2009 -0.1179  1.5111
10842SOL    HW232922   0.675   0.332   4.118 -0.0139  0.3593  0.4283
10843SOL     OW32923   2.415   6.828   1.653 -0.2635 -0.7766  0.2447
10843SOL    HW132924   2.427   6.768   1.580 -0.3208  0.6974 -1.0176
10843SOL    HW232925   2.321   6.846   1.654  0.0539  1.2083 -1.0165
10844SOL     OW32926   5.013   1.925   5.522 -0.1626  0.2731  0.4069
10844SOL    HW132927   4.951   1.944   5.592  0.3412  0.9346  0.6853
10844SOL    HW232928   5.041   2.011   5.491 -0.1105 -0.0149 -0.3689
10845SOL     OW32929   1.457   1.472   4.674 -0.2457  0.1950  0.0577
10845SOL    HW132930   1.520   1.521   4.621 -1.1144 -0.6629 -1.9128
10845SOL    HW232931   1.490   1.382   4.674 -1.5858 -0.3573 -1.3597
10846SOL     OW32932   3.022   2.628   1.366  0.4217 -0.1538 -0.2084
10846SOL    HW132933   3.089   2.560   1.362  1.1686  0.3902  1.8827
10846SOL    HW232934   2.963   2.599   1.436 -0.8015  0.0341 -1.1338
10847SOL     OW32935   4.832   6.186   3.503 -0.3409 -0.9398  0.3918
10847SOL    HW132936   4.851   6.255   3.567 -0.7673 -0.4376 -0.0169
10847SOL    HW232937   4.864   6.106   3.544 -0.0799 -0.5369  0.9867
10848SOL     OW32938   0.217   3.765   4.172  0.4971 -0.7082  0.2047
10848SOL    HW132939   0.227   3.813   4.255  2.0198 -0.4592 -0.0985
10848SOL    HW232940   0.128   3.787   4.143  0.4481  0.3289  1.0640
10849SOL     OW32941   5.871   6.505   1.784 -0.2853 -0.2095  0.7116
10849SOL    HW132942   5.850   6.546   1.701  1.4019 -1.9200 -0.6510
10849SOL    HW232943   5.942   6.558   1.820  1.9043 -1.7323 -1.0541
10850SOL     OW32944   6.036   4.505   3.968  0.0073  0.1586 -0.4782
10850SOL    HW132945   5.983   4.503   4.048  0.5632 -2.2605 -0.1185
10850SOL    HW232946   6.098   4.577   3.983 -1.4973  1.3911  0.1491
10851SOL     OW32947   3.266   4.944   1.286  0.4331  0.2119 -0.1742
10851SOL    HW132948   3.287   4.908   1.372 -2.5750  0.8406  0.9552
10851SOL    HW232949   3.333   5.011   1.271  0.2309  1.0945  2.3778
10852SOL     OW32950   5.338   4.663   3.027  0.1197 -0.0297  0.0482
10852SOL    HW132951   5.359   4.588   2.970  0.6967  1.1329 -1.3282
10852SOL    HW232952   5.361   4.633   3.115 -0.3097 -1.7127 -0.3646
10853SOL     OW32953   6.011   3.157   5.389  0.0595 -0.1527 -0.5210
10853SOL    HW132954   5.919   3.144   5.413 -0.0589 -0.6475 -1.2055
10853SOL    HW232955   6.033   3.081   5.335  0.4049  0.7222 -1.6707
10854SOL     OW32956   2.670   0.407   6.416 -0.0073  0.2811 -0.0921
10854SOL    HW132957   2.643   0.484   6.367 -2.5574  0.1928  1.0471
10854SOL    HW232958   2.607   0.400   6.488  0.2337 -2.7463 -0.0474
10855SOL     OW32959   5.562   1.048   1.417 -0.4446 -0.5276 -0.7478
10855SOL    HW132960   5.623   0.974   1.414 -1.1192 -1.3589  2.3372
10855SOL    HW232961   5.486   1.019   1.367 -0.1304 -1.3573 -0.7530
10856SOL     OW32962   6.049   2.545   4.860  0.4705 -0.0606  0.1209
10856SOL    HW132963   6.086   2.458   4.879  1.2295  0.2688  0.1658
10856SOL    HW232964   5.989   2.562   4.932  0.2407 -0.5885  0.0620
10857SOL     OW32965   1.069   2.825   2.979 -0.4966  0.1922  0.0227
10857SOL    HW132966   1.148   2.871   3.009  0.7880 -2.4218  0.9452
10857SOL    HW232967   1.003   2.844   3.046  0.0321  0.5946  0.4418
10858SOL     OW32968   2.815   1.389   4.478 -0.1967 -0.1281  0.1547
10858SOL    HW132969   2.889   1.365   4.423 -0.1388 -0.8906  0.5350
10858SOL    HW232970   2.752   1.318   4.465  0.1133 -0.7032  1.5820
10859SOL     OW32971   3.418   2.753   1.741  0.0784  0.3906 -0.0436
10859SOL    HW132972   3.332   2.739   1.700 -0.3798  1.2809  0.5734
10859SOL    HW232973   3.478   2.766   1.668 -0.1948 -0.7905 -0.5061
10860SOL     OW32974   0.402   5.507   0.530  0.2101 -0.0229 -0.7333
10860SOL    HW132975   0.403   5.411   0.531 -1.0332 -0.0696 -1.5173
10860SOL    HW232976   0.310   5.530   0.520  0.4593  1.2728 -0.2886
10861SOL     OW32977   3.726   3.605   4.674 -0.5330 -0.3424  0.4724
10861SOL    HW132978   3.780   3.678   4.642 -0.5726 -0.6079 -0.2295
10861SOL    HW232979   3.789   3.534   4.688 -0.5119 -0.2170  1.0297
10862SOL     OW32980   2.870   4.411   4.660  0.5976 -0.0104 -0.6526
10862SOL    HW132981   2.898   4.320   4.667 -1.4412 -0.6135  0.4542
10862SOL    HW232982   2.811   4.413   4.585 -0.3876  0.0798  0.1037
10863SOL     OW32983   1.873   0.038   3.789 -0.3969 -0.2837 -0.6540
10863SOL    HW132984   1.901   0.065   3.877 -0.3298 -0.8413 -0.4985
10863SOL    HW232985   1.826  -0.044   3.804 -0.6544 -0.2185 -1.1083
10864SOL     OW32986   2.935   1.729   2.398  0.1930  0.0966  0.3542
10864SOL    HW132987   2.910   1.810   2.442 -1.8933 -0.0394 -0.4978
10864SOL    HW232988   2.853   1.684   2.380  1.2791 -2.6296  1.4762
10865SOL     OW32989   6.321   4.946   2.902  0.2576  0.5480 -0.0046
10865SOL    HW132990   6.394   4.938   2.963  1.5669  1.7351 -1.3447
10865SOL    HW232991   6.296   4.855   2.883  0.4005  0.1513  1.5593
10866SOL     OW32992   1.712   5.202   1.701 -0.4629  0.1039 -0.0545
10866SOL    HW132993   1.625   5.241   1.689 -0.4372 -0.0653 -0.8361
10866SOL    HW232994   1.718   5.185   1.795 -1.2124  0.2640  0.0263
10867SOL     OW32995   1.899   4.154   2.303 -0.3367 -0.2412 -0.4692
10867SOL    HW132996   1.939   4.190   2.225 -1.7325 -0.2407 -1.2137
10867SOL    HW232997   1.956   4.081   2.328  0.2090 -0.1359 -1.3844
10868SOL     OW32998   1.105   4.382   1.452 -0.8499 -0.1704  0.3362
10868SOL    HW132999   1.063   4.391   1.366 -2.2820  1.0005  1.0987
10868SOL    HW233000   1.197   4.366   1.432 -1.0831  0.3905 -1.4220
10869SOL     OW33001   1.790   5.639   3.697 -0.2571  0.6142 -0.1931
10869SOL    HW133002   1.811   5.590   3.617 -1.3505 -1.0299  0.4745
10869SOL    HW233003   1.747   5.718   3.665  2.4249  1.7455 -1.3459
10870SOL     OW33004   6.470   2.700   2.120  0.2362 -0.3042 -0.2714
10870SOL    HW133005   6.382   2.678   2.089  0.6542 -3.0044  0.2034
10870SOL    HW233006   6.511   2.745   2.046 -1.1959  0.1295 -0.8482
10871SOL     OW33007   3.846   2.060   6.099  0.4139 -0.4451 -0.6456
10871SOL    HW133008   3.921   2.096   6.051 -0.4301  1.4063 -0.7037
10871SOL    HW233009   3.875   2.055   6.190  0.2597  1.5303 -0.4347
10872SOL     OW33010   5.677   3.695   3.850  0.1572  0.5231  0.6396
10872SOL    HW133011   5.734   3.771   3.847 -0.4992  1.0396  1.0030
10872SOL    HW233012   5.722   3.628   3.798  0.4109  1.3848 -0.2596
10873SOL     OW33013   1.832   6.779   1.490 -0.3932 -0.2026 -0.3407
10873SOL    HW133014   1.891   6.799   1.417  2.6643 -2.6521  1.1896
10873SOL    HW233015   1.837   6.856   1.547  0.8734 -0.0772 -0.5841
10874SOL     OW33016   0.958   5.406   0.549  0.5843  0.1107 -0.0944
10874SOL    HW133017   0.876   5.445   0.581 -0.6419 -1.1891 -1.5358
10874SOL    HW233018   1.016   5.481   0.536  0.3966  0.9128  2.8759
10875SOL     OW33019   5.923   1.772   1.041  0.3938  0.0631 -0.1346
10875SOL    HW133020   5.865   1.848   1.036 -0.2049 -0.4071 -0.4299
10875SOL    HW233021   5.886   1.717   1.110  0.1006 -0.5494 -0.7630
10876SOL     OW33022   2.242   5.989   1.776  1.2182 -0.0121 -0.2307
10876SOL    HW133023   2.247   5.922   1.844  1.8834  1.2682  1.0290
10876SOL    HW233024   2.187   5.949   1.708  0.1729 -1.1745  1.2148
10877SOL     OW33025   2.016   3.673   1.141  0.3685 -0.3202 -0.2337
10877SOL    HW133026   1.936   3.690   1.192 -0.7313 -0.0178 -1.9790
10877SOL    HW233027   2.082   3.731   1.181 -0.1355 -0.8853  1.5115
10878SOL     OW33028   5.189   2.740   0.709  0.6003  0.0084  0.2393
10878SOL    HW133029   5.240   2.771   0.784  1.6355 -0.6991 -0.1599
10878SOL    HW233030   5.174   2.647   0.725 -0.8352  0.2473  0.4815
10879SOL     OW33031   4.859   3.873   5.056  0.9736 -0.1497  0.5467
10879SOL    HW133032   4.773   3.905   5.083  0.4789 -0.2977 -0.7847
10879SOL    HW233033   4.841   3.788   5.016  1.7805 -0.3228  0.5412
10880SOL     OW33034   2.404   2.034   6.531  0.4101  0.4821 -0.2467
10880SOL    HW133035   2.406   2.044   6.436  0.7467  1.2908 -0.1608
10880SOL    HW233036   2.356   2.110   6.563  0.4592  0.3121  0.2451
10881SOL     OW33037   2.963   4.713   6.261  0.1372  0.0422 -0.2090
10881SOL    HW133038   3.030   4.678   6.202 -0.5648 -0.0468 -0.9653
10881SOL    HW233039   2.993   4.687   6.348  0.6680 -0.7070 -0.5996
10882SOL     OW33040   4.857   5.438   5.413 -0.0292  0.2735 -0.2611
10882SOL    HW133041   4.767   5.434   5.446 -0.5028 -1.1769 -1.5973
10882SOL    HW233042   4.906   5.484   5.481 -1.1403 -1.6427  1.9654
10883SOL     OW33043   3.164   4.800   0.950 -0.6614  0.3985  0.1754
10883SOL    HW133044   3.229   4.870   0.962  0.4126 -0.5662  0.1919
10883SOL    HW233045   3.094   4.821   1.011  0.0367  1.0140  0.7758
10884SOL     OW33046   0.407   1.207   1.319  0.2737 -0.6234 -0.0496
10884SOL    HW133047   0.488   1.215   1.267  0.3992 -1.2032  0.0514
10884SOL    HW233048   0.342   1.256   1.268  0.4595 -0.9578 -0.6224
10885SOL     OW33049   1.260   1.610   1.555 -0.0593  0.3752 -0.1835
10885SOL    HW133050   1.316   1.533   1.554 -1.3749 -0.6182 -0.7908
10885SOL    HW233051   1.305   1.673   1.499  0.5373 -0.3271 -0.5175
10886SOL     OW33052   1.356   3.349   0.874  0.4567  0.0708  0.7296
10886SOL    HW133053   1.321   3.430   0.911  1.6240  0.3972  1.1598
10886SOL    HW233054   1.287   3.285   0.888  0.1340  0.6218  1.8057
10887SOL     OW33055   0.896   1.284   4.553 -0.8573 -0.0274  0.2699
10887SOL    HW133056   0.946   1.356   4.517 -0.2696 -0.3197  0.4775
10887SOL    HW233057   0.807   1.317   4.560 -0.5630  0.7423  0.5328
10888SOL     OW33058   6.560   2.107   6.154  0.2753  0.1501 -0.1391
10888SOL    HW133059   6.499   2.139   6.088 -0.4221  0.4397  0.6311
10888SOL    HW233060   6.642   2.153   6.136 -0.1931  0.9864 -0.1843
10889SOL     OW33061   4.875   6.691   3.522  0.1036  0.1786  0.5030
10889SOL    HW133062   4.796   6.726   3.562  1.2968  1.5429  1.7477
10889SOL    HW233063   4.914   6.765   3.476  0.5455 -0.5477 -0.3467
10890SOL     OW33064   0.850   0.198   6.555 -0.0552  0.5145  0.0153
10890SOL    HW133065   0.899   0.257   6.612  2.9759 -0.7287 -1.0840
10890SOL    HW233066   0.867   0.111   6.591 -0.1617 -0.0859 -1.3254
10891SOL     OW33067   3.432   4.457   5.320 -0.9824 -0.0305  0.1628
10891SOL    HW133068   3.391   4.386   5.272  1.3501 -1.0181 -0.4878
10891SOL    HW233069   3.523   4.458   5.291 -0.4729  2.0347  1.5223
10892SOL     OW33070   4.735   1.265   5.069 -0.1431  0.0841  0.0396
10892SOL    HW133071   4.722   1.188   5.124  0.2126 -0.1038 -0.1355
10892SOL    HW233072   4.750   1.337   5.131 -2.4036  0.4262  0.2975
10893SOL     OW33073   1.734   0.608   4.292  0.5267 -0.1407 -0.2649
10893SOL    HW133074   1.808   0.644   4.341  0.4237 -1.9775  1.4066
10893SOL    HW233075   1.734   0.655   4.209  1.7790  1.9370  0.8287
10894SOL     OW33076   5.711   0.056   1.304  0.1812 -0.3848  0.2169
10894SOL    HW133077   5.803   0.074   1.323 -0.3145  0.9768  1.5689
10894SOL    HW233078   5.696   0.098   1.219  1.0868 -1.7176 -0.6368
10895SOL     OW33079   6.538   2.809   1.300  0.1737 -0.4811  0.2681
10895SOL    HW133080   6.501   2.745   1.240  1.4107 -0.8737 -0.1088
10895SOL    HW233081   6.622   2.834   1.260  0.3932  0.2677  1.1514
10896SOL     OW33082   3.464   3.559   0.653 -0.2180 -0.1586  0.1935
10896SOL    HW133083   3.399   3.615   0.610 -0.3310 -1.7795 -1.9102
10896SOL    HW233084   3.418   3.524   0.730 -1.4239 -0.3004 -0.5666
10897SOL     OW33085   1.747   4.309   6.712  0.2727  0.4013  0.1774
10897SOL    HW133086   1.744   4.216   6.689  0.8534  0.3656  0.2312
10897SOL    HW233087   1.689   4.351   6.649  1.1381  0.1880 -0.7930
10898SOL     OW33088   1.454   0.868   3.261  0.6256 -0.1333  0.2113
10898SOL    HW133089   1.482   0.781   3.289  0.1458 -0.1672  0.5971
10898SOL    HW233090   1.511   0.889   3.187  0.9055 -0.6723  0.2709
10899SOL     OW33091   3.494   1.143   4.973 -0.1875  0.6596 -0.5072
10899SOL    HW133092   3.459   1.104   5.052 -0.1486  0.6985 -0.4706
10899SOL    HW233093   3.429   1.208   4.946 -0.0619  0.8540 -0.3433
10900SOL     OW33094   1.106   3.741   5.848  0.7092 -0.1584 -0.6866
10900SOL    HW133095   1.202   3.736   5.840  0.7370  0.2852 -0.6230
10900SOL    HW233096   1.085   3.676   5.915  1.1241  0.8442  0.4608
10901SOL     OW33097   2.228   1.832   6.059 -0.0377  0.7215  0.4405
10901SOL    HW133098   2.162   1.787   6.005  0.1598  0.6186  0.2858
10901SOL    HW233099   2.293   1.863   5.996  1.7440 -1.8980  0.8253
10902SOL     OW33100   2.470   5.632   6.735 -0.1175  0.1785  0.2223
10902SOL    HW133101   2.558   5.662   6.717  0.3649 -1.8310 -1.1137
10902SOL    HW233102   2.476   5.592   6.822  0.3321 -0.0198  0.1050
10903SOL     OW33103   2.508   3.448   5.206  0.3761 -0.0816  0.5581
10903SOL    HW133104   2.516   3.440   5.111 -1.7733  0.9909  0.2253
10903SOL    HW233105   2.589   3.489   5.233  1.2968 -0.9762 -0.7188
10904SOL     OW33106   0.332   2.201   3.233  0.3022 -1.1870 -0.2944
10904SOL    HW133107   0.266   2.201   3.303 -0.8069  0.2406 -1.2593
10904SOL    HW233108   0.283   2.227   3.155  2.3027  1.8257 -0.7052
10905SOL     OW33109   6.038   6.291   2.494 -0.0216 -0.0974 -0.0479
10905SOL    HW133110   6.119   6.333   2.523 -0.7975  1.7785 -0.4732
10905SOL    HW233111   5.990   6.274   2.575  0.2069  0.0049  0.1109
10906SOL     OW33112   0.724   2.491   0.246  0.7527  0.4332  0.4317
10906SOL    HW133113   0.695   2.414   0.296  0.3705  0.7174  0.6577
10906SOL    HW233114   0.643   2.527   0.210  1.1087 -0.2900 -1.1762
10907SOL     OW33115   3.308   4.450   1.027 -0.2298 -0.4350 -0.7099
10907SOL    HW133116   3.349   4.536   1.040 -0.5504 -0.0375 -2.0714
10907SOL    HW233117   3.301   4.413   1.114 -0.3974  1.0772 -0.0420
10908SOL     OW33118   6.013   2.288   2.018  0.0472  0.1864  0.3673
10908SOL    HW133119   5.946   2.323   2.077 -0.9647 -0.4466 -0.3659
10908SOL    HW233120   5.963   2.252   1.945  1.2216 -0.0166 -0.3553
10909SOL     OW33121   0.535   5.262   1.979  0.4237 -0.0332  0.6694
10909SOL    HW133122   0.594   5.256   1.904  0.0869  0.0556  0.3991
10909SOL    HW233123   0.450   5.235   1.946  0.8070 -2.7852  1.6646
10910SOL     OW33124   6.341   2.670   6.358 -0.5834  0.4492 -0.4766
10910SOL    HW133125   6.386   2.737   6.409 -0.1736  1.9093 -2.6124
10910SOL    HW233126   6.405   2.642   6.292 -1.2969 -0.8570 -0.6463
10911SOL     OW33127   5.725   1.614   2.193 -0.5613 -0.2148 -0.5216
10911SOL    HW133128   5.640   1.573   2.181 -1.7655  1.4416  1.6955
10911SOL    HW233129   5.743   1.606   2.286  0.8131  1.1085 -0.6306
10912SOL     OW33130   1.938   5.433   0.047 -0.1324  0.5817  0.4271
10912SOL    HW133131   1.944   5.368   0.116 -0.1342 -0.9987 -1.0029
10912SOL    HW233132   1.855   5.414   0.002  0.9402  0.0469 -1.4337
10913SOL     OW33133   3.533   1.463   4.950 -0.0234  0.1729  0.2988
10913SOL    HW133134   3.565   1.391   5.004  1.3086  1.5176  1.3846
10913SOL    HW233135   3.600   1.531   4.959 -0.8658  1.2624 -1.3020
10914SOL     OW33136   3.302   3.288   4.135 -0.0085 -0.0680  0.0408
10914SOL    HW133137   3.266   3.206   4.100  0.1736 -0.8325  1.5669
10914SOL    HW233138   3.224   3.339   4.158 -0.1391  0.6251 -1.7992
10915SOL     OW33139   3.330   2.017   4.482 -0.0595  0.0834 -0.0811
10915SOL    HW133140   3.401   2.079   4.463 -0.0356 -0.0094 -0.2960
10915SOL    HW233141   3.368   1.931   4.462  0.2415 -0.0881  1.1611
10916SOL     OW33142   6.459   4.870   5.908  0.9298 -0.3470 -0.4490
10916SOL    HW133143   6.483   4.879   6.000  1.4755 -1.9151 -0.4088
10916SOL    HW233144   6.370   4.836   5.909  0.4216  0.9377 -0.5377
10917SOL     OW33145   6.388   0.564   5.924  0.3565  0.0752 -0.2403
10917SOL    HW133146   6.353   0.477   5.907  2.6485 -0.8913 -0.3968
10917SOL    HW233147   6.330   0.601   5.991 -1.7721 -0.7809 -1.5252
10918SOL     OW33148   3.582   6.007   5.282 -0.0790 -0.0257 -0.2331
10918SOL    HW133149   3.507   5.956   5.312  0.3622 -1.5998 -1.6672
10918SOL    HW233150   3.616   5.959   5.207 -0.1616  2.8657 -2.2719
10919SOL     OW33151   4.577   3.966   1.915  0.7769  0.6263 -0.0302
10919SOL    HW133152   4.548   3.878   1.893  2.0893 -0.0446  0.7812
10919SOL    HW233153   4.497   4.014   1.934  0.0323 -0.3333 -0.6830
10920SOL     OW33154   1.373   2.242   3.079 -1.2170 -0.3097 -0.0340
10920SOL    HW133155   1.459   2.210   3.053 -1.0734  0.3223 -0.3496
10920SOL    HW233156   1.357   2.202   3.164  0.7098  1.9062  1.4838
10921NA      NA33157   1.828   1.210   1.109 -0.1294 -0.4237 -0.1669
10922NA      NA33158   5.021   0.428   3.620  0.2471 -0.3607 -0.2302
10923NA      NA33159   1.609   3.660   2.107 -0.3092  0.4197  0.4960
10924NA      NA33160   6.400   3.688   3.117  0.1658 -0.0380 -0.0373
10925NA      NA33161   5.545   1.655   4.657 -0.3866 -0.2293 -0.1746
10926NA      NA33162   6.476   5.059   0.315  0.2989  0.2821 -0.3989
10927NA      NA33163   4.335   2.020   2.020  0.3367  0.1991 -0.3601
10928NA      NA33164   3.490   2.510   6.276 -0.0082 -0.0613 -0.0630
10929NA      NA33165   0.236   0.813   4.377  0.3328  0.2128 -0.4596
10930NA      NA33166   4.445   3.176   1.740 -0.0560 -0.3084  0.0904
10931NA      NA33167   0.436   3.079   6.251  0.6172 -0.4989  0.2703
10932NA      NA33168   4.605   5.809   3.467 -0.7127 -0.4653 -0.2271
10933NA      NA33169   6.226   0.112   4.762 -0.3381  0.1769  0.3220
10934NA      NA33170   1.840   5.173   4.350  0.4107 -0.1230 -0.0010
10935NA      NA33171   0.802   1.082   1.883 -0.0749 -0.0447  0.0345
10936NA      NA33172   0.830   0.036   2.039  0.2527 -0.1648  0.0777
10937NA      NA33173   2.388   2.856   2.834  0.2066 -0.0796  0.1156
10938NA      NA33174   5.295   6.149   1.810 -0.0046  0.3003 -0.0909
10939NA      NA33175   0.478   1.881   3.868  0.3069 -0.0297  0.0838
10940NA      NA33176   1.593   2.814   4.391  0.1685  0.2337  0.0036
10941NA      NA33177   3.580   0.390   6.506  0.0547  0.0347  0.1231
10942NA      NA33178   6.821   6.294   2.222 -0.0495  0.2804 -0.6614
10943NA      NA33179   2.187   4.297   1.150  0.1205 -0.3478 -0.4674
10944NA      NA33180   4.709   1.983   5.114  0.1727 -0.1383  0.3773
10945NA      NA33181   5.900   5.914   0.907  0.1136  0.0424  0.4519
10946NA      NA33182   5.100   5.959   2.587 -0.1489 -0.2419 -0.2140
10947NA      NA33183   6.182   2.057   1.554  0.0718  0.4332  0.5053
10948NA      NA33184   0.211   2.518   1.534 -0.2930  0.2415  0.4782
10949NA      NA33185   4.079   1.122   1.960 -0.0761  0.3679  0.2218
10950NA      NA33186   1.910   3.650   3.181 -0.3613 -0.3489 -0.4200
10951NA      NA33187   2.457   1.340   4.795 -0.0877 -0.1088 -0.2388
10952CL      CL33188   0.576   4.375   6.271  0.0360 -0.3706  0.0402
10953CL      CL33189   4.462   0.325   5.469 -0.4043 -0.2171 -0.1553
10954CL      CL33190   1.437   4.987   5.863 -0.0563 -0.0998  0.3567
10955CL      CL33191   5.134   1.110   4.919 -0.0063 -0.1562 -0.0772
10956CL      CL33192   2.442   3.590   2.546  0.2002  0.2706  0.2792
10957CL      CL33193   3.779   6.548   0.359  0.2120 -0.0325 -0.0428
10958CL      CL33194   5.713   2.932   5.481 -0.3009  0.4903  0.1962
10959CL      CL33195   3.373   6.469   6.223  0.0035  0.0662  0.0356
10960CL      CL33196   4.745   1.968   5.838  0.3194 -0.1893  0.1481
10961CL      CL33197   6.635   5.554   0.559  0.2480  0.0752 -0.0230
10962CL      CL33198   3.501   6.117   4.333 -0.6453  0.3711 -0.0707
10963CL      CL33199   0.013   0.189   3.144  0.4108  0.0970  0.4711
10964CL      CL33200   5.901   3.155   6.704  0.0455 -0.6009  0.2458
10965CL      CL33201   4.515   0.949   1.802 -0.0660 -0.2577  0.2018
10966CL      CL33202   0.886   4.961   3.549 -0.0489  0.2542  0.2447
10967CL      CL33203   1.369   2.153   6.468  0.2109 -0.3106  0.0523
10968CL      CL33204   3.282   1.193   2.512  0.7004  0.1439 -0.4954
10969CL      CL33205   0.536   1.950   1.754  0.2199 -0.3339  0.1170
10970CL      CL33206   2.851   1.928   1.664  0.5766  0.1489 -0.0784
10971CL      CL33207   4.817   2.401   3.368 -0.0389 -0.1372  0.0193
10972CL      CL33208   1.453   4.808   0.186  0.3192 -0.3051  0.0296
10973CL      CL33209   6.414   2.592   1.119  0.1086  0.4591 -0.2447
10974CL      CL33210   4.427   4.152   3.942  0.0397 -0.4427  0.2270
10975CL      CL33211   0.568   5.355   1.201 -0.0664  0.4223 -0.3022
10976CL      CL33212   5.412   1.112   0.985  0.2564  0.0643 -0.3332
10977CL      CL33213   3.244   4.370   1.299  0.1094 -0.6476  0.0519
10978CL      CL33214   2.159   5.634   4.732  0.5021  0.4775 -0.1500
10979CL      CL33215   2.828   3.432   3.992  0.3760  0.2618  0.0748
10980CL      CL33216   4.373   2.946   5.536 -0.0169 -0.3905 -0.0024
10981CL      CL33217   2.909   5.157   5.497  0.2985  0.1212 -0.1980
10982CL      CL33218   1.567   0.514   1.085  0.0918  0.2262  0.1643
10983CL      CL33219   2.631   2.984   3.995  0.3789  0.0145  0.1228
10984CL      CL33220   3.744   3.229   0.964  0.1570 -0.1947 -0.0483
10985CL      CL33221   3.635   1.026   3.328  0.2585 -0.1343  0.1770
10986CL      CL33222   0.704   1.164   0.698 -0.1093 -0.0274  0.2823
10987CL      CL33223   0.350   3.609   2.368  0.0579  0.0742  0.2993
10988CL      CL33224   2.173   6.832   6.707 -0.2226  0.3173 -0.2644
10989CL      CL33225   5.137   0.733   3.999 -0.2404 -0.1757  0.2235
10990CL      CL33226   5.025   6.617   5.796  0.0167 -0.4936 -0.2102
10991CL      CL33227   3.756   5.154   5.481 -0.2633 -0.3850  0.1586
10992CL      CL33228   6.843   0.045   4.534  0.4546 -0.1790 -0.3449
10993CL      CL33229   3.263   2.643   2.582  0.4650 -0.3699 -0.1416
10994CL      CL33230   2.795   2.813   6.789 -0.0101  0.1089  0.1066
10995CL      CL33231   3.928   6.861   4.129 -0.3222 -0.2436  0.3880
10996CL      CL33232   5.165   3.499   2.343 -0.4391  0.1735 -0.0350
   6.94769   6.94769   6.94769
