;
;   File g3.5Ncore_cooh_petim.itp  was generated
;   By user: sairam (1000)
;   On host: sairam
;   At date: Mon. April  1 09:43:52 2024
;
;   This is a standalone topology file
;
;   Created by:
;   ParmEd:       amb2gro_top_gro.py, VERSION 3.4.1
;   Executable:   amb2gro_top_gro.py
;   Library dir:  /usr/local/gromacs/share/gromacs/top
;   Command line:
;     ./amb2gro_top_gro.py -p g3.5Ncore_cooh_petim.prmtop -c g3.5Ncore_cooh_petim.inpcrd -t g3.5Ncore_cooh_petim.itp -g g3.5Ncore_cooh_petim.gro -b g3.5Ncore_cooh_petim.pdb
;

;[ defaults ]
;; nbfunc        comb-rule       gen-pairs       fudgeLJ fudgeQQ
;1               2               yes             0.5          0.83333333  
;
;[ atomtypes ]
;; name    at.num    mass    charge ptype  sigma      epsilon
;n3             7  14.010000  0.00000000  A     0.32499985        0.71128
;c3             6  12.010000  0.00000000  A     0.33996695      0.4577296
;h1             1   1.008000  0.00000000  A      0.2471353      0.0656888
;hc             1   1.008000  0.00000000  A     0.26495328      0.0656888
;os             8  16.000000  0.00000000  A     0.30000123        0.71128
;c              6  12.010000  0.00000000  A     0.33996695       0.359824
;o              8  16.000000  0.00000000  A     0.29599219        0.87864
;oh             8  16.000000  0.00000000  A     0.30664734      0.8803136
;ho             1   1.008000  0.00000000  A              0              0


[ moleculetype ]
; Name            nrexcl
g3.5Ncore_cooh_petim          3

[ atoms ]
;   nr       type  resnr residue  atom   cgnr    charge       mass  typeB    chargeB      massB
; residue    1 aaa rtp aaa q 0.0
    1         n3      1    aaa     N1      1 -0.65416500  14.010000   ; qtot -0.654165
    2         c3      1    aaa     C1      2 0.05178400  12.010000   ; qtot -0.602381
    3         h1      1    aaa     H1      3 0.06475500   1.008000   ; qtot -0.537626
    4         h1      1    aaa     H2      4 0.06475500   1.008000   ; qtot -0.472871
    5         c3      1    aaa     C2      5 0.05178400  12.010000   ; qtot -0.421087
    6         h1      1    aaa     H3      6 0.06475500   1.008000   ; qtot -0.356332
    7         h1      1    aaa     H4      7 0.06475500   1.008000   ; qtot -0.291577
    8         c3      1    aaa     C3      8 0.05178400  12.010000   ; qtot -0.239793
    9         h1      1    aaa     H5      9 0.06475500   1.008000   ; qtot -0.175038
   10         h1      1    aaa     H6     10 0.06475500   1.008000   ; qtot -0.110283
   11         c3      1    aaa     C4     11 0.07871100  12.010000   ; qtot -0.031572
   12         hc      1    aaa     H7     12 0.08683700   1.008000   ; qtot 0.055265
   13         hc      1    aaa     H8     13 0.08683700   1.008000   ; qtot 0.142102
   14         c3      1    aaa     C5     14 0.07871100  12.010000   ; qtot 0.220813
   15         hc      1    aaa     H9     15 0.08683700   1.008000   ; qtot 0.307650
   16         hc      1    aaa    H10     16 0.08683700   1.008000   ; qtot 0.394487
   17         c3      1    aaa     C6     17 0.07871100  12.010000   ; qtot 0.473198
   18         hc      1    aaa    H11     18 0.08683700   1.008000   ; qtot 0.560035
   19         hc      1    aaa    H12     19 0.08683700   1.008000   ; qtot 0.646872
   20         c3      1    aaa     C7     20 -0.74941200  12.010000   ; qtot -0.102540
   21         h1      1    aaa    H13     21 0.26689400   1.008000   ; qtot 0.164354
   22         h1      1    aaa    H14     22 0.26689400   1.008000   ; qtot 0.431248
   23         c3      1    aaa     C8     23 -0.74941200  12.010000   ; qtot -0.318164
   24         h1      1    aaa    H15     24 0.26689400   1.008000   ; qtot -0.051270
   25         h1      1    aaa    H16     25 0.26689400   1.008000   ; qtot 0.215624
   26         c3      1    aaa     C9     26 -0.74941200  12.010000   ; qtot -0.533788
   27         h1      1    aaa    H17     27 0.26689400   1.008000   ; qtot -0.266894
   28         h1      1    aaa    H18     28 0.26689400   1.008000   ; qtot 0.000000
; residue    2 bbb rtp bbb q -0.0
   29         n3      2    bbb     N1     29 -0.59685800  14.010000   ; qtot -0.596858
   30         c3      2    bbb     C1     30 0.10137000  12.010000   ; qtot -0.495488
   31         h1      2    bbb     H1     31 0.04411300   1.008000   ; qtot -0.451375
   32         h1      2    bbb     H2     32 0.04411300   1.008000   ; qtot -0.407262
   33         c3      2    bbb     C2     33 0.10137000  12.010000   ; qtot -0.305892
   34         h1      2    bbb     H3     34 0.04411300   1.008000   ; qtot -0.261779
   35         h1      2    bbb     H4     35 0.04411300   1.008000   ; qtot -0.217666
   36         c3      2    bbb     C3     36 -0.00195300  12.010000   ; qtot -0.219619
   37         h1      2    bbb     H5     37 0.05064400   1.008000   ; qtot -0.168975
   38         h1      2    bbb     H6     38 0.05064400   1.008000   ; qtot -0.118331
   39         c3      2    bbb     C4     39 -0.01612100  12.010000   ; qtot -0.134452
   40         hc      2    bbb     H7     40 0.04936100   1.008000   ; qtot -0.085091
   41         hc      2    bbb     H8     41 0.04936100   1.008000   ; qtot -0.035730
   42         c3      2    bbb     C5     42 0.11363000  12.010000   ; qtot 0.077900
   43         hc      2    bbb     H9     43 0.06265900   1.008000   ; qtot 0.140559
   44         hc      2    bbb    H10     44 0.06265900   1.008000   ; qtot 0.203218
   45         c3      2    bbb     C6     45 0.11363000  12.010000   ; qtot 0.316848
   46         hc      2    bbb    H11     46 0.06265900   1.008000   ; qtot 0.379507
   47         hc      2    bbb    H12     47 0.06265900   1.008000   ; qtot 0.442166
   48         c3      2    bbb     C7     48 0.05858200  12.010000   ; qtot 0.500748
   49         h1      2    bbb    H13     49 0.06123400   1.008000   ; qtot 0.561982
   50         h1      2    bbb    H14     50 0.06123400   1.008000   ; qtot 0.623216
   51         c3      2    bbb     C8     51 -0.72423400  12.010000   ; qtot -0.101018
   52         h1      2    bbb    H15     52 0.25637600   1.008000   ; qtot 0.155358
   53         h1      2    bbb    H16     53 0.25637600   1.008000   ; qtot 0.411734
   54         c3      2    bbb     C9     54 -0.72423400  12.010000   ; qtot -0.312500
   55         h1      2    bbb    H17     55 0.25637600   1.008000   ; qtot -0.056124
   56         h1      2    bbb    H18     56 0.25637600   1.008000   ; qtot 0.200252
   57         os      2    bbb     O1     57 -0.20025300  16.000000   ; qtot -0.000001
; residue    3 bbb rtp bbb q -0.0
   58         n3      3    bbb     N1     58 -0.59685800  14.010000   ; qtot -0.596859
   59         c3      3    bbb     C1     59 0.10137000  12.010000   ; qtot -0.495489
   60         h1      3    bbb     H1     60 0.04411300   1.008000   ; qtot -0.451376
   61         h1      3    bbb     H2     61 0.04411300   1.008000   ; qtot -0.407263
   62         c3      3    bbb     C2     62 0.10137000  12.010000   ; qtot -0.305893
   63         h1      3    bbb     H3     63 0.04411300   1.008000   ; qtot -0.261780
   64         h1      3    bbb     H4     64 0.04411300   1.008000   ; qtot -0.217667
   65         c3      3    bbb     C3     65 -0.00195300  12.010000   ; qtot -0.219620
   66         h1      3    bbb     H5     66 0.05064400   1.008000   ; qtot -0.168976
   67         h1      3    bbb     H6     67 0.05064400   1.008000   ; qtot -0.118332
   68         c3      3    bbb     C4     68 -0.01612100  12.010000   ; qtot -0.134453
   69         hc      3    bbb     H7     69 0.04936100   1.008000   ; qtot -0.085092
   70         hc      3    bbb     H8     70 0.04936100   1.008000   ; qtot -0.035731
   71         c3      3    bbb     C5     71 0.11363000  12.010000   ; qtot 0.077899
   72         hc      3    bbb     H9     72 0.06265900   1.008000   ; qtot 0.140558
   73         hc      3    bbb    H10     73 0.06265900   1.008000   ; qtot 0.203217
   74         c3      3    bbb     C6     74 0.11363000  12.010000   ; qtot 0.316847
   75         hc      3    bbb    H11     75 0.06265900   1.008000   ; qtot 0.379506
   76         hc      3    bbb    H12     76 0.06265900   1.008000   ; qtot 0.442165
   77         c3      3    bbb     C7     77 0.05858200  12.010000   ; qtot 0.500747
   78         h1      3    bbb    H13     78 0.06123400   1.008000   ; qtot 0.561981
   79         h1      3    bbb    H14     79 0.06123400   1.008000   ; qtot 0.623215
   80         c3      3    bbb     C8     80 -0.72423400  12.010000   ; qtot -0.101019
   81         h1      3    bbb    H15     81 0.25637600   1.008000   ; qtot 0.155357
   82         h1      3    bbb    H16     82 0.25637600   1.008000   ; qtot 0.411733
   83         c3      3    bbb     C9     83 -0.72423400  12.010000   ; qtot -0.312501
   84         h1      3    bbb    H17     84 0.25637600   1.008000   ; qtot -0.056125
   85         h1      3    bbb    H18     85 0.25637600   1.008000   ; qtot 0.200251
   86         os      3    bbb     O1     86 -0.20025300  16.000000   ; qtot -0.000002
; residue    4 bbb rtp bbb q -0.0
   87         n3      4    bbb     N1     87 -0.59685800  14.010000   ; qtot -0.596860
   88         c3      4    bbb     C1     88 0.10137000  12.010000   ; qtot -0.495490
   89         h1      4    bbb     H1     89 0.04411300   1.008000   ; qtot -0.451377
   90         h1      4    bbb     H2     90 0.04411300   1.008000   ; qtot -0.407264
   91         c3      4    bbb     C2     91 0.10137000  12.010000   ; qtot -0.305894
   92         h1      4    bbb     H3     92 0.04411300   1.008000   ; qtot -0.261781
   93         h1      4    bbb     H4     93 0.04411300   1.008000   ; qtot -0.217668
   94         c3      4    bbb     C3     94 -0.00195300  12.010000   ; qtot -0.219621
   95         h1      4    bbb     H5     95 0.05064400   1.008000   ; qtot -0.168977
   96         h1      4    bbb     H6     96 0.05064400   1.008000   ; qtot -0.118333
   97         c3      4    bbb     C4     97 -0.01612100  12.010000   ; qtot -0.134454
   98         hc      4    bbb     H7     98 0.04936100   1.008000   ; qtot -0.085093
   99         hc      4    bbb     H8     99 0.04936100   1.008000   ; qtot -0.035732
  100         c3      4    bbb     C5    100 0.11363000  12.010000   ; qtot 0.077898
  101         hc      4    bbb     H9    101 0.06265900   1.008000   ; qtot 0.140557
  102         hc      4    bbb    H10    102 0.06265900   1.008000   ; qtot 0.203216
  103         c3      4    bbb     C6    103 0.11363000  12.010000   ; qtot 0.316846
  104         hc      4    bbb    H11    104 0.06265900   1.008000   ; qtot 0.379505
  105         hc      4    bbb    H12    105 0.06265900   1.008000   ; qtot 0.442164
  106         c3      4    bbb     C7    106 0.05858200  12.010000   ; qtot 0.500746
  107         h1      4    bbb    H13    107 0.06123400   1.008000   ; qtot 0.561980
  108         h1      4    bbb    H14    108 0.06123400   1.008000   ; qtot 0.623214
  109         c3      4    bbb     C8    109 -0.72423400  12.010000   ; qtot -0.101020
  110         h1      4    bbb    H15    110 0.25637600   1.008000   ; qtot 0.155356
  111         h1      4    bbb    H16    111 0.25637600   1.008000   ; qtot 0.411732
  112         c3      4    bbb     C9    112 -0.72423400  12.010000   ; qtot -0.312502
  113         h1      4    bbb    H17    113 0.25637600   1.008000   ; qtot -0.056126
  114         h1      4    bbb    H18    114 0.25637600   1.008000   ; qtot 0.200250
  115         os      4    bbb     O1    115 -0.20025300  16.000000   ; qtot -0.000003
; residue    5 bbb rtp bbb q -0.0
  116         n3      5    bbb     N1    116 -0.59685800  14.010000   ; qtot -0.596861
  117         c3      5    bbb     C1    117 0.10137000  12.010000   ; qtot -0.495491
  118         h1      5    bbb     H1    118 0.04411300   1.008000   ; qtot -0.451378
  119         h1      5    bbb     H2    119 0.04411300   1.008000   ; qtot -0.407265
  120         c3      5    bbb     C2    120 0.10137000  12.010000   ; qtot -0.305895
  121         h1      5    bbb     H3    121 0.04411300   1.008000   ; qtot -0.261782
  122         h1      5    bbb     H4    122 0.04411300   1.008000   ; qtot -0.217669
  123         c3      5    bbb     C3    123 -0.00195300  12.010000   ; qtot -0.219622
  124         h1      5    bbb     H5    124 0.05064400   1.008000   ; qtot -0.168978
  125         h1      5    bbb     H6    125 0.05064400   1.008000   ; qtot -0.118334
  126         c3      5    bbb     C4    126 -0.01612100  12.010000   ; qtot -0.134455
  127         hc      5    bbb     H7    127 0.04936100   1.008000   ; qtot -0.085094
  128         hc      5    bbb     H8    128 0.04936100   1.008000   ; qtot -0.035733
  129         c3      5    bbb     C5    129 0.11363000  12.010000   ; qtot 0.077897
  130         hc      5    bbb     H9    130 0.06265900   1.008000   ; qtot 0.140556
  131         hc      5    bbb    H10    131 0.06265900   1.008000   ; qtot 0.203215
  132         c3      5    bbb     C6    132 0.11363000  12.010000   ; qtot 0.316845
  133         hc      5    bbb    H11    133 0.06265900   1.008000   ; qtot 0.379504
  134         hc      5    bbb    H12    134 0.06265900   1.008000   ; qtot 0.442163
  135         c3      5    bbb     C7    135 0.05858200  12.010000   ; qtot 0.500745
  136         h1      5    bbb    H13    136 0.06123400   1.008000   ; qtot 0.561979
  137         h1      5    bbb    H14    137 0.06123400   1.008000   ; qtot 0.623213
  138         c3      5    bbb     C8    138 -0.72423400  12.010000   ; qtot -0.101021
  139         h1      5    bbb    H15    139 0.25637600   1.008000   ; qtot 0.155355
  140         h1      5    bbb    H16    140 0.25637600   1.008000   ; qtot 0.411731
  141         c3      5    bbb     C9    141 -0.72423400  12.010000   ; qtot -0.312503
  142         h1      5    bbb    H17    142 0.25637600   1.008000   ; qtot -0.056127
  143         h1      5    bbb    H18    143 0.25637600   1.008000   ; qtot 0.200249
  144         os      5    bbb     O1    144 -0.20025300  16.000000   ; qtot -0.000004
; residue    6 bbb rtp bbb q -0.0
  145         n3      6    bbb     N1    145 -0.59685800  14.010000   ; qtot -0.596862
  146         c3      6    bbb     C1    146 0.10137000  12.010000   ; qtot -0.495492
  147         h1      6    bbb     H1    147 0.04411300   1.008000   ; qtot -0.451379
  148         h1      6    bbb     H2    148 0.04411300   1.008000   ; qtot -0.407266
  149         c3      6    bbb     C2    149 0.10137000  12.010000   ; qtot -0.305896
  150         h1      6    bbb     H3    150 0.04411300   1.008000   ; qtot -0.261783
  151         h1      6    bbb     H4    151 0.04411300   1.008000   ; qtot -0.217670
  152         c3      6    bbb     C3    152 -0.00195300  12.010000   ; qtot -0.219623
  153         h1      6    bbb     H5    153 0.05064400   1.008000   ; qtot -0.168979
  154         h1      6    bbb     H6    154 0.05064400   1.008000   ; qtot -0.118335
  155         c3      6    bbb     C4    155 -0.01612100  12.010000   ; qtot -0.134456
  156         hc      6    bbb     H7    156 0.04936100   1.008000   ; qtot -0.085095
  157         hc      6    bbb     H8    157 0.04936100   1.008000   ; qtot -0.035734
  158         c3      6    bbb     C5    158 0.11363000  12.010000   ; qtot 0.077896
  159         hc      6    bbb     H9    159 0.06265900   1.008000   ; qtot 0.140555
  160         hc      6    bbb    H10    160 0.06265900   1.008000   ; qtot 0.203214
  161         c3      6    bbb     C6    161 0.11363000  12.010000   ; qtot 0.316844
  162         hc      6    bbb    H11    162 0.06265900   1.008000   ; qtot 0.379503
  163         hc      6    bbb    H12    163 0.06265900   1.008000   ; qtot 0.442162
  164         c3      6    bbb     C7    164 0.05858200  12.010000   ; qtot 0.500744
  165         h1      6    bbb    H13    165 0.06123400   1.008000   ; qtot 0.561978
  166         h1      6    bbb    H14    166 0.06123400   1.008000   ; qtot 0.623212
  167         c3      6    bbb     C8    167 -0.72423400  12.010000   ; qtot -0.101022
  168         h1      6    bbb    H15    168 0.25637600   1.008000   ; qtot 0.155354
  169         h1      6    bbb    H16    169 0.25637600   1.008000   ; qtot 0.411730
  170         c3      6    bbb     C9    170 -0.72423400  12.010000   ; qtot -0.312504
  171         h1      6    bbb    H17    171 0.25637600   1.008000   ; qtot -0.056128
  172         h1      6    bbb    H18    172 0.25637600   1.008000   ; qtot 0.200248
  173         os      6    bbb     O1    173 -0.20025300  16.000000   ; qtot -0.000005
; residue    7 bbb rtp bbb q -0.0
  174         n3      7    bbb     N1    174 -0.59685800  14.010000   ; qtot -0.596863
  175         c3      7    bbb     C1    175 0.10137000  12.010000   ; qtot -0.495493
  176         h1      7    bbb     H1    176 0.04411300   1.008000   ; qtot -0.451380
  177         h1      7    bbb     H2    177 0.04411300   1.008000   ; qtot -0.407267
  178         c3      7    bbb     C2    178 0.10137000  12.010000   ; qtot -0.305897
  179         h1      7    bbb     H3    179 0.04411300   1.008000   ; qtot -0.261784
  180         h1      7    bbb     H4    180 0.04411300   1.008000   ; qtot -0.217671
  181         c3      7    bbb     C3    181 -0.00195300  12.010000   ; qtot -0.219624
  182         h1      7    bbb     H5    182 0.05064400   1.008000   ; qtot -0.168980
  183         h1      7    bbb     H6    183 0.05064400   1.008000   ; qtot -0.118336
  184         c3      7    bbb     C4    184 -0.01612100  12.010000   ; qtot -0.134457
  185         hc      7    bbb     H7    185 0.04936100   1.008000   ; qtot -0.085096
  186         hc      7    bbb     H8    186 0.04936100   1.008000   ; qtot -0.035735
  187         c3      7    bbb     C5    187 0.11363000  12.010000   ; qtot 0.077895
  188         hc      7    bbb     H9    188 0.06265900   1.008000   ; qtot 0.140554
  189         hc      7    bbb    H10    189 0.06265900   1.008000   ; qtot 0.203213
  190         c3      7    bbb     C6    190 0.11363000  12.010000   ; qtot 0.316843
  191         hc      7    bbb    H11    191 0.06265900   1.008000   ; qtot 0.379502
  192         hc      7    bbb    H12    192 0.06265900   1.008000   ; qtot 0.442161
  193         c3      7    bbb     C7    193 0.05858200  12.010000   ; qtot 0.500743
  194         h1      7    bbb    H13    194 0.06123400   1.008000   ; qtot 0.561977
  195         h1      7    bbb    H14    195 0.06123400   1.008000   ; qtot 0.623211
  196         c3      7    bbb     C8    196 -0.72423400  12.010000   ; qtot -0.101023
  197         h1      7    bbb    H15    197 0.25637600   1.008000   ; qtot 0.155353
  198         h1      7    bbb    H16    198 0.25637600   1.008000   ; qtot 0.411729
  199         c3      7    bbb     C9    199 -0.72423400  12.010000   ; qtot -0.312505
  200         h1      7    bbb    H17    200 0.25637600   1.008000   ; qtot -0.056129
  201         h1      7    bbb    H18    201 0.25637600   1.008000   ; qtot 0.200247
  202         os      7    bbb     O1    202 -0.20025300  16.000000   ; qtot -0.000006
; residue    8 bbb rtp bbb q -0.0
  203         n3      8    bbb     N1    203 -0.59685800  14.010000   ; qtot -0.596864
  204         c3      8    bbb     C1    204 0.10137000  12.010000   ; qtot -0.495494
  205         h1      8    bbb     H1    205 0.04411300   1.008000   ; qtot -0.451381
  206         h1      8    bbb     H2    206 0.04411300   1.008000   ; qtot -0.407268
  207         c3      8    bbb     C2    207 0.10137000  12.010000   ; qtot -0.305898
  208         h1      8    bbb     H3    208 0.04411300   1.008000   ; qtot -0.261785
  209         h1      8    bbb     H4    209 0.04411300   1.008000   ; qtot -0.217672
  210         c3      8    bbb     C3    210 -0.00195300  12.010000   ; qtot -0.219625
  211         h1      8    bbb     H5    211 0.05064400   1.008000   ; qtot -0.168981
  212         h1      8    bbb     H6    212 0.05064400   1.008000   ; qtot -0.118337
  213         c3      8    bbb     C4    213 -0.01612100  12.010000   ; qtot -0.134458
  214         hc      8    bbb     H7    214 0.04936100   1.008000   ; qtot -0.085097
  215         hc      8    bbb     H8    215 0.04936100   1.008000   ; qtot -0.035736
  216         c3      8    bbb     C5    216 0.11363000  12.010000   ; qtot 0.077894
  217         hc      8    bbb     H9    217 0.06265900   1.008000   ; qtot 0.140553
  218         hc      8    bbb    H10    218 0.06265900   1.008000   ; qtot 0.203212
  219         c3      8    bbb     C6    219 0.11363000  12.010000   ; qtot 0.316842
  220         hc      8    bbb    H11    220 0.06265900   1.008000   ; qtot 0.379501
  221         hc      8    bbb    H12    221 0.06265900   1.008000   ; qtot 0.442160
  222         c3      8    bbb     C7    222 0.05858200  12.010000   ; qtot 0.500742
  223         h1      8    bbb    H13    223 0.06123400   1.008000   ; qtot 0.561976
  224         h1      8    bbb    H14    224 0.06123400   1.008000   ; qtot 0.623210
  225         c3      8    bbb     C8    225 -0.72423400  12.010000   ; qtot -0.101024
  226         h1      8    bbb    H15    226 0.25637600   1.008000   ; qtot 0.155352
  227         h1      8    bbb    H16    227 0.25637600   1.008000   ; qtot 0.411728
  228         c3      8    bbb     C9    228 -0.72423400  12.010000   ; qtot -0.312506
  229         h1      8    bbb    H17    229 0.25637600   1.008000   ; qtot -0.056130
  230         h1      8    bbb    H18    230 0.25637600   1.008000   ; qtot 0.200246
  231         os      8    bbb     O1    231 -0.20025300  16.000000   ; qtot -0.000007
; residue    9 bbb rtp bbb q -0.0
  232         n3      9    bbb     N1    232 -0.59685800  14.010000   ; qtot -0.596865
  233         c3      9    bbb     C1    233 0.10137000  12.010000   ; qtot -0.495495
  234         h1      9    bbb     H1    234 0.04411300   1.008000   ; qtot -0.451382
  235         h1      9    bbb     H2    235 0.04411300   1.008000   ; qtot -0.407269
  236         c3      9    bbb     C2    236 0.10137000  12.010000   ; qtot -0.305899
  237         h1      9    bbb     H3    237 0.04411300   1.008000   ; qtot -0.261786
  238         h1      9    bbb     H4    238 0.04411300   1.008000   ; qtot -0.217673
  239         c3      9    bbb     C3    239 -0.00195300  12.010000   ; qtot -0.219626
  240         h1      9    bbb     H5    240 0.05064400   1.008000   ; qtot -0.168982
  241         h1      9    bbb     H6    241 0.05064400   1.008000   ; qtot -0.118338
  242         c3      9    bbb     C4    242 -0.01612100  12.010000   ; qtot -0.134459
  243         hc      9    bbb     H7    243 0.04936100   1.008000   ; qtot -0.085098
  244         hc      9    bbb     H8    244 0.04936100   1.008000   ; qtot -0.035737
  245         c3      9    bbb     C5    245 0.11363000  12.010000   ; qtot 0.077893
  246         hc      9    bbb     H9    246 0.06265900   1.008000   ; qtot 0.140552
  247         hc      9    bbb    H10    247 0.06265900   1.008000   ; qtot 0.203211
  248         c3      9    bbb     C6    248 0.11363000  12.010000   ; qtot 0.316841
  249         hc      9    bbb    H11    249 0.06265900   1.008000   ; qtot 0.379500
  250         hc      9    bbb    H12    250 0.06265900   1.008000   ; qtot 0.442159
  251         c3      9    bbb     C7    251 0.05858200  12.010000   ; qtot 0.500741
  252         h1      9    bbb    H13    252 0.06123400   1.008000   ; qtot 0.561975
  253         h1      9    bbb    H14    253 0.06123400   1.008000   ; qtot 0.623209
  254         c3      9    bbb     C8    254 -0.72423400  12.010000   ; qtot -0.101025
  255         h1      9    bbb    H15    255 0.25637600   1.008000   ; qtot 0.155351
  256         h1      9    bbb    H16    256 0.25637600   1.008000   ; qtot 0.411727
  257         c3      9    bbb     C9    257 -0.72423400  12.010000   ; qtot -0.312507
  258         h1      9    bbb    H17    258 0.25637600   1.008000   ; qtot -0.056131
  259         h1      9    bbb    H18    259 0.25637600   1.008000   ; qtot 0.200245
  260         os      9    bbb     O1    260 -0.20025300  16.000000   ; qtot -0.000008
; residue   10 bbb rtp bbb q -0.0
  261         n3     10    bbb     N1    261 -0.59685800  14.010000   ; qtot -0.596866
  262         c3     10    bbb     C1    262 0.10137000  12.010000   ; qtot -0.495496
  263         h1     10    bbb     H1    263 0.04411300   1.008000   ; qtot -0.451383
  264         h1     10    bbb     H2    264 0.04411300   1.008000   ; qtot -0.407270
  265         c3     10    bbb     C2    265 0.10137000  12.010000   ; qtot -0.305900
  266         h1     10    bbb     H3    266 0.04411300   1.008000   ; qtot -0.261787
  267         h1     10    bbb     H4    267 0.04411300   1.008000   ; qtot -0.217674
  268         c3     10    bbb     C3    268 -0.00195300  12.010000   ; qtot -0.219627
  269         h1     10    bbb     H5    269 0.05064400   1.008000   ; qtot -0.168983
  270         h1     10    bbb     H6    270 0.05064400   1.008000   ; qtot -0.118339
  271         c3     10    bbb     C4    271 -0.01612100  12.010000   ; qtot -0.134460
  272         hc     10    bbb     H7    272 0.04936100   1.008000   ; qtot -0.085099
  273         hc     10    bbb     H8    273 0.04936100   1.008000   ; qtot -0.035738
  274         c3     10    bbb     C5    274 0.11363000  12.010000   ; qtot 0.077892
  275         hc     10    bbb     H9    275 0.06265900   1.008000   ; qtot 0.140551
  276         hc     10    bbb    H10    276 0.06265900   1.008000   ; qtot 0.203210
  277         c3     10    bbb     C6    277 0.11363000  12.010000   ; qtot 0.316840
  278         hc     10    bbb    H11    278 0.06265900   1.008000   ; qtot 0.379499
  279         hc     10    bbb    H12    279 0.06265900   1.008000   ; qtot 0.442158
  280         c3     10    bbb     C7    280 0.05858200  12.010000   ; qtot 0.500740
  281         h1     10    bbb    H13    281 0.06123400   1.008000   ; qtot 0.561974
  282         h1     10    bbb    H14    282 0.06123400   1.008000   ; qtot 0.623208
  283         c3     10    bbb     C8    283 -0.72423400  12.010000   ; qtot -0.101026
  284         h1     10    bbb    H15    284 0.25637600   1.008000   ; qtot 0.155350
  285         h1     10    bbb    H16    285 0.25637600   1.008000   ; qtot 0.411726
  286         c3     10    bbb     C9    286 -0.72423400  12.010000   ; qtot -0.312508
  287         h1     10    bbb    H17    287 0.25637600   1.008000   ; qtot -0.056132
  288         h1     10    bbb    H18    288 0.25637600   1.008000   ; qtot 0.200244
  289         os     10    bbb     O1    289 -0.20025300  16.000000   ; qtot -0.000009
; residue   11 bbb rtp bbb q -0.0
  290         n3     11    bbb     N1    290 -0.59685800  14.010000   ; qtot -0.596867
  291         c3     11    bbb     C1    291 0.10137000  12.010000   ; qtot -0.495497
  292         h1     11    bbb     H1    292 0.04411300   1.008000   ; qtot -0.451384
  293         h1     11    bbb     H2    293 0.04411300   1.008000   ; qtot -0.407271
  294         c3     11    bbb     C2    294 0.10137000  12.010000   ; qtot -0.305901
  295         h1     11    bbb     H3    295 0.04411300   1.008000   ; qtot -0.261788
  296         h1     11    bbb     H4    296 0.04411300   1.008000   ; qtot -0.217675
  297         c3     11    bbb     C3    297 -0.00195300  12.010000   ; qtot -0.219628
  298         h1     11    bbb     H5    298 0.05064400   1.008000   ; qtot -0.168984
  299         h1     11    bbb     H6    299 0.05064400   1.008000   ; qtot -0.118340
  300         c3     11    bbb     C4    300 -0.01612100  12.010000   ; qtot -0.134461
  301         hc     11    bbb     H7    301 0.04936100   1.008000   ; qtot -0.085100
  302         hc     11    bbb     H8    302 0.04936100   1.008000   ; qtot -0.035739
  303         c3     11    bbb     C5    303 0.11363000  12.010000   ; qtot 0.077891
  304         hc     11    bbb     H9    304 0.06265900   1.008000   ; qtot 0.140550
  305         hc     11    bbb    H10    305 0.06265900   1.008000   ; qtot 0.203209
  306         c3     11    bbb     C6    306 0.11363000  12.010000   ; qtot 0.316839
  307         hc     11    bbb    H11    307 0.06265900   1.008000   ; qtot 0.379498
  308         hc     11    bbb    H12    308 0.06265900   1.008000   ; qtot 0.442157
  309         c3     11    bbb     C7    309 0.05858200  12.010000   ; qtot 0.500739
  310         h1     11    bbb    H13    310 0.06123400   1.008000   ; qtot 0.561973
  311         h1     11    bbb    H14    311 0.06123400   1.008000   ; qtot 0.623207
  312         c3     11    bbb     C8    312 -0.72423400  12.010000   ; qtot -0.101027
  313         h1     11    bbb    H15    313 0.25637600   1.008000   ; qtot 0.155349
  314         h1     11    bbb    H16    314 0.25637600   1.008000   ; qtot 0.411725
  315         c3     11    bbb     C9    315 -0.72423400  12.010000   ; qtot -0.312509
  316         h1     11    bbb    H17    316 0.25637600   1.008000   ; qtot -0.056133
  317         h1     11    bbb    H18    317 0.25637600   1.008000   ; qtot 0.200243
  318         os     11    bbb     O1    318 -0.20025300  16.000000   ; qtot -0.000010
; residue   12 bbb rtp bbb q -0.0
  319         n3     12    bbb     N1    319 -0.59685800  14.010000   ; qtot -0.596868
  320         c3     12    bbb     C1    320 0.10137000  12.010000   ; qtot -0.495498
  321         h1     12    bbb     H1    321 0.04411300   1.008000   ; qtot -0.451385
  322         h1     12    bbb     H2    322 0.04411300   1.008000   ; qtot -0.407272
  323         c3     12    bbb     C2    323 0.10137000  12.010000   ; qtot -0.305902
  324         h1     12    bbb     H3    324 0.04411300   1.008000   ; qtot -0.261789
  325         h1     12    bbb     H4    325 0.04411300   1.008000   ; qtot -0.217676
  326         c3     12    bbb     C3    326 -0.00195300  12.010000   ; qtot -0.219629
  327         h1     12    bbb     H5    327 0.05064400   1.008000   ; qtot -0.168985
  328         h1     12    bbb     H6    328 0.05064400   1.008000   ; qtot -0.118341
  329         c3     12    bbb     C4    329 -0.01612100  12.010000   ; qtot -0.134462
  330         hc     12    bbb     H7    330 0.04936100   1.008000   ; qtot -0.085101
  331         hc     12    bbb     H8    331 0.04936100   1.008000   ; qtot -0.035740
  332         c3     12    bbb     C5    332 0.11363000  12.010000   ; qtot 0.077890
  333         hc     12    bbb     H9    333 0.06265900   1.008000   ; qtot 0.140549
  334         hc     12    bbb    H10    334 0.06265900   1.008000   ; qtot 0.203208
  335         c3     12    bbb     C6    335 0.11363000  12.010000   ; qtot 0.316838
  336         hc     12    bbb    H11    336 0.06265900   1.008000   ; qtot 0.379497
  337         hc     12    bbb    H12    337 0.06265900   1.008000   ; qtot 0.442156
  338         c3     12    bbb     C7    338 0.05858200  12.010000   ; qtot 0.500738
  339         h1     12    bbb    H13    339 0.06123400   1.008000   ; qtot 0.561972
  340         h1     12    bbb    H14    340 0.06123400   1.008000   ; qtot 0.623206
  341         c3     12    bbb     C8    341 -0.72423400  12.010000   ; qtot -0.101028
  342         h1     12    bbb    H15    342 0.25637600   1.008000   ; qtot 0.155348
  343         h1     12    bbb    H16    343 0.25637600   1.008000   ; qtot 0.411724
  344         c3     12    bbb     C9    344 -0.72423400  12.010000   ; qtot -0.312510
  345         h1     12    bbb    H17    345 0.25637600   1.008000   ; qtot -0.056134
  346         h1     12    bbb    H18    346 0.25637600   1.008000   ; qtot 0.200242
  347         os     12    bbb     O1    347 -0.20025300  16.000000   ; qtot -0.000011
; residue   13 bbb rtp bbb q -0.0
  348         n3     13    bbb     N1    348 -0.59685800  14.010000   ; qtot -0.596869
  349         c3     13    bbb     C1    349 0.10137000  12.010000   ; qtot -0.495499
  350         h1     13    bbb     H1    350 0.04411300   1.008000   ; qtot -0.451386
  351         h1     13    bbb     H2    351 0.04411300   1.008000   ; qtot -0.407273
  352         c3     13    bbb     C2    352 0.10137000  12.010000   ; qtot -0.305903
  353         h1     13    bbb     H3    353 0.04411300   1.008000   ; qtot -0.261790
  354         h1     13    bbb     H4    354 0.04411300   1.008000   ; qtot -0.217677
  355         c3     13    bbb     C3    355 -0.00195300  12.010000   ; qtot -0.219630
  356         h1     13    bbb     H5    356 0.05064400   1.008000   ; qtot -0.168986
  357         h1     13    bbb     H6    357 0.05064400   1.008000   ; qtot -0.118342
  358         c3     13    bbb     C4    358 -0.01612100  12.010000   ; qtot -0.134463
  359         hc     13    bbb     H7    359 0.04936100   1.008000   ; qtot -0.085102
  360         hc     13    bbb     H8    360 0.04936100   1.008000   ; qtot -0.035741
  361         c3     13    bbb     C5    361 0.11363000  12.010000   ; qtot 0.077889
  362         hc     13    bbb     H9    362 0.06265900   1.008000   ; qtot 0.140548
  363         hc     13    bbb    H10    363 0.06265900   1.008000   ; qtot 0.203207
  364         c3     13    bbb     C6    364 0.11363000  12.010000   ; qtot 0.316837
  365         hc     13    bbb    H11    365 0.06265900   1.008000   ; qtot 0.379496
  366         hc     13    bbb    H12    366 0.06265900   1.008000   ; qtot 0.442155
  367         c3     13    bbb     C7    367 0.05858200  12.010000   ; qtot 0.500737
  368         h1     13    bbb    H13    368 0.06123400   1.008000   ; qtot 0.561971
  369         h1     13    bbb    H14    369 0.06123400   1.008000   ; qtot 0.623205
  370         c3     13    bbb     C8    370 -0.72423400  12.010000   ; qtot -0.101029
  371         h1     13    bbb    H15    371 0.25637600   1.008000   ; qtot 0.155347
  372         h1     13    bbb    H16    372 0.25637600   1.008000   ; qtot 0.411723
  373         c3     13    bbb     C9    373 -0.72423400  12.010000   ; qtot -0.312511
  374         h1     13    bbb    H17    374 0.25637600   1.008000   ; qtot -0.056135
  375         h1     13    bbb    H18    375 0.25637600   1.008000   ; qtot 0.200241
  376         os     13    bbb     O1    376 -0.20025300  16.000000   ; qtot -0.000012
; residue   14 bbb rtp bbb q -0.0
  377         n3     14    bbb     N1    377 -0.59685800  14.010000   ; qtot -0.596870
  378         c3     14    bbb     C1    378 0.10137000  12.010000   ; qtot -0.495500
  379         h1     14    bbb     H1    379 0.04411300   1.008000   ; qtot -0.451387
  380         h1     14    bbb     H2    380 0.04411300   1.008000   ; qtot -0.407274
  381         c3     14    bbb     C2    381 0.10137000  12.010000   ; qtot -0.305904
  382         h1     14    bbb     H3    382 0.04411300   1.008000   ; qtot -0.261791
  383         h1     14    bbb     H4    383 0.04411300   1.008000   ; qtot -0.217678
  384         c3     14    bbb     C3    384 -0.00195300  12.010000   ; qtot -0.219631
  385         h1     14    bbb     H5    385 0.05064400   1.008000   ; qtot -0.168987
  386         h1     14    bbb     H6    386 0.05064400   1.008000   ; qtot -0.118343
  387         c3     14    bbb     C4    387 -0.01612100  12.010000   ; qtot -0.134464
  388         hc     14    bbb     H7    388 0.04936100   1.008000   ; qtot -0.085103
  389         hc     14    bbb     H8    389 0.04936100   1.008000   ; qtot -0.035742
  390         c3     14    bbb     C5    390 0.11363000  12.010000   ; qtot 0.077888
  391         hc     14    bbb     H9    391 0.06265900   1.008000   ; qtot 0.140547
  392         hc     14    bbb    H10    392 0.06265900   1.008000   ; qtot 0.203206
  393         c3     14    bbb     C6    393 0.11363000  12.010000   ; qtot 0.316836
  394         hc     14    bbb    H11    394 0.06265900   1.008000   ; qtot 0.379495
  395         hc     14    bbb    H12    395 0.06265900   1.008000   ; qtot 0.442154
  396         c3     14    bbb     C7    396 0.05858200  12.010000   ; qtot 0.500736
  397         h1     14    bbb    H13    397 0.06123400   1.008000   ; qtot 0.561970
  398         h1     14    bbb    H14    398 0.06123400   1.008000   ; qtot 0.623204
  399         c3     14    bbb     C8    399 -0.72423400  12.010000   ; qtot -0.101030
  400         h1     14    bbb    H15    400 0.25637600   1.008000   ; qtot 0.155346
  401         h1     14    bbb    H16    401 0.25637600   1.008000   ; qtot 0.411722
  402         c3     14    bbb     C9    402 -0.72423400  12.010000   ; qtot -0.312512
  403         h1     14    bbb    H17    403 0.25637600   1.008000   ; qtot -0.056136
  404         h1     14    bbb    H18    404 0.25637600   1.008000   ; qtot 0.200240
  405         os     14    bbb     O1    405 -0.20025300  16.000000   ; qtot -0.000013
; residue   15 bbb rtp bbb q -0.0
  406         n3     15    bbb     N1    406 -0.59685800  14.010000   ; qtot -0.596871
  407         c3     15    bbb     C1    407 0.10137000  12.010000   ; qtot -0.495501
  408         h1     15    bbb     H1    408 0.04411300   1.008000   ; qtot -0.451388
  409         h1     15    bbb     H2    409 0.04411300   1.008000   ; qtot -0.407275
  410         c3     15    bbb     C2    410 0.10137000  12.010000   ; qtot -0.305905
  411         h1     15    bbb     H3    411 0.04411300   1.008000   ; qtot -0.261792
  412         h1     15    bbb     H4    412 0.04411300   1.008000   ; qtot -0.217679
  413         c3     15    bbb     C3    413 -0.00195300  12.010000   ; qtot -0.219632
  414         h1     15    bbb     H5    414 0.05064400   1.008000   ; qtot -0.168988
  415         h1     15    bbb     H6    415 0.05064400   1.008000   ; qtot -0.118344
  416         c3     15    bbb     C4    416 -0.01612100  12.010000   ; qtot -0.134465
  417         hc     15    bbb     H7    417 0.04936100   1.008000   ; qtot -0.085104
  418         hc     15    bbb     H8    418 0.04936100   1.008000   ; qtot -0.035743
  419         c3     15    bbb     C5    419 0.11363000  12.010000   ; qtot 0.077887
  420         hc     15    bbb     H9    420 0.06265900   1.008000   ; qtot 0.140546
  421         hc     15    bbb    H10    421 0.06265900   1.008000   ; qtot 0.203205
  422         c3     15    bbb     C6    422 0.11363000  12.010000   ; qtot 0.316835
  423         hc     15    bbb    H11    423 0.06265900   1.008000   ; qtot 0.379494
  424         hc     15    bbb    H12    424 0.06265900   1.008000   ; qtot 0.442153
  425         c3     15    bbb     C7    425 0.05858200  12.010000   ; qtot 0.500735
  426         h1     15    bbb    H13    426 0.06123400   1.008000   ; qtot 0.561969
  427         h1     15    bbb    H14    427 0.06123400   1.008000   ; qtot 0.623203
  428         c3     15    bbb     C8    428 -0.72423400  12.010000   ; qtot -0.101031
  429         h1     15    bbb    H15    429 0.25637600   1.008000   ; qtot 0.155345
  430         h1     15    bbb    H16    430 0.25637600   1.008000   ; qtot 0.411721
  431         c3     15    bbb     C9    431 -0.72423400  12.010000   ; qtot -0.312513
  432         h1     15    bbb    H17    432 0.25637600   1.008000   ; qtot -0.056137
  433         h1     15    bbb    H18    433 0.25637600   1.008000   ; qtot 0.200239
  434         os     15    bbb     O1    434 -0.20025300  16.000000   ; qtot -0.000014
; residue   16 bbb rtp bbb q -0.0
  435         n3     16    bbb     N1    435 -0.59685800  14.010000   ; qtot -0.596872
  436         c3     16    bbb     C1    436 0.10137000  12.010000   ; qtot -0.495502
  437         h1     16    bbb     H1    437 0.04411300   1.008000   ; qtot -0.451389
  438         h1     16    bbb     H2    438 0.04411300   1.008000   ; qtot -0.407276
  439         c3     16    bbb     C2    439 0.10137000  12.010000   ; qtot -0.305906
  440         h1     16    bbb     H3    440 0.04411300   1.008000   ; qtot -0.261793
  441         h1     16    bbb     H4    441 0.04411300   1.008000   ; qtot -0.217680
  442         c3     16    bbb     C3    442 -0.00195300  12.010000   ; qtot -0.219633
  443         h1     16    bbb     H5    443 0.05064400   1.008000   ; qtot -0.168989
  444         h1     16    bbb     H6    444 0.05064400   1.008000   ; qtot -0.118345
  445         c3     16    bbb     C4    445 -0.01612100  12.010000   ; qtot -0.134466
  446         hc     16    bbb     H7    446 0.04936100   1.008000   ; qtot -0.085105
  447         hc     16    bbb     H8    447 0.04936100   1.008000   ; qtot -0.035744
  448         c3     16    bbb     C5    448 0.11363000  12.010000   ; qtot 0.077886
  449         hc     16    bbb     H9    449 0.06265900   1.008000   ; qtot 0.140545
  450         hc     16    bbb    H10    450 0.06265900   1.008000   ; qtot 0.203204
  451         c3     16    bbb     C6    451 0.11363000  12.010000   ; qtot 0.316834
  452         hc     16    bbb    H11    452 0.06265900   1.008000   ; qtot 0.379493
  453         hc     16    bbb    H12    453 0.06265900   1.008000   ; qtot 0.442152
  454         c3     16    bbb     C7    454 0.05858200  12.010000   ; qtot 0.500734
  455         h1     16    bbb    H13    455 0.06123400   1.008000   ; qtot 0.561968
  456         h1     16    bbb    H14    456 0.06123400   1.008000   ; qtot 0.623202
  457         c3     16    bbb     C8    457 -0.72423400  12.010000   ; qtot -0.101032
  458         h1     16    bbb    H15    458 0.25637600   1.008000   ; qtot 0.155344
  459         h1     16    bbb    H16    459 0.25637600   1.008000   ; qtot 0.411720
  460         c3     16    bbb     C9    460 -0.72423400  12.010000   ; qtot -0.312514
  461         h1     16    bbb    H17    461 0.25637600   1.008000   ; qtot -0.056138
  462         h1     16    bbb    H18    462 0.25637600   1.008000   ; qtot 0.200238
  463         os     16    bbb     O1    463 -0.20025300  16.000000   ; qtot -0.000015
; residue   17 bbb rtp bbb q -0.0
  464         n3     17    bbb     N1    464 -0.59685800  14.010000   ; qtot -0.596873
  465         c3     17    bbb     C1    465 0.10137000  12.010000   ; qtot -0.495503
  466         h1     17    bbb     H1    466 0.04411300   1.008000   ; qtot -0.451390
  467         h1     17    bbb     H2    467 0.04411300   1.008000   ; qtot -0.407277
  468         c3     17    bbb     C2    468 0.10137000  12.010000   ; qtot -0.305907
  469         h1     17    bbb     H3    469 0.04411300   1.008000   ; qtot -0.261794
  470         h1     17    bbb     H4    470 0.04411300   1.008000   ; qtot -0.217681
  471         c3     17    bbb     C3    471 -0.00195300  12.010000   ; qtot -0.219634
  472         h1     17    bbb     H5    472 0.05064400   1.008000   ; qtot -0.168990
  473         h1     17    bbb     H6    473 0.05064400   1.008000   ; qtot -0.118346
  474         c3     17    bbb     C4    474 -0.01612100  12.010000   ; qtot -0.134467
  475         hc     17    bbb     H7    475 0.04936100   1.008000   ; qtot -0.085106
  476         hc     17    bbb     H8    476 0.04936100   1.008000   ; qtot -0.035745
  477         c3     17    bbb     C5    477 0.11363000  12.010000   ; qtot 0.077885
  478         hc     17    bbb     H9    478 0.06265900   1.008000   ; qtot 0.140544
  479         hc     17    bbb    H10    479 0.06265900   1.008000   ; qtot 0.203203
  480         c3     17    bbb     C6    480 0.11363000  12.010000   ; qtot 0.316833
  481         hc     17    bbb    H11    481 0.06265900   1.008000   ; qtot 0.379492
  482         hc     17    bbb    H12    482 0.06265900   1.008000   ; qtot 0.442151
  483         c3     17    bbb     C7    483 0.05858200  12.010000   ; qtot 0.500733
  484         h1     17    bbb    H13    484 0.06123400   1.008000   ; qtot 0.561967
  485         h1     17    bbb    H14    485 0.06123400   1.008000   ; qtot 0.623201
  486         c3     17    bbb     C8    486 -0.72423400  12.010000   ; qtot -0.101033
  487         h1     17    bbb    H15    487 0.25637600   1.008000   ; qtot 0.155343
  488         h1     17    bbb    H16    488 0.25637600   1.008000   ; qtot 0.411719
  489         c3     17    bbb     C9    489 -0.72423400  12.010000   ; qtot -0.312515
  490         h1     17    bbb    H17    490 0.25637600   1.008000   ; qtot -0.056139
  491         h1     17    bbb    H18    491 0.25637600   1.008000   ; qtot 0.200237
  492         os     17    bbb     O1    492 -0.20025300  16.000000   ; qtot -0.000016
; residue   18 bbb rtp bbb q -0.0
  493         n3     18    bbb     N1    493 -0.59685800  14.010000   ; qtot -0.596874
  494         c3     18    bbb     C1    494 0.10137000  12.010000   ; qtot -0.495504
  495         h1     18    bbb     H1    495 0.04411300   1.008000   ; qtot -0.451391
  496         h1     18    bbb     H2    496 0.04411300   1.008000   ; qtot -0.407278
  497         c3     18    bbb     C2    497 0.10137000  12.010000   ; qtot -0.305908
  498         h1     18    bbb     H3    498 0.04411300   1.008000   ; qtot -0.261795
  499         h1     18    bbb     H4    499 0.04411300   1.008000   ; qtot -0.217682
  500         c3     18    bbb     C3    500 -0.00195300  12.010000   ; qtot -0.219635
  501         h1     18    bbb     H5    501 0.05064400   1.008000   ; qtot -0.168991
  502         h1     18    bbb     H6    502 0.05064400   1.008000   ; qtot -0.118347
  503         c3     18    bbb     C4    503 -0.01612100  12.010000   ; qtot -0.134468
  504         hc     18    bbb     H7    504 0.04936100   1.008000   ; qtot -0.085107
  505         hc     18    bbb     H8    505 0.04936100   1.008000   ; qtot -0.035746
  506         c3     18    bbb     C5    506 0.11363000  12.010000   ; qtot 0.077884
  507         hc     18    bbb     H9    507 0.06265900   1.008000   ; qtot 0.140543
  508         hc     18    bbb    H10    508 0.06265900   1.008000   ; qtot 0.203202
  509         c3     18    bbb     C6    509 0.11363000  12.010000   ; qtot 0.316832
  510         hc     18    bbb    H11    510 0.06265900   1.008000   ; qtot 0.379491
  511         hc     18    bbb    H12    511 0.06265900   1.008000   ; qtot 0.442150
  512         c3     18    bbb     C7    512 0.05858200  12.010000   ; qtot 0.500732
  513         h1     18    bbb    H13    513 0.06123400   1.008000   ; qtot 0.561966
  514         h1     18    bbb    H14    514 0.06123400   1.008000   ; qtot 0.623200
  515         c3     18    bbb     C8    515 -0.72423400  12.010000   ; qtot -0.101034
  516         h1     18    bbb    H15    516 0.25637600   1.008000   ; qtot 0.155342
  517         h1     18    bbb    H16    517 0.25637600   1.008000   ; qtot 0.411718
  518         c3     18    bbb     C9    518 -0.72423400  12.010000   ; qtot -0.312516
  519         h1     18    bbb    H17    519 0.25637600   1.008000   ; qtot -0.056140
  520         h1     18    bbb    H18    520 0.25637600   1.008000   ; qtot 0.200236
  521         os     18    bbb     O1    521 -0.20025300  16.000000   ; qtot -0.000017
; residue   19 bbb rtp bbb q -0.0
  522         n3     19    bbb     N1    522 -0.59685800  14.010000   ; qtot -0.596875
  523         c3     19    bbb     C1    523 0.10137000  12.010000   ; qtot -0.495505
  524         h1     19    bbb     H1    524 0.04411300   1.008000   ; qtot -0.451392
  525         h1     19    bbb     H2    525 0.04411300   1.008000   ; qtot -0.407279
  526         c3     19    bbb     C2    526 0.10137000  12.010000   ; qtot -0.305909
  527         h1     19    bbb     H3    527 0.04411300   1.008000   ; qtot -0.261796
  528         h1     19    bbb     H4    528 0.04411300   1.008000   ; qtot -0.217683
  529         c3     19    bbb     C3    529 -0.00195300  12.010000   ; qtot -0.219636
  530         h1     19    bbb     H5    530 0.05064400   1.008000   ; qtot -0.168992
  531         h1     19    bbb     H6    531 0.05064400   1.008000   ; qtot -0.118348
  532         c3     19    bbb     C4    532 -0.01612100  12.010000   ; qtot -0.134469
  533         hc     19    bbb     H7    533 0.04936100   1.008000   ; qtot -0.085108
  534         hc     19    bbb     H8    534 0.04936100   1.008000   ; qtot -0.035747
  535         c3     19    bbb     C5    535 0.11363000  12.010000   ; qtot 0.077883
  536         hc     19    bbb     H9    536 0.06265900   1.008000   ; qtot 0.140542
  537         hc     19    bbb    H10    537 0.06265900   1.008000   ; qtot 0.203201
  538         c3     19    bbb     C6    538 0.11363000  12.010000   ; qtot 0.316831
  539         hc     19    bbb    H11    539 0.06265900   1.008000   ; qtot 0.379490
  540         hc     19    bbb    H12    540 0.06265900   1.008000   ; qtot 0.442149
  541         c3     19    bbb     C7    541 0.05858200  12.010000   ; qtot 0.500731
  542         h1     19    bbb    H13    542 0.06123400   1.008000   ; qtot 0.561965
  543         h1     19    bbb    H14    543 0.06123400   1.008000   ; qtot 0.623199
  544         c3     19    bbb     C8    544 -0.72423400  12.010000   ; qtot -0.101035
  545         h1     19    bbb    H15    545 0.25637600   1.008000   ; qtot 0.155341
  546         h1     19    bbb    H16    546 0.25637600   1.008000   ; qtot 0.411717
  547         c3     19    bbb     C9    547 -0.72423400  12.010000   ; qtot -0.312517
  548         h1     19    bbb    H17    548 0.25637600   1.008000   ; qtot -0.056141
  549         h1     19    bbb    H18    549 0.25637600   1.008000   ; qtot 0.200235
  550         os     19    bbb     O1    550 -0.20025300  16.000000   ; qtot -0.000018
; residue   20 bbb rtp bbb q -0.0
  551         n3     20    bbb     N1    551 -0.59685800  14.010000   ; qtot -0.596876
  552         c3     20    bbb     C1    552 0.10137000  12.010000   ; qtot -0.495506
  553         h1     20    bbb     H1    553 0.04411300   1.008000   ; qtot -0.451393
  554         h1     20    bbb     H2    554 0.04411300   1.008000   ; qtot -0.407280
  555         c3     20    bbb     C2    555 0.10137000  12.010000   ; qtot -0.305910
  556         h1     20    bbb     H3    556 0.04411300   1.008000   ; qtot -0.261797
  557         h1     20    bbb     H4    557 0.04411300   1.008000   ; qtot -0.217684
  558         c3     20    bbb     C3    558 -0.00195300  12.010000   ; qtot -0.219637
  559         h1     20    bbb     H5    559 0.05064400   1.008000   ; qtot -0.168993
  560         h1     20    bbb     H6    560 0.05064400   1.008000   ; qtot -0.118349
  561         c3     20    bbb     C4    561 -0.01612100  12.010000   ; qtot -0.134470
  562         hc     20    bbb     H7    562 0.04936100   1.008000   ; qtot -0.085109
  563         hc     20    bbb     H8    563 0.04936100   1.008000   ; qtot -0.035748
  564         c3     20    bbb     C5    564 0.11363000  12.010000   ; qtot 0.077882
  565         hc     20    bbb     H9    565 0.06265900   1.008000   ; qtot 0.140541
  566         hc     20    bbb    H10    566 0.06265900   1.008000   ; qtot 0.203200
  567         c3     20    bbb     C6    567 0.11363000  12.010000   ; qtot 0.316830
  568         hc     20    bbb    H11    568 0.06265900   1.008000   ; qtot 0.379489
  569         hc     20    bbb    H12    569 0.06265900   1.008000   ; qtot 0.442148
  570         c3     20    bbb     C7    570 0.05858200  12.010000   ; qtot 0.500730
  571         h1     20    bbb    H13    571 0.06123400   1.008000   ; qtot 0.561964
  572         h1     20    bbb    H14    572 0.06123400   1.008000   ; qtot 0.623198
  573         c3     20    bbb     C8    573 -0.72423400  12.010000   ; qtot -0.101036
  574         h1     20    bbb    H15    574 0.25637600   1.008000   ; qtot 0.155340
  575         h1     20    bbb    H16    575 0.25637600   1.008000   ; qtot 0.411716
  576         c3     20    bbb     C9    576 -0.72423400  12.010000   ; qtot -0.312518
  577         h1     20    bbb    H17    577 0.25637600   1.008000   ; qtot -0.056142
  578         h1     20    bbb    H18    578 0.25637600   1.008000   ; qtot 0.200234
  579         os     20    bbb     O1    579 -0.20025300  16.000000   ; qtot -0.000019
; residue   21 bbb rtp bbb q -0.0
  580         n3     21    bbb     N1    580 -0.59685800  14.010000   ; qtot -0.596877
  581         c3     21    bbb     C1    581 0.10137000  12.010000   ; qtot -0.495507
  582         h1     21    bbb     H1    582 0.04411300   1.008000   ; qtot -0.451394
  583         h1     21    bbb     H2    583 0.04411300   1.008000   ; qtot -0.407281
  584         c3     21    bbb     C2    584 0.10137000  12.010000   ; qtot -0.305911
  585         h1     21    bbb     H3    585 0.04411300   1.008000   ; qtot -0.261798
  586         h1     21    bbb     H4    586 0.04411300   1.008000   ; qtot -0.217685
  587         c3     21    bbb     C3    587 -0.00195300  12.010000   ; qtot -0.219638
  588         h1     21    bbb     H5    588 0.05064400   1.008000   ; qtot -0.168994
  589         h1     21    bbb     H6    589 0.05064400   1.008000   ; qtot -0.118350
  590         c3     21    bbb     C4    590 -0.01612100  12.010000   ; qtot -0.134471
  591         hc     21    bbb     H7    591 0.04936100   1.008000   ; qtot -0.085110
  592         hc     21    bbb     H8    592 0.04936100   1.008000   ; qtot -0.035749
  593         c3     21    bbb     C5    593 0.11363000  12.010000   ; qtot 0.077881
  594         hc     21    bbb     H9    594 0.06265900   1.008000   ; qtot 0.140540
  595         hc     21    bbb    H10    595 0.06265900   1.008000   ; qtot 0.203199
  596         c3     21    bbb     C6    596 0.11363000  12.010000   ; qtot 0.316829
  597         hc     21    bbb    H11    597 0.06265900   1.008000   ; qtot 0.379488
  598         hc     21    bbb    H12    598 0.06265900   1.008000   ; qtot 0.442147
  599         c3     21    bbb     C7    599 0.05858200  12.010000   ; qtot 0.500729
  600         h1     21    bbb    H13    600 0.06123400   1.008000   ; qtot 0.561963
  601         h1     21    bbb    H14    601 0.06123400   1.008000   ; qtot 0.623197
  602         c3     21    bbb     C8    602 -0.72423400  12.010000   ; qtot -0.101037
  603         h1     21    bbb    H15    603 0.25637600   1.008000   ; qtot 0.155339
  604         h1     21    bbb    H16    604 0.25637600   1.008000   ; qtot 0.411715
  605         c3     21    bbb     C9    605 -0.72423400  12.010000   ; qtot -0.312519
  606         h1     21    bbb    H17    606 0.25637600   1.008000   ; qtot -0.056143
  607         h1     21    bbb    H18    607 0.25637600   1.008000   ; qtot 0.200233
  608         os     21    bbb     O1    608 -0.20025300  16.000000   ; qtot -0.000020
; residue   22 bbb rtp bbb q -0.0
  609         n3     22    bbb     N1    609 -0.59685800  14.010000   ; qtot -0.596878
  610         c3     22    bbb     C1    610 0.10137000  12.010000   ; qtot -0.495508
  611         h1     22    bbb     H1    611 0.04411300   1.008000   ; qtot -0.451395
  612         h1     22    bbb     H2    612 0.04411300   1.008000   ; qtot -0.407282
  613         c3     22    bbb     C2    613 0.10137000  12.010000   ; qtot -0.305912
  614         h1     22    bbb     H3    614 0.04411300   1.008000   ; qtot -0.261799
  615         h1     22    bbb     H4    615 0.04411300   1.008000   ; qtot -0.217686
  616         c3     22    bbb     C3    616 -0.00195300  12.010000   ; qtot -0.219639
  617         h1     22    bbb     H5    617 0.05064400   1.008000   ; qtot -0.168995
  618         h1     22    bbb     H6    618 0.05064400   1.008000   ; qtot -0.118351
  619         c3     22    bbb     C4    619 -0.01612100  12.010000   ; qtot -0.134472
  620         hc     22    bbb     H7    620 0.04936100   1.008000   ; qtot -0.085111
  621         hc     22    bbb     H8    621 0.04936100   1.008000   ; qtot -0.035750
  622         c3     22    bbb     C5    622 0.11363000  12.010000   ; qtot 0.077880
  623         hc     22    bbb     H9    623 0.06265900   1.008000   ; qtot 0.140539
  624         hc     22    bbb    H10    624 0.06265900   1.008000   ; qtot 0.203198
  625         c3     22    bbb     C6    625 0.11363000  12.010000   ; qtot 0.316828
  626         hc     22    bbb    H11    626 0.06265900   1.008000   ; qtot 0.379487
  627         hc     22    bbb    H12    627 0.06265900   1.008000   ; qtot 0.442146
  628         c3     22    bbb     C7    628 0.05858200  12.010000   ; qtot 0.500728
  629         h1     22    bbb    H13    629 0.06123400   1.008000   ; qtot 0.561962
  630         h1     22    bbb    H14    630 0.06123400   1.008000   ; qtot 0.623196
  631         c3     22    bbb     C8    631 -0.72423400  12.010000   ; qtot -0.101038
  632         h1     22    bbb    H15    632 0.25637600   1.008000   ; qtot 0.155338
  633         h1     22    bbb    H16    633 0.25637600   1.008000   ; qtot 0.411714
  634         c3     22    bbb     C9    634 -0.72423400  12.010000   ; qtot -0.312520
  635         h1     22    bbb    H17    635 0.25637600   1.008000   ; qtot -0.056144
  636         h1     22    bbb    H18    636 0.25637600   1.008000   ; qtot 0.200232
  637         os     22    bbb     O1    637 -0.20025300  16.000000   ; qtot -0.000021
; residue   23 ccc rtp ccc q 0.0
  638         c3     23    ccc     C1    638 0.50749700  12.010000   ; qtot 0.507476
  639         h1     23    ccc     H1    639 -0.02808400   1.008000   ; qtot 0.479392
  640         h1     23    ccc     H2    640 -0.02808400   1.008000   ; qtot 0.451308
  641         c3     23    ccc     C2    641 -0.15486000  12.010000   ; qtot 0.296448
  642         hc     23    ccc     H3    642 0.10266400   1.008000   ; qtot 0.399112
  643         hc     23    ccc     H4    643 0.10266400   1.008000   ; qtot 0.501776
  644         c3     23    ccc     C3    644 -0.15693500  12.010000   ; qtot 0.344841
  645         h1     23    ccc     H5    645 0.08499200   1.008000   ; qtot 0.429833
  646         h1     23    ccc     H6    646 0.08499200   1.008000   ; qtot 0.514825
  647         n3     23    ccc     N1    647 -0.29948700  14.010000   ; qtot 0.215338
  648         c3     23    ccc     C4    648 -0.01321200  12.010000   ; qtot 0.202126
  649         h1     23    ccc     H7    649 0.08172200   1.008000   ; qtot 0.283848
  650         h1     23    ccc     H8    650 0.08172200   1.008000   ; qtot 0.365570
  651         c3     23    ccc     C5    651 -0.22180000  12.010000   ; qtot 0.143770
  652         hc     23    ccc     H9    652 0.09671800   1.008000   ; qtot 0.240488
  653         hc     23    ccc    H10    653 0.09671800   1.008000   ; qtot 0.337206
  654          c     23    ccc     C6    654 0.526324  12.010000   ; qtot 1.333733
  655          o     23    ccc     O1    655 -0.39142825  16.000000   ; qtot 0.637227
  656         oh     23    ccc     O2    656 -0.56822625  16.000000   ; qtot -0.203584
  657         ho     23    ccc    H11    657 0.4186155   1.008000   ; qtot 0.322491
  658         c3     23    ccc     C7    658 -0.01321200  12.010000   ; qtot 0.309279
  659         h1     23    ccc    H12    659 0.08172200   1.008000   ; qtot 0.391001
  660         h1     23    ccc    H13    660 0.08172200   1.008000   ; qtot 0.472723
  661         c3     23    ccc     C8    661 -0.22180000  12.010000   ; qtot 0.250923
  662         hc     23    ccc    H14    662 0.09671800   1.008000   ; qtot 0.347641
  663         hc     23    ccc    H15    663 0.09671800   1.008000   ; qtot 0.444359
  664          c     23    ccc     C9    664 0.526324  12.010000   ; qtot 1.440886
  665          o     23    ccc     O3    665 -0.39142825  16.000000   ; qtot 0.744380
  666         oh     23    ccc     O4    666 -0.56822625  16.000000   ; qtot -0.096431
  667         ho     23    ccc    H16    667 0.4186155   1.008000   ; qtot 0.429644
  668         os     23    ccc     O5    668 -0.42966500  16.000000   ; qtot -0.000021
; residue   24 ccc rtp ccc q 0.0
  669         c3     24    ccc     C1    669 0.50749700  12.010000   ; qtot 0.507476
  670         h1     24    ccc     H1    670 -0.02808400   1.008000   ; qtot 0.479392
  671         h1     24    ccc     H2    671 -0.02808400   1.008000   ; qtot 0.451308
  672         c3     24    ccc     C2    672 -0.15486000  12.010000   ; qtot 0.296448
  673         hc     24    ccc     H3    673 0.10266400   1.008000   ; qtot 0.399112
  674         hc     24    ccc     H4    674 0.10266400   1.008000   ; qtot 0.501776
  675         c3     24    ccc     C3    675 -0.15693500  12.010000   ; qtot 0.344841
  676         h1     24    ccc     H5    676 0.08499200   1.008000   ; qtot 0.429833
  677         h1     24    ccc     H6    677 0.08499200   1.008000   ; qtot 0.514825
  678         n3     24    ccc     N1    678 -0.29948700  14.010000   ; qtot 0.215338
  679         c3     24    ccc     C4    679 -0.01321200  12.010000   ; qtot 0.202126
  680         h1     24    ccc     H7    680 0.08172200   1.008000   ; qtot 0.283848
  681         h1     24    ccc     H8    681 0.08172200   1.008000   ; qtot 0.365570
  682         c3     24    ccc     C5    682 -0.22180000  12.010000   ; qtot 0.143770
  683         hc     24    ccc     H9    683 0.09671800   1.008000   ; qtot 0.240488
  684         hc     24    ccc    H10    684 0.09671800   1.008000   ; qtot 0.337206
  685          c     24    ccc     C6    685 0.526324  12.010000   ; qtot 1.333733
  686          o     24    ccc     O1    686 -0.39142825  16.000000   ; qtot 0.637227
  687         oh     24    ccc     O2    687 -0.56822625  16.000000   ; qtot -0.203584
  688         ho     24    ccc    H11    688 0.4186155   1.008000   ; qtot 0.322491
  689         c3     24    ccc     C7    689 -0.01321200  12.010000   ; qtot 0.309279
  690         h1     24    ccc    H12    690 0.08172200   1.008000   ; qtot 0.391001
  691         h1     24    ccc    H13    691 0.08172200   1.008000   ; qtot 0.472723
  692         c3     24    ccc     C8    692 -0.22180000  12.010000   ; qtot 0.250923
  693         hc     24    ccc    H14    693 0.09671800   1.008000   ; qtot 0.347641
  694         hc     24    ccc    H15    694 0.09671800   1.008000   ; qtot 0.444359
  695          c     24    ccc     C9    695 0.526324  12.010000   ; qtot 1.440886
  696          o     24    ccc     O3    696 -0.39142825  16.000000   ; qtot 0.744380
  697         oh     24    ccc     O4    697 -0.56822625  16.000000   ; qtot -0.096431
  698         ho     24    ccc    H16    698 0.4186155   1.008000   ; qtot 0.429644
  699         os     24    ccc     O5    699 -0.42966500  16.000000   ; qtot -0.000021
; residue   25 ccc rtp ccc q 0.0
  700         c3     25    ccc     C1    700 0.50749700  12.010000   ; qtot 0.507476
  701         h1     25    ccc     H1    701 -0.02808400   1.008000   ; qtot 0.479392
  702         h1     25    ccc     H2    702 -0.02808400   1.008000   ; qtot 0.451308
  703         c3     25    ccc     C2    703 -0.15486000  12.010000   ; qtot 0.296448
  704         hc     25    ccc     H3    704 0.10266400   1.008000   ; qtot 0.399112
  705         hc     25    ccc     H4    705 0.10266400   1.008000   ; qtot 0.501776
  706         c3     25    ccc     C3    706 -0.15693500  12.010000   ; qtot 0.344841
  707         h1     25    ccc     H5    707 0.08499200   1.008000   ; qtot 0.429833
  708         h1     25    ccc     H6    708 0.08499200   1.008000   ; qtot 0.514825
  709         n3     25    ccc     N1    709 -0.29948700  14.010000   ; qtot 0.215338
  710         c3     25    ccc     C4    710 -0.01321200  12.010000   ; qtot 0.202126
  711         h1     25    ccc     H7    711 0.08172200   1.008000   ; qtot 0.283848
  712         h1     25    ccc     H8    712 0.08172200   1.008000   ; qtot 0.365570
  713         c3     25    ccc     C5    713 -0.22180000  12.010000   ; qtot 0.143770
  714         hc     25    ccc     H9    714 0.09671800   1.008000   ; qtot 0.240488
  715         hc     25    ccc    H10    715 0.09671800   1.008000   ; qtot 0.337206
  716          c     25    ccc     C6    716 0.526324  12.010000   ; qtot 1.333733
  717          o     25    ccc     O1    717 -0.39142825  16.000000   ; qtot 0.637227
  718         oh     25    ccc     O2    718 -0.56822625  16.000000   ; qtot -0.203584
  719         ho     25    ccc    H11    719 0.4186155   1.008000   ; qtot 0.322491
  720         c3     25    ccc     C7    720 -0.01321200  12.010000   ; qtot 0.309279
  721         h1     25    ccc    H12    721 0.08172200   1.008000   ; qtot 0.391001
  722         h1     25    ccc    H13    722 0.08172200   1.008000   ; qtot 0.472723
  723         c3     25    ccc     C8    723 -0.22180000  12.010000   ; qtot 0.250923
  724         hc     25    ccc    H14    724 0.09671800   1.008000   ; qtot 0.347641
  725         hc     25    ccc    H15    725 0.09671800   1.008000   ; qtot 0.444359
  726          c     25    ccc     C9    726 0.526324  12.010000   ; qtot 1.440886
  727          o     25    ccc     O3    727 -0.39142825  16.000000   ; qtot 0.744380
  728         oh     25    ccc     O4    728 -0.56822625  16.000000   ; qtot -0.096431
  729         ho     25    ccc    H16    729 0.4186155   1.008000   ; qtot 0.429644
  730         os     25    ccc     O5    730 -0.42966500  16.000000   ; qtot -0.000021
; residue   26 ccc rtp ccc q 0.0
  731         c3     26    ccc     C1    731 0.50749700  12.010000   ; qtot 0.507476
  732         h1     26    ccc     H1    732 -0.02808400   1.008000   ; qtot 0.479392
  733         h1     26    ccc     H2    733 -0.02808400   1.008000   ; qtot 0.451308
  734         c3     26    ccc     C2    734 -0.15486000  12.010000   ; qtot 0.296448
  735         hc     26    ccc     H3    735 0.10266400   1.008000   ; qtot 0.399112
  736         hc     26    ccc     H4    736 0.10266400   1.008000   ; qtot 0.501776
  737         c3     26    ccc     C3    737 -0.15693500  12.010000   ; qtot 0.344841
  738         h1     26    ccc     H5    738 0.08499200   1.008000   ; qtot 0.429833
  739         h1     26    ccc     H6    739 0.08499200   1.008000   ; qtot 0.514825
  740         n3     26    ccc     N1    740 -0.29948700  14.010000   ; qtot 0.215338
  741         c3     26    ccc     C4    741 -0.01321200  12.010000   ; qtot 0.202126
  742         h1     26    ccc     H7    742 0.08172200   1.008000   ; qtot 0.283848
  743         h1     26    ccc     H8    743 0.08172200   1.008000   ; qtot 0.365570
  744         c3     26    ccc     C5    744 -0.22180000  12.010000   ; qtot 0.143770
  745         hc     26    ccc     H9    745 0.09671800   1.008000   ; qtot 0.240488
  746         hc     26    ccc    H10    746 0.09671800   1.008000   ; qtot 0.337206
  747          c     26    ccc     C6    747 0.526324  12.010000   ; qtot 1.333733
  748          o     26    ccc     O1    748 -0.39142825  16.000000   ; qtot 0.637227
  749         oh     26    ccc     O2    749 -0.56822625  16.000000   ; qtot -0.203584
  750         ho     26    ccc    H11    750 0.4186155   1.008000   ; qtot 0.322491
  751         c3     26    ccc     C7    751 -0.01321200  12.010000   ; qtot 0.309279
  752         h1     26    ccc    H12    752 0.08172200   1.008000   ; qtot 0.391001
  753         h1     26    ccc    H13    753 0.08172200   1.008000   ; qtot 0.472723
  754         c3     26    ccc     C8    754 -0.22180000  12.010000   ; qtot 0.250923
  755         hc     26    ccc    H14    755 0.09671800   1.008000   ; qtot 0.347641
  756         hc     26    ccc    H15    756 0.09671800   1.008000   ; qtot 0.444359
  757          c     26    ccc     C9    757 0.526324  12.010000   ; qtot 1.440886
  758          o     26    ccc     O3    758 -0.39142825  16.000000   ; qtot 0.744380
  759         oh     26    ccc     O4    759 -0.56822625  16.000000   ; qtot -0.096431
  760         ho     26    ccc    H16    760 0.4186155   1.008000   ; qtot 0.429644
  761         os     26    ccc     O5    761 -0.42966500  16.000000   ; qtot -0.000021
; residue   27 ccc rtp ccc q 0.0
  762         c3     27    ccc     C1    762 0.50749700  12.010000   ; qtot 0.507476
  763         h1     27    ccc     H1    763 -0.02808400   1.008000   ; qtot 0.479392
  764         h1     27    ccc     H2    764 -0.02808400   1.008000   ; qtot 0.451308
  765         c3     27    ccc     C2    765 -0.15486000  12.010000   ; qtot 0.296448
  766         hc     27    ccc     H3    766 0.10266400   1.008000   ; qtot 0.399112
  767         hc     27    ccc     H4    767 0.10266400   1.008000   ; qtot 0.501776
  768         c3     27    ccc     C3    768 -0.15693500  12.010000   ; qtot 0.344841
  769         h1     27    ccc     H5    769 0.08499200   1.008000   ; qtot 0.429833
  770         h1     27    ccc     H6    770 0.08499200   1.008000   ; qtot 0.514825
  771         n3     27    ccc     N1    771 -0.29948700  14.010000   ; qtot 0.215338
  772         c3     27    ccc     C4    772 -0.01321200  12.010000   ; qtot 0.202126
  773         h1     27    ccc     H7    773 0.08172200   1.008000   ; qtot 0.283848
  774         h1     27    ccc     H8    774 0.08172200   1.008000   ; qtot 0.365570
  775         c3     27    ccc     C5    775 -0.22180000  12.010000   ; qtot 0.143770
  776         hc     27    ccc     H9    776 0.09671800   1.008000   ; qtot 0.240488
  777         hc     27    ccc    H10    777 0.09671800   1.008000   ; qtot 0.337206
  778          c     27    ccc     C6    778 0.526324  12.010000   ; qtot 1.333733
  779          o     27    ccc     O1    779 -0.39142825  16.000000   ; qtot 0.637227
  780         oh     27    ccc     O2    780 -0.56822625  16.000000   ; qtot -0.203584
  781         ho     27    ccc    H11    781 0.4186155   1.008000   ; qtot 0.322491
  782         c3     27    ccc     C7    782 -0.01321200  12.010000   ; qtot 0.309279
  783         h1     27    ccc    H12    783 0.08172200   1.008000   ; qtot 0.391001
  784         h1     27    ccc    H13    784 0.08172200   1.008000   ; qtot 0.472723
  785         c3     27    ccc     C8    785 -0.22180000  12.010000   ; qtot 0.250923
  786         hc     27    ccc    H14    786 0.09671800   1.008000   ; qtot 0.347641
  787         hc     27    ccc    H15    787 0.09671800   1.008000   ; qtot 0.444359
  788          c     27    ccc     C9    788 0.526324  12.010000   ; qtot 1.440886
  789          o     27    ccc     O3    789 -0.39142825  16.000000   ; qtot 0.744380
  790         oh     27    ccc     O4    790 -0.56822625  16.000000   ; qtot -0.096431
  791         ho     27    ccc    H16    791 0.4186155   1.008000   ; qtot 0.429644
  792         os     27    ccc     O5    792 -0.42966500  16.000000   ; qtot -0.000021
; residue   28 ccc rtp ccc q 0.0
  793         c3     28    ccc     C1    793 0.50749700  12.010000   ; qtot 0.507476
  794         h1     28    ccc     H1    794 -0.02808400   1.008000   ; qtot 0.479392
  795         h1     28    ccc     H2    795 -0.02808400   1.008000   ; qtot 0.451308
  796         c3     28    ccc     C2    796 -0.15486000  12.010000   ; qtot 0.296448
  797         hc     28    ccc     H3    797 0.10266400   1.008000   ; qtot 0.399112
  798         hc     28    ccc     H4    798 0.10266400   1.008000   ; qtot 0.501776
  799         c3     28    ccc     C3    799 -0.15693500  12.010000   ; qtot 0.344841
  800         h1     28    ccc     H5    800 0.08499200   1.008000   ; qtot 0.429833
  801         h1     28    ccc     H6    801 0.08499200   1.008000   ; qtot 0.514825
  802         n3     28    ccc     N1    802 -0.29948700  14.010000   ; qtot 0.215338
  803         c3     28    ccc     C4    803 -0.01321200  12.010000   ; qtot 0.202126
  804         h1     28    ccc     H7    804 0.08172200   1.008000   ; qtot 0.283848
  805         h1     28    ccc     H8    805 0.08172200   1.008000   ; qtot 0.365570
  806         c3     28    ccc     C5    806 -0.22180000  12.010000   ; qtot 0.143770
  807         hc     28    ccc     H9    807 0.09671800   1.008000   ; qtot 0.240488
  808         hc     28    ccc    H10    808 0.09671800   1.008000   ; qtot 0.337206
  809          c     28    ccc     C6    809 0.526324  12.010000   ; qtot 1.333733
  810          o     28    ccc     O1    810 -0.39142825  16.000000   ; qtot 0.637227
  811         oh     28    ccc     O2    811 -0.56822625  16.000000   ; qtot -0.203584
  812         ho     28    ccc    H11    812 0.4186155   1.008000   ; qtot 0.322491
  813         c3     28    ccc     C7    813 -0.01321200  12.010000   ; qtot 0.309279
  814         h1     28    ccc    H12    814 0.08172200   1.008000   ; qtot 0.391001
  815         h1     28    ccc    H13    815 0.08172200   1.008000   ; qtot 0.472723
  816         c3     28    ccc     C8    816 -0.22180000  12.010000   ; qtot 0.250923
  817         hc     28    ccc    H14    817 0.09671800   1.008000   ; qtot 0.347641
  818         hc     28    ccc    H15    818 0.09671800   1.008000   ; qtot 0.444359
  819          c     28    ccc     C9    819 0.526324  12.010000   ; qtot 1.440886
  820          o     28    ccc     O3    820 -0.39142825  16.000000   ; qtot 0.744380
  821         oh     28    ccc     O4    821 -0.56822625  16.000000   ; qtot -0.096431
  822         ho     28    ccc    H16    822 0.4186155   1.008000   ; qtot 0.429644
  823         os     28    ccc     O5    823 -0.42966500  16.000000   ; qtot -0.000021
; residue   29 ccc rtp ccc q 0.0
  824         c3     29    ccc     C1    824 0.50749700  12.010000   ; qtot 0.507476
  825         h1     29    ccc     H1    825 -0.02808400   1.008000   ; qtot 0.479392
  826         h1     29    ccc     H2    826 -0.02808400   1.008000   ; qtot 0.451308
  827         c3     29    ccc     C2    827 -0.15486000  12.010000   ; qtot 0.296448
  828         hc     29    ccc     H3    828 0.10266400   1.008000   ; qtot 0.399112
  829         hc     29    ccc     H4    829 0.10266400   1.008000   ; qtot 0.501776
  830         c3     29    ccc     C3    830 -0.15693500  12.010000   ; qtot 0.344841
  831         h1     29    ccc     H5    831 0.08499200   1.008000   ; qtot 0.429833
  832         h1     29    ccc     H6    832 0.08499200   1.008000   ; qtot 0.514825
  833         n3     29    ccc     N1    833 -0.29948700  14.010000   ; qtot 0.215338
  834         c3     29    ccc     C4    834 -0.01321200  12.010000   ; qtot 0.202126
  835         h1     29    ccc     H7    835 0.08172200   1.008000   ; qtot 0.283848
  836         h1     29    ccc     H8    836 0.08172200   1.008000   ; qtot 0.365570
  837         c3     29    ccc     C5    837 -0.22180000  12.010000   ; qtot 0.143770
  838         hc     29    ccc     H9    838 0.09671800   1.008000   ; qtot 0.240488
  839         hc     29    ccc    H10    839 0.09671800   1.008000   ; qtot 0.337206
  840          c     29    ccc     C6    840 0.526324  12.010000   ; qtot 1.333733
  841          o     29    ccc     O1    841 -0.39142825  16.000000   ; qtot 0.637227
  842         oh     29    ccc     O2    842 -0.56822625  16.000000   ; qtot -0.203584
  843         ho     29    ccc    H11    843 0.4186155   1.008000   ; qtot 0.322491
  844         c3     29    ccc     C7    844 -0.01321200  12.010000   ; qtot 0.309279
  845         h1     29    ccc    H12    845 0.08172200   1.008000   ; qtot 0.391001
  846         h1     29    ccc    H13    846 0.08172200   1.008000   ; qtot 0.472723
  847         c3     29    ccc     C8    847 -0.22180000  12.010000   ; qtot 0.250923
  848         hc     29    ccc    H14    848 0.09671800   1.008000   ; qtot 0.347641
  849         hc     29    ccc    H15    849 0.09671800   1.008000   ; qtot 0.444359
  850          c     29    ccc     C9    850 0.526324  12.010000   ; qtot 1.440886
  851          o     29    ccc     O3    851 -0.39142825  16.000000   ; qtot 0.744380
  852         oh     29    ccc     O4    852 -0.56822625  16.000000   ; qtot -0.096431
  853         ho     29    ccc    H16    853 0.4186155   1.008000   ; qtot 0.429644
  854         os     29    ccc     O5    854 -0.42966500  16.000000   ; qtot -0.000021
; residue   30 ccc rtp ccc q 0.0
  855         c3     30    ccc     C1    855 0.50749700  12.010000   ; qtot 0.507476
  856         h1     30    ccc     H1    856 -0.02808400   1.008000   ; qtot 0.479392
  857         h1     30    ccc     H2    857 -0.02808400   1.008000   ; qtot 0.451308
  858         c3     30    ccc     C2    858 -0.15486000  12.010000   ; qtot 0.296448
  859         hc     30    ccc     H3    859 0.10266400   1.008000   ; qtot 0.399112
  860         hc     30    ccc     H4    860 0.10266400   1.008000   ; qtot 0.501776
  861         c3     30    ccc     C3    861 -0.15693500  12.010000   ; qtot 0.344841
  862         h1     30    ccc     H5    862 0.08499200   1.008000   ; qtot 0.429833
  863         h1     30    ccc     H6    863 0.08499200   1.008000   ; qtot 0.514825
  864         n3     30    ccc     N1    864 -0.29948700  14.010000   ; qtot 0.215338
  865         c3     30    ccc     C4    865 -0.01321200  12.010000   ; qtot 0.202126
  866         h1     30    ccc     H7    866 0.08172200   1.008000   ; qtot 0.283848
  867         h1     30    ccc     H8    867 0.08172200   1.008000   ; qtot 0.365570
  868         c3     30    ccc     C5    868 -0.22180000  12.010000   ; qtot 0.143770
  869         hc     30    ccc     H9    869 0.09671800   1.008000   ; qtot 0.240488
  870         hc     30    ccc    H10    870 0.09671800   1.008000   ; qtot 0.337206
  871          c     30    ccc     C6    871 0.526324  12.010000   ; qtot 1.333733
  872          o     30    ccc     O1    872 -0.39142825  16.000000   ; qtot 0.637227
  873         oh     30    ccc     O2    873 -0.56822625  16.000000   ; qtot -0.203584
  874         ho     30    ccc    H11    874 0.4186155   1.008000   ; qtot 0.322491
  875         c3     30    ccc     C7    875 -0.01321200  12.010000   ; qtot 0.309279
  876         h1     30    ccc    H12    876 0.08172200   1.008000   ; qtot 0.391001
  877         h1     30    ccc    H13    877 0.08172200   1.008000   ; qtot 0.472723
  878         c3     30    ccc     C8    878 -0.22180000  12.010000   ; qtot 0.250923
  879         hc     30    ccc    H14    879 0.09671800   1.008000   ; qtot 0.347641
  880         hc     30    ccc    H15    880 0.09671800   1.008000   ; qtot 0.444359
  881          c     30    ccc     C9    881 0.526324  12.010000   ; qtot 1.440886
  882          o     30    ccc     O3    882 -0.39142825  16.000000   ; qtot 0.744380
  883         oh     30    ccc     O4    883 -0.56822625  16.000000   ; qtot -0.096431
  884         ho     30    ccc    H16    884 0.4186155   1.008000   ; qtot 0.429644
  885         os     30    ccc     O5    885 -0.42966500  16.000000   ; qtot -0.000021
; residue   31 ccc rtp ccc q 0.0
  886         c3     31    ccc     C1    886 0.50749700  12.010000   ; qtot 0.507476
  887         h1     31    ccc     H1    887 -0.02808400   1.008000   ; qtot 0.479392
  888         h1     31    ccc     H2    888 -0.02808400   1.008000   ; qtot 0.451308
  889         c3     31    ccc     C2    889 -0.15486000  12.010000   ; qtot 0.296448
  890         hc     31    ccc     H3    890 0.10266400   1.008000   ; qtot 0.399112
  891         hc     31    ccc     H4    891 0.10266400   1.008000   ; qtot 0.501776
  892         c3     31    ccc     C3    892 -0.15693500  12.010000   ; qtot 0.344841
  893         h1     31    ccc     H5    893 0.08499200   1.008000   ; qtot 0.429833
  894         h1     31    ccc     H6    894 0.08499200   1.008000   ; qtot 0.514825
  895         n3     31    ccc     N1    895 -0.29948700  14.010000   ; qtot 0.215338
  896         c3     31    ccc     C4    896 -0.01321200  12.010000   ; qtot 0.202126
  897         h1     31    ccc     H7    897 0.08172200   1.008000   ; qtot 0.283848
  898         h1     31    ccc     H8    898 0.08172200   1.008000   ; qtot 0.365570
  899         c3     31    ccc     C5    899 -0.22180000  12.010000   ; qtot 0.143770
  900         hc     31    ccc     H9    900 0.09671800   1.008000   ; qtot 0.240488
  901         hc     31    ccc    H10    901 0.09671800   1.008000   ; qtot 0.337206
  902          c     31    ccc     C6    902 0.526324  12.010000   ; qtot 1.333733
  903          o     31    ccc     O1    903 -0.39142825  16.000000   ; qtot 0.637227
  904         oh     31    ccc     O2    904 -0.56822625  16.000000   ; qtot -0.203584
  905         ho     31    ccc    H11    905 0.4186155   1.008000   ; qtot 0.322491
  906         c3     31    ccc     C7    906 -0.01321200  12.010000   ; qtot 0.309279
  907         h1     31    ccc    H12    907 0.08172200   1.008000   ; qtot 0.391001
  908         h1     31    ccc    H13    908 0.08172200   1.008000   ; qtot 0.472723
  909         c3     31    ccc     C8    909 -0.22180000  12.010000   ; qtot 0.250923
  910         hc     31    ccc    H14    910 0.09671800   1.008000   ; qtot 0.347641
  911         hc     31    ccc    H15    911 0.09671800   1.008000   ; qtot 0.444359
  912          c     31    ccc     C9    912 0.526324  12.010000   ; qtot 1.440886
  913          o     31    ccc     O3    913 -0.39142825  16.000000   ; qtot 0.744380
  914         oh     31    ccc     O4    914 -0.56822625  16.000000   ; qtot -0.096431
  915         ho     31    ccc    H16    915 0.4186155   1.008000   ; qtot 0.429644
  916         os     31    ccc     O5    916 -0.42966500  16.000000   ; qtot -0.000021
; residue   32 ccc rtp ccc q 0.0
  917         c3     32    ccc     C1    917 0.50749700  12.010000   ; qtot 0.507476
  918         h1     32    ccc     H1    918 -0.02808400   1.008000   ; qtot 0.479392
  919         h1     32    ccc     H2    919 -0.02808400   1.008000   ; qtot 0.451308
  920         c3     32    ccc     C2    920 -0.15486000  12.010000   ; qtot 0.296448
  921         hc     32    ccc     H3    921 0.10266400   1.008000   ; qtot 0.399112
  922         hc     32    ccc     H4    922 0.10266400   1.008000   ; qtot 0.501776
  923         c3     32    ccc     C3    923 -0.15693500  12.010000   ; qtot 0.344841
  924         h1     32    ccc     H5    924 0.08499200   1.008000   ; qtot 0.429833
  925         h1     32    ccc     H6    925 0.08499200   1.008000   ; qtot 0.514825
  926         n3     32    ccc     N1    926 -0.29948700  14.010000   ; qtot 0.215338
  927         c3     32    ccc     C4    927 -0.01321200  12.010000   ; qtot 0.202126
  928         h1     32    ccc     H7    928 0.08172200   1.008000   ; qtot 0.283848
  929         h1     32    ccc     H8    929 0.08172200   1.008000   ; qtot 0.365570
  930         c3     32    ccc     C5    930 -0.22180000  12.010000   ; qtot 0.143770
  931         hc     32    ccc     H9    931 0.09671800   1.008000   ; qtot 0.240488
  932         hc     32    ccc    H10    932 0.09671800   1.008000   ; qtot 0.337206
  933          c     32    ccc     C6    933 0.526324  12.010000   ; qtot 1.333733
  934          o     32    ccc     O1    934 -0.39142825  16.000000   ; qtot 0.637227
  935         oh     32    ccc     O2    935 -0.56822625  16.000000   ; qtot -0.203584
  936         ho     32    ccc    H11    936 0.4186155   1.008000   ; qtot 0.322491
  937         c3     32    ccc     C7    937 -0.01321200  12.010000   ; qtot 0.309279
  938         h1     32    ccc    H12    938 0.08172200   1.008000   ; qtot 0.391001
  939         h1     32    ccc    H13    939 0.08172200   1.008000   ; qtot 0.472723
  940         c3     32    ccc     C8    940 -0.22180000  12.010000   ; qtot 0.250923
  941         hc     32    ccc    H14    941 0.09671800   1.008000   ; qtot 0.347641
  942         hc     32    ccc    H15    942 0.09671800   1.008000   ; qtot 0.444359
  943          c     32    ccc     C9    943 0.526324  12.010000   ; qtot 1.440886
  944          o     32    ccc     O3    944 -0.39142825  16.000000   ; qtot 0.744380
  945         oh     32    ccc     O4    945 -0.56822625  16.000000   ; qtot -0.096431
  946         ho     32    ccc    H16    946 0.4186155   1.008000   ; qtot 0.429644
  947         os     32    ccc     O5    947 -0.42966500  16.000000   ; qtot -0.000021
; residue   33 ccc rtp ccc q 0.0
  948         c3     33    ccc     C1    948 0.50749700  12.010000   ; qtot 0.507476
  949         h1     33    ccc     H1    949 -0.02808400   1.008000   ; qtot 0.479392
  950         h1     33    ccc     H2    950 -0.02808400   1.008000   ; qtot 0.451308
  951         c3     33    ccc     C2    951 -0.15486000  12.010000   ; qtot 0.296448
  952         hc     33    ccc     H3    952 0.10266400   1.008000   ; qtot 0.399112
  953         hc     33    ccc     H4    953 0.10266400   1.008000   ; qtot 0.501776
  954         c3     33    ccc     C3    954 -0.15693500  12.010000   ; qtot 0.344841
  955         h1     33    ccc     H5    955 0.08499200   1.008000   ; qtot 0.429833
  956         h1     33    ccc     H6    956 0.08499200   1.008000   ; qtot 0.514825
  957         n3     33    ccc     N1    957 -0.29948700  14.010000   ; qtot 0.215338
  958         c3     33    ccc     C4    958 -0.01321200  12.010000   ; qtot 0.202126
  959         h1     33    ccc     H7    959 0.08172200   1.008000   ; qtot 0.283848
  960         h1     33    ccc     H8    960 0.08172200   1.008000   ; qtot 0.365570
  961         c3     33    ccc     C5    961 -0.22180000  12.010000   ; qtot 0.143770
  962         hc     33    ccc     H9    962 0.09671800   1.008000   ; qtot 0.240488
  963         hc     33    ccc    H10    963 0.09671800   1.008000   ; qtot 0.337206
  964          c     33    ccc     C6    964 0.526324  12.010000   ; qtot 1.333733
  965          o     33    ccc     O1    965 -0.39142825  16.000000   ; qtot 0.637227
  966         oh     33    ccc     O2    966 -0.56822625  16.000000   ; qtot -0.203584
  967         ho     33    ccc    H11    967 0.4186155   1.008000   ; qtot 0.322491
  968         c3     33    ccc     C7    968 -0.01321200  12.010000   ; qtot 0.309279
  969         h1     33    ccc    H12    969 0.08172200   1.008000   ; qtot 0.391001
  970         h1     33    ccc    H13    970 0.08172200   1.008000   ; qtot 0.472723
  971         c3     33    ccc     C8    971 -0.22180000  12.010000   ; qtot 0.250923
  972         hc     33    ccc    H14    972 0.09671800   1.008000   ; qtot 0.347641
  973         hc     33    ccc    H15    973 0.09671800   1.008000   ; qtot 0.444359
  974          c     33    ccc     C9    974 0.526324  12.010000   ; qtot 1.440886
  975          o     33    ccc     O3    975 -0.39142825  16.000000   ; qtot 0.744380
  976         oh     33    ccc     O4    976 -0.56822625  16.000000   ; qtot -0.096431
  977         ho     33    ccc    H16    977 0.4186155   1.008000   ; qtot 0.429644
  978         os     33    ccc     O5    978 -0.42966500  16.000000   ; qtot -0.000021
; residue   34 ccc rtp ccc q 0.0
  979         c3     34    ccc     C1    979 0.50749700  12.010000   ; qtot 0.507476
  980         h1     34    ccc     H1    980 -0.02808400   1.008000   ; qtot 0.479392
  981         h1     34    ccc     H2    981 -0.02808400   1.008000   ; qtot 0.451308
  982         c3     34    ccc     C2    982 -0.15486000  12.010000   ; qtot 0.296448
  983         hc     34    ccc     H3    983 0.10266400   1.008000   ; qtot 0.399112
  984         hc     34    ccc     H4    984 0.10266400   1.008000   ; qtot 0.501776
  985         c3     34    ccc     C3    985 -0.15693500  12.010000   ; qtot 0.344841
  986         h1     34    ccc     H5    986 0.08499200   1.008000   ; qtot 0.429833
  987         h1     34    ccc     H6    987 0.08499200   1.008000   ; qtot 0.514825
  988         n3     34    ccc     N1    988 -0.29948700  14.010000   ; qtot 0.215338
  989         c3     34    ccc     C4    989 -0.01321200  12.010000   ; qtot 0.202126
  990         h1     34    ccc     H7    990 0.08172200   1.008000   ; qtot 0.283848
  991         h1     34    ccc     H8    991 0.08172200   1.008000   ; qtot 0.365570
  992         c3     34    ccc     C5    992 -0.22180000  12.010000   ; qtot 0.143770
  993         hc     34    ccc     H9    993 0.09671800   1.008000   ; qtot 0.240488
  994         hc     34    ccc    H10    994 0.09671800   1.008000   ; qtot 0.337206
  995          c     34    ccc     C6    995 0.526324  12.010000   ; qtot 1.333733
  996          o     34    ccc     O1    996 -0.39142825  16.000000   ; qtot 0.637227
  997         oh     34    ccc     O2    997 -0.56822625  16.000000   ; qtot -0.203584
  998         ho     34    ccc    H11    998 0.4186155   1.008000   ; qtot 0.322491
  999         c3     34    ccc     C7    999 -0.01321200  12.010000   ; qtot 0.309279
 1000         h1     34    ccc    H12   1000 0.08172200   1.008000   ; qtot 0.391001
 1001         h1     34    ccc    H13   1001 0.08172200   1.008000   ; qtot 0.472723
 1002         c3     34    ccc     C8   1002 -0.22180000  12.010000   ; qtot 0.250923
 1003         hc     34    ccc    H14   1003 0.09671800   1.008000   ; qtot 0.347641
 1004         hc     34    ccc    H15   1004 0.09671800   1.008000   ; qtot 0.444359
 1005          c     34    ccc     C9   1005 0.526324  12.010000   ; qtot 1.440886
 1006          o     34    ccc     O3   1006 -0.39142825  16.000000   ; qtot 0.744380
 1007         oh     34    ccc     O4   1007 -0.56822625  16.000000   ; qtot -0.096431
 1008         ho     34    ccc    H16   1008 0.4186155   1.008000   ; qtot 0.429644
 1009         os     34    ccc     O5   1009 -0.42966500  16.000000   ; qtot -0.000021
; residue   35 ccc rtp ccc q 0.0
 1010         c3     35    ccc     C1   1010 0.50749700  12.010000   ; qtot 0.507476
 1011         h1     35    ccc     H1   1011 -0.02808400   1.008000   ; qtot 0.479392
 1012         h1     35    ccc     H2   1012 -0.02808400   1.008000   ; qtot 0.451308
 1013         c3     35    ccc     C2   1013 -0.15486000  12.010000   ; qtot 0.296448
 1014         hc     35    ccc     H3   1014 0.10266400   1.008000   ; qtot 0.399112
 1015         hc     35    ccc     H4   1015 0.10266400   1.008000   ; qtot 0.501776
 1016         c3     35    ccc     C3   1016 -0.15693500  12.010000   ; qtot 0.344841
 1017         h1     35    ccc     H5   1017 0.08499200   1.008000   ; qtot 0.429833
 1018         h1     35    ccc     H6   1018 0.08499200   1.008000   ; qtot 0.514825
 1019         n3     35    ccc     N1   1019 -0.29948700  14.010000   ; qtot 0.215338
 1020         c3     35    ccc     C4   1020 -0.01321200  12.010000   ; qtot 0.202126
 1021         h1     35    ccc     H7   1021 0.08172200   1.008000   ; qtot 0.283848
 1022         h1     35    ccc     H8   1022 0.08172200   1.008000   ; qtot 0.365570
 1023         c3     35    ccc     C5   1023 -0.22180000  12.010000   ; qtot 0.143770
 1024         hc     35    ccc     H9   1024 0.09671800   1.008000   ; qtot 0.240488
 1025         hc     35    ccc    H10   1025 0.09671800   1.008000   ; qtot 0.337206
 1026          c     35    ccc     C6   1026 0.526324  12.010000   ; qtot 1.333733
 1027          o     35    ccc     O1   1027 -0.39142825  16.000000   ; qtot 0.637227
 1028         oh     35    ccc     O2   1028 -0.56822625  16.000000   ; qtot -0.203584
 1029         ho     35    ccc    H11   1029 0.4186155   1.008000   ; qtot 0.322491
 1030         c3     35    ccc     C7   1030 -0.01321200  12.010000   ; qtot 0.309279
 1031         h1     35    ccc    H12   1031 0.08172200   1.008000   ; qtot 0.391001
 1032         h1     35    ccc    H13   1032 0.08172200   1.008000   ; qtot 0.472723
 1033         c3     35    ccc     C8   1033 -0.22180000  12.010000   ; qtot 0.250923
 1034         hc     35    ccc    H14   1034 0.09671800   1.008000   ; qtot 0.347641
 1035         hc     35    ccc    H15   1035 0.09671800   1.008000   ; qtot 0.444359
 1036          c     35    ccc     C9   1036 0.526324  12.010000   ; qtot 1.440886
 1037          o     35    ccc     O3   1037 -0.39142825  16.000000   ; qtot 0.744380
 1038         oh     35    ccc     O4   1038 -0.56822625  16.000000   ; qtot -0.096431
 1039         ho     35    ccc    H16   1039 0.4186155   1.008000   ; qtot 0.429644
 1040         os     35    ccc     O5   1040 -0.42966500  16.000000   ; qtot -0.000021
; residue   36 ccc rtp ccc q 0.0
 1041         c3     36    ccc     C1   1041 0.50749700  12.010000   ; qtot 0.507476
 1042         h1     36    ccc     H1   1042 -0.02808400   1.008000   ; qtot 0.479392
 1043         h1     36    ccc     H2   1043 -0.02808400   1.008000   ; qtot 0.451308
 1044         c3     36    ccc     C2   1044 -0.15486000  12.010000   ; qtot 0.296448
 1045         hc     36    ccc     H3   1045 0.10266400   1.008000   ; qtot 0.399112
 1046         hc     36    ccc     H4   1046 0.10266400   1.008000   ; qtot 0.501776
 1047         c3     36    ccc     C3   1047 -0.15693500  12.010000   ; qtot 0.344841
 1048         h1     36    ccc     H5   1048 0.08499200   1.008000   ; qtot 0.429833
 1049         h1     36    ccc     H6   1049 0.08499200   1.008000   ; qtot 0.514825
 1050         n3     36    ccc     N1   1050 -0.29948700  14.010000   ; qtot 0.215338
 1051         c3     36    ccc     C4   1051 -0.01321200  12.010000   ; qtot 0.202126
 1052         h1     36    ccc     H7   1052 0.08172200   1.008000   ; qtot 0.283848
 1053         h1     36    ccc     H8   1053 0.08172200   1.008000   ; qtot 0.365570
 1054         c3     36    ccc     C5   1054 -0.22180000  12.010000   ; qtot 0.143770
 1055         hc     36    ccc     H9   1055 0.09671800   1.008000   ; qtot 0.240488
 1056         hc     36    ccc    H10   1056 0.09671800   1.008000   ; qtot 0.337206
 1057          c     36    ccc     C6   1057 0.526324  12.010000   ; qtot 1.333733
 1058          o     36    ccc     O1   1058 -0.39142825  16.000000   ; qtot 0.637227
 1059         oh     36    ccc     O2   1059 -0.56822625  16.000000   ; qtot -0.203584
 1060         ho     36    ccc    H11   1060 0.4186155   1.008000   ; qtot 0.322491
 1061         c3     36    ccc     C7   1061 -0.01321200  12.010000   ; qtot 0.309279
 1062         h1     36    ccc    H12   1062 0.08172200   1.008000   ; qtot 0.391001
 1063         h1     36    ccc    H13   1063 0.08172200   1.008000   ; qtot 0.472723
 1064         c3     36    ccc     C8   1064 -0.22180000  12.010000   ; qtot 0.250923
 1065         hc     36    ccc    H14   1065 0.09671800   1.008000   ; qtot 0.347641
 1066         hc     36    ccc    H15   1066 0.09671800   1.008000   ; qtot 0.444359
 1067          c     36    ccc     C9   1067 0.526324  12.010000   ; qtot 1.440886
 1068          o     36    ccc     O3   1068 -0.39142825  16.000000   ; qtot 0.744380
 1069         oh     36    ccc     O4   1069 -0.56822625  16.000000   ; qtot -0.096431
 1070         ho     36    ccc    H16   1070 0.4186155   1.008000   ; qtot 0.429644
 1071         os     36    ccc     O5   1071 -0.42966500  16.000000   ; qtot -0.000021
; residue   37 ccc rtp ccc q 0.0
 1072         c3     37    ccc     C1   1072 0.50749700  12.010000   ; qtot 0.507476
 1073         h1     37    ccc     H1   1073 -0.02808400   1.008000   ; qtot 0.479392
 1074         h1     37    ccc     H2   1074 -0.02808400   1.008000   ; qtot 0.451308
 1075         c3     37    ccc     C2   1075 -0.15486000  12.010000   ; qtot 0.296448
 1076         hc     37    ccc     H3   1076 0.10266400   1.008000   ; qtot 0.399112
 1077         hc     37    ccc     H4   1077 0.10266400   1.008000   ; qtot 0.501776
 1078         c3     37    ccc     C3   1078 -0.15693500  12.010000   ; qtot 0.344841
 1079         h1     37    ccc     H5   1079 0.08499200   1.008000   ; qtot 0.429833
 1080         h1     37    ccc     H6   1080 0.08499200   1.008000   ; qtot 0.514825
 1081         n3     37    ccc     N1   1081 -0.29948700  14.010000   ; qtot 0.215338
 1082         c3     37    ccc     C4   1082 -0.01321200  12.010000   ; qtot 0.202126
 1083         h1     37    ccc     H7   1083 0.08172200   1.008000   ; qtot 0.283848
 1084         h1     37    ccc     H8   1084 0.08172200   1.008000   ; qtot 0.365570
 1085         c3     37    ccc     C5   1085 -0.22180000  12.010000   ; qtot 0.143770
 1086         hc     37    ccc     H9   1086 0.09671800   1.008000   ; qtot 0.240488
 1087         hc     37    ccc    H10   1087 0.09671800   1.008000   ; qtot 0.337206
 1088          c     37    ccc     C6   1088 0.526324  12.010000   ; qtot 1.333733
 1089          o     37    ccc     O1   1089 -0.39142825  16.000000   ; qtot 0.637227
 1090         oh     37    ccc     O2   1090 -0.56822625  16.000000   ; qtot -0.203584
 1091         ho     37    ccc    H11   1091 0.4186155   1.008000   ; qtot 0.322491
 1092         c3     37    ccc     C7   1092 -0.01321200  12.010000   ; qtot 0.309279
 1093         h1     37    ccc    H12   1093 0.08172200   1.008000   ; qtot 0.391001
 1094         h1     37    ccc    H13   1094 0.08172200   1.008000   ; qtot 0.472723
 1095         c3     37    ccc     C8   1095 -0.22180000  12.010000   ; qtot 0.250923
 1096         hc     37    ccc    H14   1096 0.09671800   1.008000   ; qtot 0.347641
 1097         hc     37    ccc    H15   1097 0.09671800   1.008000   ; qtot 0.444359
 1098          c     37    ccc     C9   1098 0.526324  12.010000   ; qtot 1.440886
 1099          o     37    ccc     O3   1099 -0.39142825  16.000000   ; qtot 0.744380
 1100         oh     37    ccc     O4   1100 -0.56822625  16.000000   ; qtot -0.096431
 1101         ho     37    ccc    H16   1101 0.4186155   1.008000   ; qtot 0.429644
 1102         os     37    ccc     O5   1102 -0.42966500  16.000000   ; qtot -0.000021
; residue   38 ccc rtp ccc q 0.0
 1103         c3     38    ccc     C1   1103 0.50749700  12.010000   ; qtot 0.507476
 1104         h1     38    ccc     H1   1104 -0.02808400   1.008000   ; qtot 0.479392
 1105         h1     38    ccc     H2   1105 -0.02808400   1.008000   ; qtot 0.451308
 1106         c3     38    ccc     C2   1106 -0.15486000  12.010000   ; qtot 0.296448
 1107         hc     38    ccc     H3   1107 0.10266400   1.008000   ; qtot 0.399112
 1108         hc     38    ccc     H4   1108 0.10266400   1.008000   ; qtot 0.501776
 1109         c3     38    ccc     C3   1109 -0.15693500  12.010000   ; qtot 0.344841
 1110         h1     38    ccc     H5   1110 0.08499200   1.008000   ; qtot 0.429833
 1111         h1     38    ccc     H6   1111 0.08499200   1.008000   ; qtot 0.514825
 1112         n3     38    ccc     N1   1112 -0.29948700  14.010000   ; qtot 0.215338
 1113         c3     38    ccc     C4   1113 -0.01321200  12.010000   ; qtot 0.202126
 1114         h1     38    ccc     H7   1114 0.08172200   1.008000   ; qtot 0.283848
 1115         h1     38    ccc     H8   1115 0.08172200   1.008000   ; qtot 0.365570
 1116         c3     38    ccc     C5   1116 -0.22180000  12.010000   ; qtot 0.143770
 1117         hc     38    ccc     H9   1117 0.09671800   1.008000   ; qtot 0.240488
 1118         hc     38    ccc    H10   1118 0.09671800   1.008000   ; qtot 0.337206
 1119          c     38    ccc     C6   1119 0.526324  12.010000   ; qtot 1.333733
 1120          o     38    ccc     O1   1120 -0.39142825  16.000000   ; qtot 0.637227
 1121         oh     38    ccc     O2   1121 -0.56822625  16.000000   ; qtot -0.203584
 1122         ho     38    ccc    H11   1122 0.4186155   1.008000   ; qtot 0.322491
 1123         c3     38    ccc     C7   1123 -0.01321200  12.010000   ; qtot 0.309279
 1124         h1     38    ccc    H12   1124 0.08172200   1.008000   ; qtot 0.391001
 1125         h1     38    ccc    H13   1125 0.08172200   1.008000   ; qtot 0.472723
 1126         c3     38    ccc     C8   1126 -0.22180000  12.010000   ; qtot 0.250923
 1127         hc     38    ccc    H14   1127 0.09671800   1.008000   ; qtot 0.347641
 1128         hc     38    ccc    H15   1128 0.09671800   1.008000   ; qtot 0.444359
 1129          c     38    ccc     C9   1129 0.526324  12.010000   ; qtot 1.440886
 1130          o     38    ccc     O3   1130 -0.39142825  16.000000   ; qtot 0.744380
 1131         oh     38    ccc     O4   1131 -0.56822625  16.000000   ; qtot -0.096431
 1132         ho     38    ccc    H16   1132 0.4186155   1.008000   ; qtot 0.429644
 1133         os     38    ccc     O5   1133 -0.42966500  16.000000   ; qtot -0.000021
; residue   39 ccc rtp ccc q 0.0
 1134         c3     39    ccc     C1   1134 0.50749700  12.010000   ; qtot 0.507476
 1135         h1     39    ccc     H1   1135 -0.02808400   1.008000   ; qtot 0.479392
 1136         h1     39    ccc     H2   1136 -0.02808400   1.008000   ; qtot 0.451308
 1137         c3     39    ccc     C2   1137 -0.15486000  12.010000   ; qtot 0.296448
 1138         hc     39    ccc     H3   1138 0.10266400   1.008000   ; qtot 0.399112
 1139         hc     39    ccc     H4   1139 0.10266400   1.008000   ; qtot 0.501776
 1140         c3     39    ccc     C3   1140 -0.15693500  12.010000   ; qtot 0.344841
 1141         h1     39    ccc     H5   1141 0.08499200   1.008000   ; qtot 0.429833
 1142         h1     39    ccc     H6   1142 0.08499200   1.008000   ; qtot 0.514825
 1143         n3     39    ccc     N1   1143 -0.29948700  14.010000   ; qtot 0.215338
 1144         c3     39    ccc     C4   1144 -0.01321200  12.010000   ; qtot 0.202126
 1145         h1     39    ccc     H7   1145 0.08172200   1.008000   ; qtot 0.283848
 1146         h1     39    ccc     H8   1146 0.08172200   1.008000   ; qtot 0.365570
 1147         c3     39    ccc     C5   1147 -0.22180000  12.010000   ; qtot 0.143770
 1148         hc     39    ccc     H9   1148 0.09671800   1.008000   ; qtot 0.240488
 1149         hc     39    ccc    H10   1149 0.09671800   1.008000   ; qtot 0.337206
 1150          c     39    ccc     C6   1150 0.526324  12.010000   ; qtot 1.333733
 1151          o     39    ccc     O1   1151 -0.39142825  16.000000   ; qtot 0.637227
 1152         oh     39    ccc     O2   1152 -0.56822625  16.000000   ; qtot -0.203584
 1153         ho     39    ccc    H11   1153 0.4186155   1.008000   ; qtot 0.322491
 1154         c3     39    ccc     C7   1154 -0.01321200  12.010000   ; qtot 0.309279
 1155         h1     39    ccc    H12   1155 0.08172200   1.008000   ; qtot 0.391001
 1156         h1     39    ccc    H13   1156 0.08172200   1.008000   ; qtot 0.472723
 1157         c3     39    ccc     C8   1157 -0.22180000  12.010000   ; qtot 0.250923
 1158         hc     39    ccc    H14   1158 0.09671800   1.008000   ; qtot 0.347641
 1159         hc     39    ccc    H15   1159 0.09671800   1.008000   ; qtot 0.444359
 1160          c     39    ccc     C9   1160 0.526324  12.010000   ; qtot 1.440886
 1161          o     39    ccc     O3   1161 -0.39142825  16.000000   ; qtot 0.744380
 1162         oh     39    ccc     O4   1162 -0.56822625  16.000000   ; qtot -0.096431
 1163         ho     39    ccc    H16   1163 0.4186155   1.008000   ; qtot 0.429644
 1164         os     39    ccc     O5   1164 -0.42966500  16.000000   ; qtot -0.000021
; residue   40 ccc rtp ccc q 0.0
 1165         c3     40    ccc     C1   1165 0.50749700  12.010000   ; qtot 0.507476
 1166         h1     40    ccc     H1   1166 -0.02808400   1.008000   ; qtot 0.479392
 1167         h1     40    ccc     H2   1167 -0.02808400   1.008000   ; qtot 0.451308
 1168         c3     40    ccc     C2   1168 -0.15486000  12.010000   ; qtot 0.296448
 1169         hc     40    ccc     H3   1169 0.10266400   1.008000   ; qtot 0.399112
 1170         hc     40    ccc     H4   1170 0.10266400   1.008000   ; qtot 0.501776
 1171         c3     40    ccc     C3   1171 -0.15693500  12.010000   ; qtot 0.344841
 1172         h1     40    ccc     H5   1172 0.08499200   1.008000   ; qtot 0.429833
 1173         h1     40    ccc     H6   1173 0.08499200   1.008000   ; qtot 0.514825
 1174         n3     40    ccc     N1   1174 -0.29948700  14.010000   ; qtot 0.215338
 1175         c3     40    ccc     C4   1175 -0.01321200  12.010000   ; qtot 0.202126
 1176         h1     40    ccc     H7   1176 0.08172200   1.008000   ; qtot 0.283848
 1177         h1     40    ccc     H8   1177 0.08172200   1.008000   ; qtot 0.365570
 1178         c3     40    ccc     C5   1178 -0.22180000  12.010000   ; qtot 0.143770
 1179         hc     40    ccc     H9   1179 0.09671800   1.008000   ; qtot 0.240488
 1180         hc     40    ccc    H10   1180 0.09671800   1.008000   ; qtot 0.337206
 1181          c     40    ccc     C6   1181 0.526324  12.010000   ; qtot 1.333733
 1182          o     40    ccc     O1   1182 -0.39142825  16.000000   ; qtot 0.637227
 1183         oh     40    ccc     O2   1183 -0.56822625  16.000000   ; qtot -0.203584
 1184         ho     40    ccc    H11   1184 0.4186155   1.008000   ; qtot 0.322491
 1185         c3     40    ccc     C7   1185 -0.01321200  12.010000   ; qtot 0.309279
 1186         h1     40    ccc    H12   1186 0.08172200   1.008000   ; qtot 0.391001
 1187         h1     40    ccc    H13   1187 0.08172200   1.008000   ; qtot 0.472723
 1188         c3     40    ccc     C8   1188 -0.22180000  12.010000   ; qtot 0.250923
 1189         hc     40    ccc    H14   1189 0.09671800   1.008000   ; qtot 0.347641
 1190         hc     40    ccc    H15   1190 0.09671800   1.008000   ; qtot 0.444359
 1191          c     40    ccc     C9   1191 0.526324  12.010000   ; qtot 1.440886
 1192          o     40    ccc     O3   1192 -0.39142825  16.000000   ; qtot 0.744380
 1193         oh     40    ccc     O4   1193 -0.56822625  16.000000   ; qtot -0.096431
 1194         ho     40    ccc    H16   1194 0.4186155   1.008000   ; qtot 0.429644
 1195         os     40    ccc     O5   1195 -0.42966500  16.000000   ; qtot -0.000021
; residue   41 ccc rtp ccc q 0.0
 1196         c3     41    ccc     C1   1196 0.50749700  12.010000   ; qtot 0.507476
 1197         h1     41    ccc     H1   1197 -0.02808400   1.008000   ; qtot 0.479392
 1198         h1     41    ccc     H2   1198 -0.02808400   1.008000   ; qtot 0.451308
 1199         c3     41    ccc     C2   1199 -0.15486000  12.010000   ; qtot 0.296448
 1200         hc     41    ccc     H3   1200 0.10266400   1.008000   ; qtot 0.399112
 1201         hc     41    ccc     H4   1201 0.10266400   1.008000   ; qtot 0.501776
 1202         c3     41    ccc     C3   1202 -0.15693500  12.010000   ; qtot 0.344841
 1203         h1     41    ccc     H5   1203 0.08499200   1.008000   ; qtot 0.429833
 1204         h1     41    ccc     H6   1204 0.08499200   1.008000   ; qtot 0.514825
 1205         n3     41    ccc     N1   1205 -0.29948700  14.010000   ; qtot 0.215338
 1206         c3     41    ccc     C4   1206 -0.01321200  12.010000   ; qtot 0.202126
 1207         h1     41    ccc     H7   1207 0.08172200   1.008000   ; qtot 0.283848
 1208         h1     41    ccc     H8   1208 0.08172200   1.008000   ; qtot 0.365570
 1209         c3     41    ccc     C5   1209 -0.22180000  12.010000   ; qtot 0.143770
 1210         hc     41    ccc     H9   1210 0.09671800   1.008000   ; qtot 0.240488
 1211         hc     41    ccc    H10   1211 0.09671800   1.008000   ; qtot 0.337206
 1212          c     41    ccc     C6   1212 0.526324  12.010000   ; qtot 1.333733
 1213          o     41    ccc     O1   1213 -0.39142825  16.000000   ; qtot 0.637227
 1214         oh     41    ccc     O2   1214 -0.56822625  16.000000   ; qtot -0.203584
 1215         ho     41    ccc    H11   1215 0.4186155   1.008000   ; qtot 0.322491
 1216         c3     41    ccc     C7   1216 -0.01321200  12.010000   ; qtot 0.309279
 1217         h1     41    ccc    H12   1217 0.08172200   1.008000   ; qtot 0.391001
 1218         h1     41    ccc    H13   1218 0.08172200   1.008000   ; qtot 0.472723
 1219         c3     41    ccc     C8   1219 -0.22180000  12.010000   ; qtot 0.250923
 1220         hc     41    ccc    H14   1220 0.09671800   1.008000   ; qtot 0.347641
 1221         hc     41    ccc    H15   1221 0.09671800   1.008000   ; qtot 0.444359
 1222          c     41    ccc     C9   1222 0.526324  12.010000   ; qtot 1.440886
 1223          o     41    ccc     O3   1223 -0.39142825  16.000000   ; qtot 0.744380
 1224         oh     41    ccc     O4   1224 -0.56822625  16.000000   ; qtot -0.096431
 1225         ho     41    ccc    H16   1225 0.4186155   1.008000   ; qtot 0.429644
 1226         os     41    ccc     O5   1226 -0.42966500  16.000000   ; qtot -0.000021
; residue   42 ccc rtp ccc q 0.0
 1227         c3     42    ccc     C1   1227 0.50749700  12.010000   ; qtot 0.507476
 1228         h1     42    ccc     H1   1228 -0.02808400   1.008000   ; qtot 0.479392
 1229         h1     42    ccc     H2   1229 -0.02808400   1.008000   ; qtot 0.451308
 1230         c3     42    ccc     C2   1230 -0.15486000  12.010000   ; qtot 0.296448
 1231         hc     42    ccc     H3   1231 0.10266400   1.008000   ; qtot 0.399112
 1232         hc     42    ccc     H4   1232 0.10266400   1.008000   ; qtot 0.501776
 1233         c3     42    ccc     C3   1233 -0.15693500  12.010000   ; qtot 0.344841
 1234         h1     42    ccc     H5   1234 0.08499200   1.008000   ; qtot 0.429833
 1235         h1     42    ccc     H6   1235 0.08499200   1.008000   ; qtot 0.514825
 1236         n3     42    ccc     N1   1236 -0.29948700  14.010000   ; qtot 0.215338
 1237         c3     42    ccc     C4   1237 -0.01321200  12.010000   ; qtot 0.202126
 1238         h1     42    ccc     H7   1238 0.08172200   1.008000   ; qtot 0.283848
 1239         h1     42    ccc     H8   1239 0.08172200   1.008000   ; qtot 0.365570
 1240         c3     42    ccc     C5   1240 -0.22180000  12.010000   ; qtot 0.143770
 1241         hc     42    ccc     H9   1241 0.09671800   1.008000   ; qtot 0.240488
 1242         hc     42    ccc    H10   1242 0.09671800   1.008000   ; qtot 0.337206
 1243          c     42    ccc     C6   1243 0.526324  12.010000   ; qtot 1.333733
 1244          o     42    ccc     O1   1244 -0.39142825  16.000000   ; qtot 0.637227
 1245         oh     42    ccc     O2   1245 -0.56822625  16.000000   ; qtot -0.203584
 1246         ho     42    ccc    H11   1246 0.4186155   1.008000   ; qtot 0.322491
 1247         c3     42    ccc     C7   1247 -0.01321200  12.010000   ; qtot 0.309279
 1248         h1     42    ccc    H12   1248 0.08172200   1.008000   ; qtot 0.391001
 1249         h1     42    ccc    H13   1249 0.08172200   1.008000   ; qtot 0.472723
 1250         c3     42    ccc     C8   1250 -0.22180000  12.010000   ; qtot 0.250923
 1251         hc     42    ccc    H14   1251 0.09671800   1.008000   ; qtot 0.347641
 1252         hc     42    ccc    H15   1252 0.09671800   1.008000   ; qtot 0.444359
 1253          c     42    ccc     C9   1253 0.526324  12.010000   ; qtot 1.440886
 1254          o     42    ccc     O3   1254 -0.39142825  16.000000   ; qtot 0.744380
 1255         oh     42    ccc     O4   1255 -0.56822625  16.000000   ; qtot -0.096431
 1256         ho     42    ccc    H16   1256 0.4186155   1.008000   ; qtot 0.429644
 1257         os     42    ccc     O5   1257 -0.42966500  16.000000   ; qtot -0.000021
; residue   43 ccc rtp ccc q 0.0
 1258         c3     43    ccc     C1   1258 0.50749700  12.010000   ; qtot 0.507476
 1259         h1     43    ccc     H1   1259 -0.02808400   1.008000   ; qtot 0.479392
 1260         h1     43    ccc     H2   1260 -0.02808400   1.008000   ; qtot 0.451308
 1261         c3     43    ccc     C2   1261 -0.15486000  12.010000   ; qtot 0.296448
 1262         hc     43    ccc     H3   1262 0.10266400   1.008000   ; qtot 0.399112
 1263         hc     43    ccc     H4   1263 0.10266400   1.008000   ; qtot 0.501776
 1264         c3     43    ccc     C3   1264 -0.15693500  12.010000   ; qtot 0.344841
 1265         h1     43    ccc     H5   1265 0.08499200   1.008000   ; qtot 0.429833
 1266         h1     43    ccc     H6   1266 0.08499200   1.008000   ; qtot 0.514825
 1267         n3     43    ccc     N1   1267 -0.29948700  14.010000   ; qtot 0.215338
 1268         c3     43    ccc     C4   1268 -0.01321200  12.010000   ; qtot 0.202126
 1269         h1     43    ccc     H7   1269 0.08172200   1.008000   ; qtot 0.283848
 1270         h1     43    ccc     H8   1270 0.08172200   1.008000   ; qtot 0.365570
 1271         c3     43    ccc     C5   1271 -0.22180000  12.010000   ; qtot 0.143770
 1272         hc     43    ccc     H9   1272 0.09671800   1.008000   ; qtot 0.240488
 1273         hc     43    ccc    H10   1273 0.09671800   1.008000   ; qtot 0.337206
 1274          c     43    ccc     C6   1274 0.526324  12.010000   ; qtot 1.333733
 1275          o     43    ccc     O1   1275 -0.39142825  16.000000   ; qtot 0.637227
 1276         oh     43    ccc     O2   1276 -0.56822625  16.000000   ; qtot -0.203584
 1277         ho     43    ccc    H11   1277 0.4186155   1.008000   ; qtot 0.322491
 1278         c3     43    ccc     C7   1278 -0.01321200  12.010000   ; qtot 0.309279
 1279         h1     43    ccc    H12   1279 0.08172200   1.008000   ; qtot 0.391001
 1280         h1     43    ccc    H13   1280 0.08172200   1.008000   ; qtot 0.472723
 1281         c3     43    ccc     C8   1281 -0.22180000  12.010000   ; qtot 0.250923
 1282         hc     43    ccc    H14   1282 0.09671800   1.008000   ; qtot 0.347641
 1283         hc     43    ccc    H15   1283 0.09671800   1.008000   ; qtot 0.444359
 1284          c     43    ccc     C9   1284 0.526324  12.010000   ; qtot 1.440886
 1285          o     43    ccc     O3   1285 -0.39142825  16.000000   ; qtot 0.744380
 1286         oh     43    ccc     O4   1286 -0.56822625  16.000000   ; qtot -0.096431
 1287         ho     43    ccc    H16   1287 0.4186155   1.008000   ; qtot 0.429644
 1288         os     43    ccc     O5   1288 -0.42966500  16.000000   ; qtot -0.000021
; residue   44 ccc rtp ccc q 0.0
 1289         c3     44    ccc     C1   1289 0.50749700  12.010000   ; qtot 0.507476
 1290         h1     44    ccc     H1   1290 -0.02808400   1.008000   ; qtot 0.479392
 1291         h1     44    ccc     H2   1291 -0.02808400   1.008000   ; qtot 0.451308
 1292         c3     44    ccc     C2   1292 -0.15486000  12.010000   ; qtot 0.296448
 1293         hc     44    ccc     H3   1293 0.10266400   1.008000   ; qtot 0.399112
 1294         hc     44    ccc     H4   1294 0.10266400   1.008000   ; qtot 0.501776
 1295         c3     44    ccc     C3   1295 -0.15693500  12.010000   ; qtot 0.344841
 1296         h1     44    ccc     H5   1296 0.08499200   1.008000   ; qtot 0.429833
 1297         h1     44    ccc     H6   1297 0.08499200   1.008000   ; qtot 0.514825
 1298         n3     44    ccc     N1   1298 -0.29948700  14.010000   ; qtot 0.215338
 1299         c3     44    ccc     C4   1299 -0.01321200  12.010000   ; qtot 0.202126
 1300         h1     44    ccc     H7   1300 0.08172200   1.008000   ; qtot 0.283848
 1301         h1     44    ccc     H8   1301 0.08172200   1.008000   ; qtot 0.365570
 1302         c3     44    ccc     C5   1302 -0.22180000  12.010000   ; qtot 0.143770
 1303         hc     44    ccc     H9   1303 0.09671800   1.008000   ; qtot 0.240488
 1304         hc     44    ccc    H10   1304 0.09671800   1.008000   ; qtot 0.337206
 1305          c     44    ccc     C6   1305 0.526324  12.010000   ; qtot 1.333733
 1306          o     44    ccc     O1   1306 -0.39142825  16.000000   ; qtot 0.637227
 1307         oh     44    ccc     O2   1307 -0.56822625  16.000000   ; qtot -0.203584
 1308         ho     44    ccc    H11   1308 0.4186155   1.008000   ; qtot 0.322491
 1309         c3     44    ccc     C7   1309 -0.01321200  12.010000   ; qtot 0.309279
 1310         h1     44    ccc    H12   1310 0.08172200   1.008000   ; qtot 0.391001
 1311         h1     44    ccc    H13   1311 0.08172200   1.008000   ; qtot 0.472723
 1312         c3     44    ccc     C8   1312 -0.22180000  12.010000   ; qtot 0.250923
 1313         hc     44    ccc    H14   1313 0.09671800   1.008000   ; qtot 0.347641
 1314         hc     44    ccc    H15   1314 0.09671800   1.008000   ; qtot 0.444359
 1315          c     44    ccc     C9   1315 0.526324  12.010000   ; qtot 1.440886
 1316          o     44    ccc     O3   1316 -0.39142825  16.000000   ; qtot 0.744380
 1317         oh     44    ccc     O4   1317 -0.56822625  16.000000   ; qtot -0.096431
 1318         ho     44    ccc    H16   1318 0.4186155   1.008000   ; qtot 0.429644
 1319         os     44    ccc     O5   1319 -0.42966500  16.000000   ; qtot -0.000021
; residue   45 ccc rtp ccc q 0.0
 1320         c3     45    ccc     C1   1320 0.50749700  12.010000   ; qtot 0.507476
 1321         h1     45    ccc     H1   1321 -0.02808400   1.008000   ; qtot 0.479392
 1322         h1     45    ccc     H2   1322 -0.02808400   1.008000   ; qtot 0.451308
 1323         c3     45    ccc     C2   1323 -0.15486000  12.010000   ; qtot 0.296448
 1324         hc     45    ccc     H3   1324 0.10266400   1.008000   ; qtot 0.399112
 1325         hc     45    ccc     H4   1325 0.10266400   1.008000   ; qtot 0.501776
 1326         c3     45    ccc     C3   1326 -0.15693500  12.010000   ; qtot 0.344841
 1327         h1     45    ccc     H5   1327 0.08499200   1.008000   ; qtot 0.429833
 1328         h1     45    ccc     H6   1328 0.08499200   1.008000   ; qtot 0.514825
 1329         n3     45    ccc     N1   1329 -0.29948700  14.010000   ; qtot 0.215338
 1330         c3     45    ccc     C4   1330 -0.01321200  12.010000   ; qtot 0.202126
 1331         h1     45    ccc     H7   1331 0.08172200   1.008000   ; qtot 0.283848
 1332         h1     45    ccc     H8   1332 0.08172200   1.008000   ; qtot 0.365570
 1333         c3     45    ccc     C5   1333 -0.22180000  12.010000   ; qtot 0.143770
 1334         hc     45    ccc     H9   1334 0.09671800   1.008000   ; qtot 0.240488
 1335         hc     45    ccc    H10   1335 0.09671800   1.008000   ; qtot 0.337206
 1336          c     45    ccc     C6   1336 0.526324  12.010000   ; qtot 1.333733
 1337          o     45    ccc     O1   1337 -0.39142825  16.000000   ; qtot 0.637227
 1338         oh     45    ccc     O2   1338 -0.56822625  16.000000   ; qtot -0.203584
 1339         ho     45    ccc    H11   1339 0.4186155   1.008000   ; qtot 0.322491
 1340         c3     45    ccc     C7   1340 -0.01321200  12.010000   ; qtot 0.309279
 1341         h1     45    ccc    H12   1341 0.08172200   1.008000   ; qtot 0.391001
 1342         h1     45    ccc    H13   1342 0.08172200   1.008000   ; qtot 0.472723
 1343         c3     45    ccc     C8   1343 -0.22180000  12.010000   ; qtot 0.250923
 1344         hc     45    ccc    H14   1344 0.09671800   1.008000   ; qtot 0.347641
 1345         hc     45    ccc    H15   1345 0.09671800   1.008000   ; qtot 0.444359
 1346          c     45    ccc     C9   1346 0.526324  12.010000   ; qtot 1.440886
 1347          o     45    ccc     O3   1347 -0.39142825  16.000000   ; qtot 0.744380
 1348         oh     45    ccc     O4   1348 -0.56822625  16.000000   ; qtot -0.096431
 1349         ho     45    ccc    H16   1349 0.4186155   1.008000   ; qtot 0.429644
 1350         os     45    ccc     O5   1350 -0.42966500  16.000000   ; qtot -0.000021
; residue   46 ccc rtp ccc q 0.0
 1351         c3     46    ccc     C1   1351 0.50749700  12.010000   ; qtot 0.507476
 1352         h1     46    ccc     H1   1352 -0.02808400   1.008000   ; qtot 0.479392
 1353         h1     46    ccc     H2   1353 -0.02808400   1.008000   ; qtot 0.451308
 1354         c3     46    ccc     C2   1354 -0.15486000  12.010000   ; qtot 0.296448
 1355         hc     46    ccc     H3   1355 0.10266400   1.008000   ; qtot 0.399112
 1356         hc     46    ccc     H4   1356 0.10266400   1.008000   ; qtot 0.501776
 1357         c3     46    ccc     C3   1357 -0.15693500  12.010000   ; qtot 0.344841
 1358         h1     46    ccc     H5   1358 0.08499200   1.008000   ; qtot 0.429833
 1359         h1     46    ccc     H6   1359 0.08499200   1.008000   ; qtot 0.514825
 1360         n3     46    ccc     N1   1360 -0.29948700  14.010000   ; qtot 0.215338
 1361         c3     46    ccc     C4   1361 -0.01321200  12.010000   ; qtot 0.202126
 1362         h1     46    ccc     H7   1362 0.08172200   1.008000   ; qtot 0.283848
 1363         h1     46    ccc     H8   1363 0.08172200   1.008000   ; qtot 0.365570
 1364         c3     46    ccc     C5   1364 -0.22180000  12.010000   ; qtot 0.143770
 1365         hc     46    ccc     H9   1365 0.09671800   1.008000   ; qtot 0.240488
 1366         hc     46    ccc    H10   1366 0.09671800   1.008000   ; qtot 0.337206
 1367          c     46    ccc     C6   1367 0.526324  12.010000   ; qtot 1.333733
 1368          o     46    ccc     O1   1368 -0.39142825  16.000000   ; qtot 0.637227
 1369         oh     46    ccc     O2   1369 -0.56822625  16.000000   ; qtot -0.203584
 1370         ho     46    ccc    H11   1370 0.4186155   1.008000   ; qtot 0.322491
 1371         c3     46    ccc     C7   1371 -0.01321200  12.010000   ; qtot 0.309279
 1372         h1     46    ccc    H12   1372 0.08172200   1.008000   ; qtot 0.391001
 1373         h1     46    ccc    H13   1373 0.08172200   1.008000   ; qtot 0.472723
 1374         c3     46    ccc     C8   1374 -0.22180000  12.010000   ; qtot 0.250923
 1375         hc     46    ccc    H14   1375 0.09671800   1.008000   ; qtot 0.347641
 1376         hc     46    ccc    H15   1376 0.09671800   1.008000   ; qtot 0.444359
 1377          c     46    ccc     C9   1377 0.526324  12.010000   ; qtot 1.440886
 1378          o     46    ccc     O3   1378 -0.39142825  16.000000   ; qtot 0.744380
 1379         oh     46    ccc     O4   1379 -0.56822625  16.000000   ; qtot -0.096431
 1380         ho     46    ccc    H16   1380 0.4186155   1.008000   ; qtot 0.429644
 1381         os     46    ccc     O5   1381 -0.42966500  16.000000   ; qtot -0.000021

[ bonds ]
;    ai     aj funct         c0         c1         c2         c3
      1      2     1   0.14647 272713.120000
      1      5     1   0.14647 272713.120000
      1      8     1   0.14647 272713.120000
      2     14     1   0.15375 251793.120000
      5     17     1   0.15375 251793.120000
      8     11     1   0.15375 251793.120000
     11     23     1   0.15375 251793.120000
     14     26     1   0.15375 251793.120000
     17     20     1   0.15375 251793.120000
     20     57     1   0.14316 258236.480000
     23     86     1   0.14316 258236.480000
     26    115     1   0.14316 258236.480000
     29     30     1   0.14647 272713.120000
     29     33     1   0.14647 272713.120000
     29     36     1   0.14647 272713.120000
     30     42     1   0.15375 251793.120000
     33     45     1   0.15375 251793.120000
     36     39     1   0.15375 251793.120000
     39     48     1   0.15375 251793.120000
     42     54     1   0.15375 251793.120000
     45     51     1   0.15375 251793.120000
     48     57     1   0.14316 258236.480000
     51    144     1   0.14316 258236.480000
     54    173     1   0.14316 258236.480000
     58     59     1   0.14647 272713.120000
     58     62     1   0.14647 272713.120000
     58     65     1   0.14647 272713.120000
     59     71     1   0.15375 251793.120000
     62     74     1   0.15375 251793.120000
     65     68     1   0.15375 251793.120000
     68     77     1   0.15375 251793.120000
     71     83     1   0.15375 251793.120000
     74     80     1   0.15375 251793.120000
     77     86     1   0.14316 258236.480000
     80    202     1   0.14316 258236.480000
     83    231     1   0.14316 258236.480000
     87     88     1   0.14647 272713.120000
     87     91     1   0.14647 272713.120000
     87     94     1   0.14647 272713.120000
     88    100     1   0.15375 251793.120000
     91    103     1   0.15375 251793.120000
     94     97     1   0.15375 251793.120000
     97    106     1   0.15375 251793.120000
    100    112     1   0.15375 251793.120000
    103    109     1   0.15375 251793.120000
    106    115     1   0.14316 258236.480000
    109    260     1   0.14316 258236.480000
    112    289     1   0.14316 258236.480000
    116    117     1   0.14647 272713.120000
    116    120     1   0.14647 272713.120000
    116    123     1   0.14647 272713.120000
    117    129     1   0.15375 251793.120000
    120    132     1   0.15375 251793.120000
    123    126     1   0.15375 251793.120000
    126    135     1   0.15375 251793.120000
    129    141     1   0.15375 251793.120000
    132    138     1   0.15375 251793.120000
    135    144     1   0.14316 258236.480000
    138    318     1   0.14316 258236.480000
    141    347     1   0.14316 258236.480000
    145    146     1   0.14647 272713.120000
    145    149     1   0.14647 272713.120000
    145    152     1   0.14647 272713.120000
    146    158     1   0.15375 251793.120000
    149    161     1   0.15375 251793.120000
    152    155     1   0.15375 251793.120000
    155    164     1   0.15375 251793.120000
    158    170     1   0.15375 251793.120000
    161    167     1   0.15375 251793.120000
    164    173     1   0.14316 258236.480000
    167    376     1   0.14316 258236.480000
    170    405     1   0.14316 258236.480000
    174    175     1   0.14647 272713.120000
    174    178     1   0.14647 272713.120000
    174    181     1   0.14647 272713.120000
    175    187     1   0.15375 251793.120000
    178    190     1   0.15375 251793.120000
    181    184     1   0.15375 251793.120000
    184    193     1   0.15375 251793.120000
    187    199     1   0.15375 251793.120000
    190    196     1   0.15375 251793.120000
    193    202     1   0.14316 258236.480000
    196    434     1   0.14316 258236.480000
    199    463     1   0.14316 258236.480000
    203    204     1   0.14647 272713.120000
    203    207     1   0.14647 272713.120000
    203    210     1   0.14647 272713.120000
    204    216     1   0.15375 251793.120000
    207    219     1   0.15375 251793.120000
    210    213     1   0.15375 251793.120000
    213    222     1   0.15375 251793.120000
    216    228     1   0.15375 251793.120000
    219    225     1   0.15375 251793.120000
    222    231     1   0.14316 258236.480000
    225    492     1   0.14316 258236.480000
    228    521     1   0.14316 258236.480000
    232    233     1   0.14647 272713.120000
    232    236     1   0.14647 272713.120000
    232    239     1   0.14647 272713.120000
    233    245     1   0.15375 251793.120000
    236    248     1   0.15375 251793.120000
    239    242     1   0.15375 251793.120000
    242    251     1   0.15375 251793.120000
    245    257     1   0.15375 251793.120000
    248    254     1   0.15375 251793.120000
    251    260     1   0.14316 258236.480000
    254    550     1   0.14316 258236.480000
    257    579     1   0.14316 258236.480000
    261    262     1   0.14647 272713.120000
    261    265     1   0.14647 272713.120000
    261    268     1   0.14647 272713.120000
    262    274     1   0.15375 251793.120000
    265    277     1   0.15375 251793.120000
    268    271     1   0.15375 251793.120000
    271    280     1   0.15375 251793.120000
    274    286     1   0.15375 251793.120000
    277    283     1   0.15375 251793.120000
    280    289     1   0.14316 258236.480000
    283    608     1   0.14316 258236.480000
    286    637     1   0.14316 258236.480000
    290    291     1   0.14647 272713.120000
    290    294     1   0.14647 272713.120000
    290    297     1   0.14647 272713.120000
    291    303     1   0.15375 251793.120000
    294    306     1   0.15375 251793.120000
    297    300     1   0.15375 251793.120000
    300    309     1   0.15375 251793.120000
    303    315     1   0.15375 251793.120000
    306    312     1   0.15375 251793.120000
    309    318     1   0.14316 258236.480000
    312    668     1   0.14316 258236.480000
    315    699     1   0.14316 258236.480000
    319    320     1   0.14647 272713.120000
    319    323     1   0.14647 272713.120000
    319    326     1   0.14647 272713.120000
    320    332     1   0.15375 251793.120000
    323    335     1   0.15375 251793.120000
    326    329     1   0.15375 251793.120000
    329    338     1   0.15375 251793.120000
    332    344     1   0.15375 251793.120000
    335    341     1   0.15375 251793.120000
    338    347     1   0.14316 258236.480000
    341    730     1   0.14316 258236.480000
    344    761     1   0.14316 258236.480000
    348    349     1   0.14647 272713.120000
    348    352     1   0.14647 272713.120000
    348    355     1   0.14647 272713.120000
    349    361     1   0.15375 251793.120000
    352    364     1   0.15375 251793.120000
    355    358     1   0.15375 251793.120000
    358    367     1   0.15375 251793.120000
    361    373     1   0.15375 251793.120000
    364    370     1   0.15375 251793.120000
    367    376     1   0.14316 258236.480000
    370    792     1   0.14316 258236.480000
    373    823     1   0.14316 258236.480000
    377    378     1   0.14647 272713.120000
    377    381     1   0.14647 272713.120000
    377    384     1   0.14647 272713.120000
    378    390     1   0.15375 251793.120000
    381    393     1   0.15375 251793.120000
    384    387     1   0.15375 251793.120000
    387    396     1   0.15375 251793.120000
    390    402     1   0.15375 251793.120000
    393    399     1   0.15375 251793.120000
    396    405     1   0.14316 258236.480000
    399    854     1   0.14316 258236.480000
    402    885     1   0.14316 258236.480000
    406    407     1   0.14647 272713.120000
    406    410     1   0.14647 272713.120000
    406    413     1   0.14647 272713.120000
    407    419     1   0.15375 251793.120000
    410    422     1   0.15375 251793.120000
    413    416     1   0.15375 251793.120000
    416    425     1   0.15375 251793.120000
    419    431     1   0.15375 251793.120000
    422    428     1   0.15375 251793.120000
    425    434     1   0.14316 258236.480000
    428    916     1   0.14316 258236.480000
    431    947     1   0.14316 258236.480000
    435    436     1   0.14647 272713.120000
    435    439     1   0.14647 272713.120000
    435    442     1   0.14647 272713.120000
    436    448     1   0.15375 251793.120000
    439    451     1   0.15375 251793.120000
    442    445     1   0.15375 251793.120000
    445    454     1   0.15375 251793.120000
    448    460     1   0.15375 251793.120000
    451    457     1   0.15375 251793.120000
    454    463     1   0.14316 258236.480000
    457    978     1   0.14316 258236.480000
    460   1009     1   0.14316 258236.480000
    464    465     1   0.14647 272713.120000
    464    468     1   0.14647 272713.120000
    464    471     1   0.14647 272713.120000
    465    477     1   0.15375 251793.120000
    468    480     1   0.15375 251793.120000
    471    474     1   0.15375 251793.120000
    474    483     1   0.15375 251793.120000
    477    489     1   0.15375 251793.120000
    480    486     1   0.15375 251793.120000
    483    492     1   0.14316 258236.480000
    486   1040     1   0.14316 258236.480000
    489   1071     1   0.14316 258236.480000
    493    494     1   0.14647 272713.120000
    493    497     1   0.14647 272713.120000
    493    500     1   0.14647 272713.120000
    494    506     1   0.15375 251793.120000
    497    509     1   0.15375 251793.120000
    500    503     1   0.15375 251793.120000
    503    512     1   0.15375 251793.120000
    506    518     1   0.15375 251793.120000
    509    515     1   0.15375 251793.120000
    512    521     1   0.14316 258236.480000
    515   1102     1   0.14316 258236.480000
    518   1133     1   0.14316 258236.480000
    522    523     1   0.14647 272713.120000
    522    526     1   0.14647 272713.120000
    522    529     1   0.14647 272713.120000
    523    535     1   0.15375 251793.120000
    526    538     1   0.15375 251793.120000
    529    532     1   0.15375 251793.120000
    532    541     1   0.15375 251793.120000
    535    547     1   0.15375 251793.120000
    538    544     1   0.15375 251793.120000
    541    550     1   0.14316 258236.480000
    544   1164     1   0.14316 258236.480000
    547   1195     1   0.14316 258236.480000
    551    552     1   0.14647 272713.120000
    551    555     1   0.14647 272713.120000
    551    558     1   0.14647 272713.120000
    552    564     1   0.15375 251793.120000
    555    567     1   0.15375 251793.120000
    558    561     1   0.15375 251793.120000
    561    570     1   0.15375 251793.120000
    564    576     1   0.15375 251793.120000
    567    573     1   0.15375 251793.120000
    570    579     1   0.14316 258236.480000
    573   1226     1   0.14316 258236.480000
    576   1257     1   0.14316 258236.480000
    580    581     1   0.14647 272713.120000
    580    584     1   0.14647 272713.120000
    580    587     1   0.14647 272713.120000
    581    593     1   0.15375 251793.120000
    584    596     1   0.15375 251793.120000
    587    590     1   0.15375 251793.120000
    590    599     1   0.15375 251793.120000
    593    605     1   0.15375 251793.120000
    596    602     1   0.15375 251793.120000
    599    608     1   0.14316 258236.480000
    602   1288     1   0.14316 258236.480000
    605   1319     1   0.14316 258236.480000
    609    610     1   0.14647 272713.120000
    609    613     1   0.14647 272713.120000
    609    616     1   0.14647 272713.120000
    610    622     1   0.15375 251793.120000
    613    625     1   0.15375 251793.120000
    616    619     1   0.15375 251793.120000
    619    628     1   0.15375 251793.120000
    622    634     1   0.15375 251793.120000
    625    631     1   0.15375 251793.120000
    628    637     1   0.14316 258236.480000
    631   1350     1   0.14316 258236.480000
    634   1381     1   0.14316 258236.480000
    638    641     1   0.15375 251793.120000
    638    668     1   0.14316 258236.480000
    641    644     1   0.15375 251793.120000
    644    647     1   0.14647 272713.120000
    647    648     1   0.14647 272713.120000
    647    658     1   0.14647 272713.120000
    648    651     1   0.15375 251793.120000
    651    654     1   0.15241 261918.400000
    654    655     1   0.12183 533627.360000
    654    656     1   0.13513 334803.680000
    658    661     1   0.15375 251793.120000
    661    664     1   0.15241 261918.400000
    664    665     1   0.12183 533627.360000
    664    666     1   0.13513 334803.680000
    669    672     1   0.15375 251793.120000
    669    699     1   0.14316 258236.480000
    672    675     1   0.15375 251793.120000
    675    678     1   0.14647 272713.120000
    678    679     1   0.14647 272713.120000
    678    689     1   0.14647 272713.120000
    679    682     1   0.15375 251793.120000
    682    685     1   0.15241 261918.400000
    685    686     1   0.12183 533627.360000
    685    687     1   0.13513 334803.680000
    689    692     1   0.15375 251793.120000
    692    695     1   0.15241 261918.400000
    695    696     1   0.12183 533627.360000
    695    697     1   0.13513 334803.680000
    700    703     1   0.15375 251793.120000
    700    730     1   0.14316 258236.480000
    703    706     1   0.15375 251793.120000
    706    709     1   0.14647 272713.120000
    709    710     1   0.14647 272713.120000
    709    720     1   0.14647 272713.120000
    710    713     1   0.15375 251793.120000
    713    716     1   0.15241 261918.400000
    716    717     1   0.12183 533627.360000
    716    718     1   0.13513 334803.680000
    720    723     1   0.15375 251793.120000
    723    726     1   0.15241 261918.400000
    726    727     1   0.12183 533627.360000
    726    728     1   0.13513 334803.680000
    731    734     1   0.15375 251793.120000
    731    761     1   0.14316 258236.480000
    734    737     1   0.15375 251793.120000
    737    740     1   0.14647 272713.120000
    740    741     1   0.14647 272713.120000
    740    751     1   0.14647 272713.120000
    741    744     1   0.15375 251793.120000
    744    747     1   0.15241 261918.400000
    747    748     1   0.12183 533627.360000
    747    749     1   0.13513 334803.680000
    751    754     1   0.15375 251793.120000
    754    757     1   0.15241 261918.400000
    757    758     1   0.12183 533627.360000
    757    759     1   0.13513 334803.680000
    762    765     1   0.15375 251793.120000
    762    792     1   0.14316 258236.480000
    765    768     1   0.15375 251793.120000
    768    771     1   0.14647 272713.120000
    771    772     1   0.14647 272713.120000
    771    782     1   0.14647 272713.120000
    772    775     1   0.15375 251793.120000
    775    778     1   0.15241 261918.400000
    778    779     1   0.12183 533627.360000
    778    780     1   0.13513 334803.680000
    782    785     1   0.15375 251793.120000
    785    788     1   0.15241 261918.400000
    788    789     1   0.12183 533627.360000
    788    790     1   0.13513 334803.680000
    793    796     1   0.15375 251793.120000
    793    823     1   0.14316 258236.480000
    796    799     1   0.15375 251793.120000
    799    802     1   0.14647 272713.120000
    802    803     1   0.14647 272713.120000
    802    813     1   0.14647 272713.120000
    803    806     1   0.15375 251793.120000
    806    809     1   0.15241 261918.400000
    809    810     1   0.12183 533627.360000
    809    811     1   0.13513 334803.680000
    813    816     1   0.15375 251793.120000
    816    819     1   0.15241 261918.400000
    819    820     1   0.12183 533627.360000
    819    821     1   0.13513 334803.680000
    824    827     1   0.15375 251793.120000
    824    854     1   0.14316 258236.480000
    827    830     1   0.15375 251793.120000
    830    833     1   0.14647 272713.120000
    833    834     1   0.14647 272713.120000
    833    844     1   0.14647 272713.120000
    834    837     1   0.15375 251793.120000
    837    840     1   0.15241 261918.400000
    840    841     1   0.12183 533627.360000
    840    842     1   0.13513 334803.680000
    844    847     1   0.15375 251793.120000
    847    850     1   0.15241 261918.400000
    850    851     1   0.12183 533627.360000
    850    852     1   0.13513 334803.680000
    855    858     1   0.15375 251793.120000
    855    885     1   0.14316 258236.480000
    858    861     1   0.15375 251793.120000
    861    864     1   0.14647 272713.120000
    864    865     1   0.14647 272713.120000
    864    875     1   0.14647 272713.120000
    865    868     1   0.15375 251793.120000
    868    871     1   0.15241 261918.400000
    871    872     1   0.12183 533627.360000
    871    873     1   0.13513 334803.680000
    875    878     1   0.15375 251793.120000
    878    881     1   0.15241 261918.400000
    881    882     1   0.12183 533627.360000
    881    883     1   0.13513 334803.680000
    886    889     1   0.15375 251793.120000
    886    916     1   0.14316 258236.480000
    889    892     1   0.15375 251793.120000
    892    895     1   0.14647 272713.120000
    895    896     1   0.14647 272713.120000
    895    906     1   0.14647 272713.120000
    896    899     1   0.15375 251793.120000
    899    902     1   0.15241 261918.400000
    902    903     1   0.12183 533627.360000
    902    904     1   0.13513 334803.680000
    906    909     1   0.15375 251793.120000
    909    912     1   0.15241 261918.400000
    912    913     1   0.12183 533627.360000
    912    914     1   0.13513 334803.680000
    917    920     1   0.15375 251793.120000
    917    947     1   0.14316 258236.480000
    920    923     1   0.15375 251793.120000
    923    926     1   0.14647 272713.120000
    926    927     1   0.14647 272713.120000
    926    937     1   0.14647 272713.120000
    927    930     1   0.15375 251793.120000
    930    933     1   0.15241 261918.400000
    933    934     1   0.12183 533627.360000
    933    935     1   0.13513 334803.680000
    937    940     1   0.15375 251793.120000
    940    943     1   0.15241 261918.400000
    943    944     1   0.12183 533627.360000
    943    945     1   0.13513 334803.680000
    948    951     1   0.15375 251793.120000
    948    978     1   0.14316 258236.480000
    951    954     1   0.15375 251793.120000
    954    957     1   0.14647 272713.120000
    957    958     1   0.14647 272713.120000
    957    968     1   0.14647 272713.120000
    958    961     1   0.15375 251793.120000
    961    964     1   0.15241 261918.400000
    964    965     1   0.12183 533627.360000
    964    966     1   0.13513 334803.680000
    968    971     1   0.15375 251793.120000
    971    974     1   0.15241 261918.400000
    974    975     1   0.12183 533627.360000
    974    976     1   0.13513 334803.680000
    979    982     1   0.15375 251793.120000
    979   1009     1   0.14316 258236.480000
    982    985     1   0.15375 251793.120000
    985    988     1   0.14647 272713.120000
    988    989     1   0.14647 272713.120000
    988    999     1   0.14647 272713.120000
    989    992     1   0.15375 251793.120000
    992    995     1   0.15241 261918.400000
    995    996     1   0.12183 533627.360000
    995    997     1   0.13513 334803.680000
    999   1002     1   0.15375 251793.120000
   1002   1005     1   0.15241 261918.400000
   1005   1006     1   0.12183 533627.360000
   1005   1007     1   0.13513 334803.680000
   1010   1013     1   0.15375 251793.120000
   1010   1040     1   0.14316 258236.480000
   1013   1016     1   0.15375 251793.120000
   1016   1019     1   0.14647 272713.120000
   1019   1020     1   0.14647 272713.120000
   1019   1030     1   0.14647 272713.120000
   1020   1023     1   0.15375 251793.120000
   1023   1026     1   0.15241 261918.400000
   1026   1027     1   0.12183 533627.360000
   1026   1028     1   0.13513 334803.680000
   1030   1033     1   0.15375 251793.120000
   1033   1036     1   0.15241 261918.400000
   1036   1037     1   0.12183 533627.360000
   1036   1038     1   0.13513 334803.680000
   1041   1044     1   0.15375 251793.120000
   1041   1071     1   0.14316 258236.480000
   1044   1047     1   0.15375 251793.120000
   1047   1050     1   0.14647 272713.120000
   1050   1051     1   0.14647 272713.120000
   1050   1061     1   0.14647 272713.120000
   1051   1054     1   0.15375 251793.120000
   1054   1057     1   0.15241 261918.400000
   1057   1058     1   0.12183 533627.360000
   1057   1059     1   0.13513 334803.680000
   1061   1064     1   0.15375 251793.120000
   1064   1067     1   0.15241 261918.400000
   1067   1068     1   0.12183 533627.360000
   1067   1069     1   0.13513 334803.680000
   1072   1075     1   0.15375 251793.120000
   1072   1102     1   0.14316 258236.480000
   1075   1078     1   0.15375 251793.120000
   1078   1081     1   0.14647 272713.120000
   1081   1082     1   0.14647 272713.120000
   1081   1092     1   0.14647 272713.120000
   1082   1085     1   0.15375 251793.120000
   1085   1088     1   0.15241 261918.400000
   1088   1089     1   0.12183 533627.360000
   1088   1090     1   0.13513 334803.680000
   1092   1095     1   0.15375 251793.120000
   1095   1098     1   0.15241 261918.400000
   1098   1099     1   0.12183 533627.360000
   1098   1100     1   0.13513 334803.680000
   1103   1106     1   0.15375 251793.120000
   1103   1133     1   0.14316 258236.480000
   1106   1109     1   0.15375 251793.120000
   1109   1112     1   0.14647 272713.120000
   1112   1113     1   0.14647 272713.120000
   1112   1123     1   0.14647 272713.120000
   1113   1116     1   0.15375 251793.120000
   1116   1119     1   0.15241 261918.400000
   1119   1120     1   0.12183 533627.360000
   1119   1121     1   0.13513 334803.680000
   1123   1126     1   0.15375 251793.120000
   1126   1129     1   0.15241 261918.400000
   1129   1130     1   0.12183 533627.360000
   1129   1131     1   0.13513 334803.680000
   1134   1137     1   0.15375 251793.120000
   1134   1164     1   0.14316 258236.480000
   1137   1140     1   0.15375 251793.120000
   1140   1143     1   0.14647 272713.120000
   1143   1144     1   0.14647 272713.120000
   1143   1154     1   0.14647 272713.120000
   1144   1147     1   0.15375 251793.120000
   1147   1150     1   0.15241 261918.400000
   1150   1151     1   0.12183 533627.360000
   1150   1152     1   0.13513 334803.680000
   1154   1157     1   0.15375 251793.120000
   1157   1160     1   0.15241 261918.400000
   1160   1161     1   0.12183 533627.360000
   1160   1162     1   0.13513 334803.680000
   1165   1168     1   0.15375 251793.120000
   1165   1195     1   0.14316 258236.480000
   1168   1171     1   0.15375 251793.120000
   1171   1174     1   0.14647 272713.120000
   1174   1175     1   0.14647 272713.120000
   1174   1185     1   0.14647 272713.120000
   1175   1178     1   0.15375 251793.120000
   1178   1181     1   0.15241 261918.400000
   1181   1182     1   0.12183 533627.360000
   1181   1183     1   0.13513 334803.680000
   1185   1188     1   0.15375 251793.120000
   1188   1191     1   0.15241 261918.400000
   1191   1192     1   0.12183 533627.360000
   1191   1193     1   0.13513 334803.680000
   1196   1199     1   0.15375 251793.120000
   1196   1226     1   0.14316 258236.480000
   1199   1202     1   0.15375 251793.120000
   1202   1205     1   0.14647 272713.120000
   1205   1206     1   0.14647 272713.120000
   1205   1216     1   0.14647 272713.120000
   1206   1209     1   0.15375 251793.120000
   1209   1212     1   0.15241 261918.400000
   1212   1213     1   0.12183 533627.360000
   1212   1214     1   0.13513 334803.680000
   1216   1219     1   0.15375 251793.120000
   1219   1222     1   0.15241 261918.400000
   1222   1223     1   0.12183 533627.360000
   1222   1224     1   0.13513 334803.680000
   1227   1230     1   0.15375 251793.120000
   1227   1257     1   0.14316 258236.480000
   1230   1233     1   0.15375 251793.120000
   1233   1236     1   0.14647 272713.120000
   1236   1237     1   0.14647 272713.120000
   1236   1247     1   0.14647 272713.120000
   1237   1240     1   0.15375 251793.120000
   1240   1243     1   0.15241 261918.400000
   1243   1244     1   0.12183 533627.360000
   1243   1245     1   0.13513 334803.680000
   1247   1250     1   0.15375 251793.120000
   1250   1253     1   0.15241 261918.400000
   1253   1254     1   0.12183 533627.360000
   1253   1255     1   0.13513 334803.680000
   1258   1261     1   0.15375 251793.120000
   1258   1288     1   0.14316 258236.480000
   1261   1264     1   0.15375 251793.120000
   1264   1267     1   0.14647 272713.120000
   1267   1268     1   0.14647 272713.120000
   1267   1278     1   0.14647 272713.120000
   1268   1271     1   0.15375 251793.120000
   1271   1274     1   0.15241 261918.400000
   1274   1275     1   0.12183 533627.360000
   1274   1276     1   0.13513 334803.680000
   1278   1281     1   0.15375 251793.120000
   1281   1284     1   0.15241 261918.400000
   1284   1285     1   0.12183 533627.360000
   1284   1286     1   0.13513 334803.680000
   1289   1292     1   0.15375 251793.120000
   1289   1319     1   0.14316 258236.480000
   1292   1295     1   0.15375 251793.120000
   1295   1298     1   0.14647 272713.120000
   1298   1299     1   0.14647 272713.120000
   1298   1309     1   0.14647 272713.120000
   1299   1302     1   0.15375 251793.120000
   1302   1305     1   0.15241 261918.400000
   1305   1306     1   0.12183 533627.360000
   1305   1307     1   0.13513 334803.680000
   1309   1312     1   0.15375 251793.120000
   1312   1315     1   0.15241 261918.400000
   1315   1316     1   0.12183 533627.360000
   1315   1317     1   0.13513 334803.680000
   1320   1323     1   0.15375 251793.120000
   1320   1350     1   0.14316 258236.480000
   1323   1326     1   0.15375 251793.120000
   1326   1329     1   0.14647 272713.120000
   1329   1330     1   0.14647 272713.120000
   1329   1340     1   0.14647 272713.120000
   1330   1333     1   0.15375 251793.120000
   1333   1336     1   0.15241 261918.400000
   1336   1337     1   0.12183 533627.360000
   1336   1338     1   0.13513 334803.680000
   1340   1343     1   0.15375 251793.120000
   1343   1346     1   0.15241 261918.400000
   1346   1347     1   0.12183 533627.360000
   1346   1348     1   0.13513 334803.680000
   1351   1354     1   0.15375 251793.120000
   1351   1381     1   0.14316 258236.480000
   1354   1357     1   0.15375 251793.120000
   1357   1360     1   0.14647 272713.120000
   1360   1361     1   0.14647 272713.120000
   1360   1371     1   0.14647 272713.120000
   1361   1364     1   0.15375 251793.120000
   1364   1367     1   0.15241 261918.400000
   1367   1368     1   0.12183 533627.360000
   1367   1369     1   0.13513 334803.680000
   1371   1374     1   0.15375 251793.120000
   1374   1377     1   0.15241 261918.400000
   1377   1378     1   0.12183 533627.360000
   1377   1379     1   0.13513 334803.680000
      2      3     1   0.10969 276646.080000
      2      4     1   0.10969 276646.080000
      5      6     1   0.10969 276646.080000
      5      7     1   0.10969 276646.080000
      8      9     1   0.10969 276646.080000
      8     10     1   0.10969 276646.080000
     11     12     1   0.10969 276646.080000
     11     13     1   0.10969 276646.080000
     14     15     1   0.10969 276646.080000
     14     16     1   0.10969 276646.080000
     17     18     1   0.10969 276646.080000
     17     19     1   0.10969 276646.080000
     20     21     1   0.10969 276646.080000
     20     22     1   0.10969 276646.080000
     23     24     1   0.10969 276646.080000
     23     25     1   0.10969 276646.080000
     26     27     1   0.10969 276646.080000
     26     28     1   0.10969 276646.080000
     30     31     1   0.10969 276646.080000
     30     32     1   0.10969 276646.080000
     33     34     1   0.10969 276646.080000
     33     35     1   0.10969 276646.080000
     36     37     1   0.10969 276646.080000
     36     38     1   0.10969 276646.080000
     39     40     1   0.10969 276646.080000
     39     41     1   0.10969 276646.080000
     42     43     1   0.10969 276646.080000
     42     44     1   0.10969 276646.080000
     45     46     1   0.10969 276646.080000
     45     47     1   0.10969 276646.080000
     48     49     1   0.10969 276646.080000
     48     50     1   0.10969 276646.080000
     51     52     1   0.10969 276646.080000
     51     53     1   0.10969 276646.080000
     54     55     1   0.10969 276646.080000
     54     56     1   0.10969 276646.080000
     59     60     1   0.10969 276646.080000
     59     61     1   0.10969 276646.080000
     62     63     1   0.10969 276646.080000
     62     64     1   0.10969 276646.080000
     65     66     1   0.10969 276646.080000
     65     67     1   0.10969 276646.080000
     68     69     1   0.10969 276646.080000
     68     70     1   0.10969 276646.080000
     71     72     1   0.10969 276646.080000
     71     73     1   0.10969 276646.080000
     74     75     1   0.10969 276646.080000
     74     76     1   0.10969 276646.080000
     77     78     1   0.10969 276646.080000
     77     79     1   0.10969 276646.080000
     80     81     1   0.10969 276646.080000
     80     82     1   0.10969 276646.080000
     83     84     1   0.10969 276646.080000
     83     85     1   0.10969 276646.080000
     88     89     1   0.10969 276646.080000
     88     90     1   0.10969 276646.080000
     91     92     1   0.10969 276646.080000
     91     93     1   0.10969 276646.080000
     94     95     1   0.10969 276646.080000
     94     96     1   0.10969 276646.080000
     97     98     1   0.10969 276646.080000
     97     99     1   0.10969 276646.080000
    100    101     1   0.10969 276646.080000
    100    102     1   0.10969 276646.080000
    103    104     1   0.10969 276646.080000
    103    105     1   0.10969 276646.080000
    106    107     1   0.10969 276646.080000
    106    108     1   0.10969 276646.080000
    109    110     1   0.10969 276646.080000
    109    111     1   0.10969 276646.080000
    112    113     1   0.10969 276646.080000
    112    114     1   0.10969 276646.080000
    117    118     1   0.10969 276646.080000
    117    119     1   0.10969 276646.080000
    120    121     1   0.10969 276646.080000
    120    122     1   0.10969 276646.080000
    123    124     1   0.10969 276646.080000
    123    125     1   0.10969 276646.080000
    126    127     1   0.10969 276646.080000
    126    128     1   0.10969 276646.080000
    129    130     1   0.10969 276646.080000
    129    131     1   0.10969 276646.080000
    132    133     1   0.10969 276646.080000
    132    134     1   0.10969 276646.080000
    135    136     1   0.10969 276646.080000
    135    137     1   0.10969 276646.080000
    138    139     1   0.10969 276646.080000
    138    140     1   0.10969 276646.080000
    141    142     1   0.10969 276646.080000
    141    143     1   0.10969 276646.080000
    146    147     1   0.10969 276646.080000
    146    148     1   0.10969 276646.080000
    149    150     1   0.10969 276646.080000
    149    151     1   0.10969 276646.080000
    152    153     1   0.10969 276646.080000
    152    154     1   0.10969 276646.080000
    155    156     1   0.10969 276646.080000
    155    157     1   0.10969 276646.080000
    158    159     1   0.10969 276646.080000
    158    160     1   0.10969 276646.080000
    161    162     1   0.10969 276646.080000
    161    163     1   0.10969 276646.080000
    164    165     1   0.10969 276646.080000
    164    166     1   0.10969 276646.080000
    167    168     1   0.10969 276646.080000
    167    169     1   0.10969 276646.080000
    170    171     1   0.10969 276646.080000
    170    172     1   0.10969 276646.080000
    175    176     1   0.10969 276646.080000
    175    177     1   0.10969 276646.080000
    178    179     1   0.10969 276646.080000
    178    180     1   0.10969 276646.080000
    181    182     1   0.10969 276646.080000
    181    183     1   0.10969 276646.080000
    184    185     1   0.10969 276646.080000
    184    186     1   0.10969 276646.080000
    187    188     1   0.10969 276646.080000
    187    189     1   0.10969 276646.080000
    190    191     1   0.10969 276646.080000
    190    192     1   0.10969 276646.080000
    193    194     1   0.10969 276646.080000
    193    195     1   0.10969 276646.080000
    196    197     1   0.10969 276646.080000
    196    198     1   0.10969 276646.080000
    199    200     1   0.10969 276646.080000
    199    201     1   0.10969 276646.080000
    204    205     1   0.10969 276646.080000
    204    206     1   0.10969 276646.080000
    207    208     1   0.10969 276646.080000
    207    209     1   0.10969 276646.080000
    210    211     1   0.10969 276646.080000
    210    212     1   0.10969 276646.080000
    213    214     1   0.10969 276646.080000
    213    215     1   0.10969 276646.080000
    216    217     1   0.10969 276646.080000
    216    218     1   0.10969 276646.080000
    219    220     1   0.10969 276646.080000
    219    221     1   0.10969 276646.080000
    222    223     1   0.10969 276646.080000
    222    224     1   0.10969 276646.080000
    225    226     1   0.10969 276646.080000
    225    227     1   0.10969 276646.080000
    228    229     1   0.10969 276646.080000
    228    230     1   0.10969 276646.080000
    233    234     1   0.10969 276646.080000
    233    235     1   0.10969 276646.080000
    236    237     1   0.10969 276646.080000
    236    238     1   0.10969 276646.080000
    239    240     1   0.10969 276646.080000
    239    241     1   0.10969 276646.080000
    242    243     1   0.10969 276646.080000
    242    244     1   0.10969 276646.080000
    245    246     1   0.10969 276646.080000
    245    247     1   0.10969 276646.080000
    248    249     1   0.10969 276646.080000
    248    250     1   0.10969 276646.080000
    251    252     1   0.10969 276646.080000
    251    253     1   0.10969 276646.080000
    254    255     1   0.10969 276646.080000
    254    256     1   0.10969 276646.080000
    257    258     1   0.10969 276646.080000
    257    259     1   0.10969 276646.080000
    262    263     1   0.10969 276646.080000
    262    264     1   0.10969 276646.080000
    265    266     1   0.10969 276646.080000
    265    267     1   0.10969 276646.080000
    268    269     1   0.10969 276646.080000
    268    270     1   0.10969 276646.080000
    271    272     1   0.10969 276646.080000
    271    273     1   0.10969 276646.080000
    274    275     1   0.10969 276646.080000
    274    276     1   0.10969 276646.080000
    277    278     1   0.10969 276646.080000
    277    279     1   0.10969 276646.080000
    280    281     1   0.10969 276646.080000
    280    282     1   0.10969 276646.080000
    283    284     1   0.10969 276646.080000
    283    285     1   0.10969 276646.080000
    286    287     1   0.10969 276646.080000
    286    288     1   0.10969 276646.080000
    291    292     1   0.10969 276646.080000
    291    293     1   0.10969 276646.080000
    294    295     1   0.10969 276646.080000
    294    296     1   0.10969 276646.080000
    297    298     1   0.10969 276646.080000
    297    299     1   0.10969 276646.080000
    300    301     1   0.10969 276646.080000
    300    302     1   0.10969 276646.080000
    303    304     1   0.10969 276646.080000
    303    305     1   0.10969 276646.080000
    306    307     1   0.10969 276646.080000
    306    308     1   0.10969 276646.080000
    309    310     1   0.10969 276646.080000
    309    311     1   0.10969 276646.080000
    312    313     1   0.10969 276646.080000
    312    314     1   0.10969 276646.080000
    315    316     1   0.10969 276646.080000
    315    317     1   0.10969 276646.080000
    320    321     1   0.10969 276646.080000
    320    322     1   0.10969 276646.080000
    323    324     1   0.10969 276646.080000
    323    325     1   0.10969 276646.080000
    326    327     1   0.10969 276646.080000
    326    328     1   0.10969 276646.080000
    329    330     1   0.10969 276646.080000
    329    331     1   0.10969 276646.080000
    332    333     1   0.10969 276646.080000
    332    334     1   0.10969 276646.080000
    335    336     1   0.10969 276646.080000
    335    337     1   0.10969 276646.080000
    338    339     1   0.10969 276646.080000
    338    340     1   0.10969 276646.080000
    341    342     1   0.10969 276646.080000
    341    343     1   0.10969 276646.080000
    344    345     1   0.10969 276646.080000
    344    346     1   0.10969 276646.080000
    349    350     1   0.10969 276646.080000
    349    351     1   0.10969 276646.080000
    352    353     1   0.10969 276646.080000
    352    354     1   0.10969 276646.080000
    355    356     1   0.10969 276646.080000
    355    357     1   0.10969 276646.080000
    358    359     1   0.10969 276646.080000
    358    360     1   0.10969 276646.080000
    361    362     1   0.10969 276646.080000
    361    363     1   0.10969 276646.080000
    364    365     1   0.10969 276646.080000
    364    366     1   0.10969 276646.080000
    367    368     1   0.10969 276646.080000
    367    369     1   0.10969 276646.080000
    370    371     1   0.10969 276646.080000
    370    372     1   0.10969 276646.080000
    373    374     1   0.10969 276646.080000
    373    375     1   0.10969 276646.080000
    378    379     1   0.10969 276646.080000
    378    380     1   0.10969 276646.080000
    381    382     1   0.10969 276646.080000
    381    383     1   0.10969 276646.080000
    384    385     1   0.10969 276646.080000
    384    386     1   0.10969 276646.080000
    387    388     1   0.10969 276646.080000
    387    389     1   0.10969 276646.080000
    390    391     1   0.10969 276646.080000
    390    392     1   0.10969 276646.080000
    393    394     1   0.10969 276646.080000
    393    395     1   0.10969 276646.080000
    396    397     1   0.10969 276646.080000
    396    398     1   0.10969 276646.080000
    399    400     1   0.10969 276646.080000
    399    401     1   0.10969 276646.080000
    402    403     1   0.10969 276646.080000
    402    404     1   0.10969 276646.080000
    407    408     1   0.10969 276646.080000
    407    409     1   0.10969 276646.080000
    410    411     1   0.10969 276646.080000
    410    412     1   0.10969 276646.080000
    413    414     1   0.10969 276646.080000
    413    415     1   0.10969 276646.080000
    416    417     1   0.10969 276646.080000
    416    418     1   0.10969 276646.080000
    419    420     1   0.10969 276646.080000
    419    421     1   0.10969 276646.080000
    422    423     1   0.10969 276646.080000
    422    424     1   0.10969 276646.080000
    425    426     1   0.10969 276646.080000
    425    427     1   0.10969 276646.080000
    428    429     1   0.10969 276646.080000
    428    430     1   0.10969 276646.080000
    431    432     1   0.10969 276646.080000
    431    433     1   0.10969 276646.080000
    436    437     1   0.10969 276646.080000
    436    438     1   0.10969 276646.080000
    439    440     1   0.10969 276646.080000
    439    441     1   0.10969 276646.080000
    442    443     1   0.10969 276646.080000
    442    444     1   0.10969 276646.080000
    445    446     1   0.10969 276646.080000
    445    447     1   0.10969 276646.080000
    448    449     1   0.10969 276646.080000
    448    450     1   0.10969 276646.080000
    451    452     1   0.10969 276646.080000
    451    453     1   0.10969 276646.080000
    454    455     1   0.10969 276646.080000
    454    456     1   0.10969 276646.080000
    457    458     1   0.10969 276646.080000
    457    459     1   0.10969 276646.080000
    460    461     1   0.10969 276646.080000
    460    462     1   0.10969 276646.080000
    465    466     1   0.10969 276646.080000
    465    467     1   0.10969 276646.080000
    468    469     1   0.10969 276646.080000
    468    470     1   0.10969 276646.080000
    471    472     1   0.10969 276646.080000
    471    473     1   0.10969 276646.080000
    474    475     1   0.10969 276646.080000
    474    476     1   0.10969 276646.080000
    477    478     1   0.10969 276646.080000
    477    479     1   0.10969 276646.080000
    480    481     1   0.10969 276646.080000
    480    482     1   0.10969 276646.080000
    483    484     1   0.10969 276646.080000
    483    485     1   0.10969 276646.080000
    486    487     1   0.10969 276646.080000
    486    488     1   0.10969 276646.080000
    489    490     1   0.10969 276646.080000
    489    491     1   0.10969 276646.080000
    494    495     1   0.10969 276646.080000
    494    496     1   0.10969 276646.080000
    497    498     1   0.10969 276646.080000
    497    499     1   0.10969 276646.080000
    500    501     1   0.10969 276646.080000
    500    502     1   0.10969 276646.080000
    503    504     1   0.10969 276646.080000
    503    505     1   0.10969 276646.080000
    506    507     1   0.10969 276646.080000
    506    508     1   0.10969 276646.080000
    509    510     1   0.10969 276646.080000
    509    511     1   0.10969 276646.080000
    512    513     1   0.10969 276646.080000
    512    514     1   0.10969 276646.080000
    515    516     1   0.10969 276646.080000
    515    517     1   0.10969 276646.080000
    518    519     1   0.10969 276646.080000
    518    520     1   0.10969 276646.080000
    523    524     1   0.10969 276646.080000
    523    525     1   0.10969 276646.080000
    526    527     1   0.10969 276646.080000
    526    528     1   0.10969 276646.080000
    529    530     1   0.10969 276646.080000
    529    531     1   0.10969 276646.080000
    532    533     1   0.10969 276646.080000
    532    534     1   0.10969 276646.080000
    535    536     1   0.10969 276646.080000
    535    537     1   0.10969 276646.080000
    538    539     1   0.10969 276646.080000
    538    540     1   0.10969 276646.080000
    541    542     1   0.10969 276646.080000
    541    543     1   0.10969 276646.080000
    544    545     1   0.10969 276646.080000
    544    546     1   0.10969 276646.080000
    547    548     1   0.10969 276646.080000
    547    549     1   0.10969 276646.080000
    552    553     1   0.10969 276646.080000
    552    554     1   0.10969 276646.080000
    555    556     1   0.10969 276646.080000
    555    557     1   0.10969 276646.080000
    558    559     1   0.10969 276646.080000
    558    560     1   0.10969 276646.080000
    561    562     1   0.10969 276646.080000
    561    563     1   0.10969 276646.080000
    564    565     1   0.10969 276646.080000
    564    566     1   0.10969 276646.080000
    567    568     1   0.10969 276646.080000
    567    569     1   0.10969 276646.080000
    570    571     1   0.10969 276646.080000
    570    572     1   0.10969 276646.080000
    573    574     1   0.10969 276646.080000
    573    575     1   0.10969 276646.080000
    576    577     1   0.10969 276646.080000
    576    578     1   0.10969 276646.080000
    581    582     1   0.10969 276646.080000
    581    583     1   0.10969 276646.080000
    584    585     1   0.10969 276646.080000
    584    586     1   0.10969 276646.080000
    587    588     1   0.10969 276646.080000
    587    589     1   0.10969 276646.080000
    590    591     1   0.10969 276646.080000
    590    592     1   0.10969 276646.080000
    593    594     1   0.10969 276646.080000
    593    595     1   0.10969 276646.080000
    596    597     1   0.10969 276646.080000
    596    598     1   0.10969 276646.080000
    599    600     1   0.10969 276646.080000
    599    601     1   0.10969 276646.080000
    602    603     1   0.10969 276646.080000
    602    604     1   0.10969 276646.080000
    605    606     1   0.10969 276646.080000
    605    607     1   0.10969 276646.080000
    610    611     1   0.10969 276646.080000
    610    612     1   0.10969 276646.080000
    613    614     1   0.10969 276646.080000
    613    615     1   0.10969 276646.080000
    616    617     1   0.10969 276646.080000
    616    618     1   0.10969 276646.080000
    619    620     1   0.10969 276646.080000
    619    621     1   0.10969 276646.080000
    622    623     1   0.10969 276646.080000
    622    624     1   0.10969 276646.080000
    625    626     1   0.10969 276646.080000
    625    627     1   0.10969 276646.080000
    628    629     1   0.10969 276646.080000
    628    630     1   0.10969 276646.080000
    631    632     1   0.10969 276646.080000
    631    633     1   0.10969 276646.080000
    634    635     1   0.10969 276646.080000
    634    636     1   0.10969 276646.080000
    638    639     1   0.10969 276646.080000
    638    640     1   0.10969 276646.080000
    641    642     1   0.10969 276646.080000
    641    643     1   0.10969 276646.080000
    644    645     1   0.10969 276646.080000
    644    646     1   0.10969 276646.080000
    648    649     1   0.10969 276646.080000
    648    650     1   0.10969 276646.080000
    651    652     1   0.10969 276646.080000
    651    653     1   0.10969 276646.080000
    656    657     1   0.09730 310787.520000
    658    659     1   0.10969 276646.080000
    658    660     1   0.10969 276646.080000
    661    662     1   0.10969 276646.080000
    661    663     1   0.10969 276646.080000
    666    667     1   0.09730 310787.520000
    669    670     1   0.10969 276646.080000
    669    671     1   0.10969 276646.080000
    672    673     1   0.10969 276646.080000
    672    674     1   0.10969 276646.080000
    675    676     1   0.10969 276646.080000
    675    677     1   0.10969 276646.080000
    679    680     1   0.10969 276646.080000
    679    681     1   0.10969 276646.080000
    682    683     1   0.10969 276646.080000
    682    684     1   0.10969 276646.080000
    687    688     1   0.09730 310787.520000
    689    690     1   0.10969 276646.080000
    689    691     1   0.10969 276646.080000
    692    693     1   0.10969 276646.080000
    692    694     1   0.10969 276646.080000
    697    698     1   0.09730 310787.520000
    700    701     1   0.10969 276646.080000
    700    702     1   0.10969 276646.080000
    703    704     1   0.10969 276646.080000
    703    705     1   0.10969 276646.080000
    706    707     1   0.10969 276646.080000
    706    708     1   0.10969 276646.080000
    710    711     1   0.10969 276646.080000
    710    712     1   0.10969 276646.080000
    713    714     1   0.10969 276646.080000
    713    715     1   0.10969 276646.080000
    718    719     1   0.09730 310787.520000
    720    721     1   0.10969 276646.080000
    720    722     1   0.10969 276646.080000
    723    724     1   0.10969 276646.080000
    723    725     1   0.10969 276646.080000
    728    729     1   0.09730 310787.520000
    731    732     1   0.10969 276646.080000
    731    733     1   0.10969 276646.080000
    734    735     1   0.10969 276646.080000
    734    736     1   0.10969 276646.080000
    737    738     1   0.10969 276646.080000
    737    739     1   0.10969 276646.080000
    741    742     1   0.10969 276646.080000
    741    743     1   0.10969 276646.080000
    744    745     1   0.10969 276646.080000
    744    746     1   0.10969 276646.080000
    749    750     1   0.09730 310787.520000
    751    752     1   0.10969 276646.080000
    751    753     1   0.10969 276646.080000
    754    755     1   0.10969 276646.080000
    754    756     1   0.10969 276646.080000
    759    760     1   0.09730 310787.520000
    762    763     1   0.10969 276646.080000
    762    764     1   0.10969 276646.080000
    765    766     1   0.10969 276646.080000
    765    767     1   0.10969 276646.080000
    768    769     1   0.10969 276646.080000
    768    770     1   0.10969 276646.080000
    772    773     1   0.10969 276646.080000
    772    774     1   0.10969 276646.080000
    775    776     1   0.10969 276646.080000
    775    777     1   0.10969 276646.080000
    780    781     1   0.09730 310787.520000
    782    783     1   0.10969 276646.080000
    782    784     1   0.10969 276646.080000
    785    786     1   0.10969 276646.080000
    785    787     1   0.10969 276646.080000
    790    791     1   0.09730 310787.520000
    793    794     1   0.10969 276646.080000
    793    795     1   0.10969 276646.080000
    796    797     1   0.10969 276646.080000
    796    798     1   0.10969 276646.080000
    799    800     1   0.10969 276646.080000
    799    801     1   0.10969 276646.080000
    803    804     1   0.10969 276646.080000
    803    805     1   0.10969 276646.080000
    806    807     1   0.10969 276646.080000
    806    808     1   0.10969 276646.080000
    811    812     1   0.09730 310787.520000
    813    814     1   0.10969 276646.080000
    813    815     1   0.10969 276646.080000
    816    817     1   0.10969 276646.080000
    816    818     1   0.10969 276646.080000
    821    822     1   0.09730 310787.520000
    824    825     1   0.10969 276646.080000
    824    826     1   0.10969 276646.080000
    827    828     1   0.10969 276646.080000
    827    829     1   0.10969 276646.080000
    830    831     1   0.10969 276646.080000
    830    832     1   0.10969 276646.080000
    834    835     1   0.10969 276646.080000
    834    836     1   0.10969 276646.080000
    837    838     1   0.10969 276646.080000
    837    839     1   0.10969 276646.080000
    842    843     1   0.09730 310787.520000
    844    845     1   0.10969 276646.080000
    844    846     1   0.10969 276646.080000
    847    848     1   0.10969 276646.080000
    847    849     1   0.10969 276646.080000
    852    853     1   0.09730 310787.520000
    855    856     1   0.10969 276646.080000
    855    857     1   0.10969 276646.080000
    858    859     1   0.10969 276646.080000
    858    860     1   0.10969 276646.080000
    861    862     1   0.10969 276646.080000
    861    863     1   0.10969 276646.080000
    865    866     1   0.10969 276646.080000
    865    867     1   0.10969 276646.080000
    868    869     1   0.10969 276646.080000
    868    870     1   0.10969 276646.080000
    873    874     1   0.09730 310787.520000
    875    876     1   0.10969 276646.080000
    875    877     1   0.10969 276646.080000
    878    879     1   0.10969 276646.080000
    878    880     1   0.10969 276646.080000
    883    884     1   0.09730 310787.520000
    886    887     1   0.10969 276646.080000
    886    888     1   0.10969 276646.080000
    889    890     1   0.10969 276646.080000
    889    891     1   0.10969 276646.080000
    892    893     1   0.10969 276646.080000
    892    894     1   0.10969 276646.080000
    896    897     1   0.10969 276646.080000
    896    898     1   0.10969 276646.080000
    899    900     1   0.10969 276646.080000
    899    901     1   0.10969 276646.080000
    904    905     1   0.09730 310787.520000
    906    907     1   0.10969 276646.080000
    906    908     1   0.10969 276646.080000
    909    910     1   0.10969 276646.080000
    909    911     1   0.10969 276646.080000
    914    915     1   0.09730 310787.520000
    917    918     1   0.10969 276646.080000
    917    919     1   0.10969 276646.080000
    920    921     1   0.10969 276646.080000
    920    922     1   0.10969 276646.080000
    923    924     1   0.10969 276646.080000
    923    925     1   0.10969 276646.080000
    927    928     1   0.10969 276646.080000
    927    929     1   0.10969 276646.080000
    930    931     1   0.10969 276646.080000
    930    932     1   0.10969 276646.080000
    935    936     1   0.09730 310787.520000
    937    938     1   0.10969 276646.080000
    937    939     1   0.10969 276646.080000
    940    941     1   0.10969 276646.080000
    940    942     1   0.10969 276646.080000
    945    946     1   0.09730 310787.520000
    948    949     1   0.10969 276646.080000
    948    950     1   0.10969 276646.080000
    951    952     1   0.10969 276646.080000
    951    953     1   0.10969 276646.080000
    954    955     1   0.10969 276646.080000
    954    956     1   0.10969 276646.080000
    958    959     1   0.10969 276646.080000
    958    960     1   0.10969 276646.080000
    961    962     1   0.10969 276646.080000
    961    963     1   0.10969 276646.080000
    966    967     1   0.09730 310787.520000
    968    969     1   0.10969 276646.080000
    968    970     1   0.10969 276646.080000
    971    972     1   0.10969 276646.080000
    971    973     1   0.10969 276646.080000
    976    977     1   0.09730 310787.520000
    979    980     1   0.10969 276646.080000
    979    981     1   0.10969 276646.080000
    982    983     1   0.10969 276646.080000
    982    984     1   0.10969 276646.080000
    985    986     1   0.10969 276646.080000
    985    987     1   0.10969 276646.080000
    989    990     1   0.10969 276646.080000
    989    991     1   0.10969 276646.080000
    992    993     1   0.10969 276646.080000
    992    994     1   0.10969 276646.080000
    997    998     1   0.09730 310787.520000
    999   1000     1   0.10969 276646.080000
    999   1001     1   0.10969 276646.080000
   1002   1003     1   0.10969 276646.080000
   1002   1004     1   0.10969 276646.080000
   1007   1008     1   0.09730 310787.520000
   1010   1011     1   0.10969 276646.080000
   1010   1012     1   0.10969 276646.080000
   1013   1014     1   0.10969 276646.080000
   1013   1015     1   0.10969 276646.080000
   1016   1017     1   0.10969 276646.080000
   1016   1018     1   0.10969 276646.080000
   1020   1021     1   0.10969 276646.080000
   1020   1022     1   0.10969 276646.080000
   1023   1024     1   0.10969 276646.080000
   1023   1025     1   0.10969 276646.080000
   1028   1029     1   0.09730 310787.520000
   1030   1031     1   0.10969 276646.080000
   1030   1032     1   0.10969 276646.080000
   1033   1034     1   0.10969 276646.080000
   1033   1035     1   0.10969 276646.080000
   1038   1039     1   0.09730 310787.520000
   1041   1042     1   0.10969 276646.080000
   1041   1043     1   0.10969 276646.080000
   1044   1045     1   0.10969 276646.080000
   1044   1046     1   0.10969 276646.080000
   1047   1048     1   0.10969 276646.080000
   1047   1049     1   0.10969 276646.080000
   1051   1052     1   0.10969 276646.080000
   1051   1053     1   0.10969 276646.080000
   1054   1055     1   0.10969 276646.080000
   1054   1056     1   0.10969 276646.080000
   1059   1060     1   0.09730 310787.520000
   1061   1062     1   0.10969 276646.080000
   1061   1063     1   0.10969 276646.080000
   1064   1065     1   0.10969 276646.080000
   1064   1066     1   0.10969 276646.080000
   1069   1070     1   0.09730 310787.520000
   1072   1073     1   0.10969 276646.080000
   1072   1074     1   0.10969 276646.080000
   1075   1076     1   0.10969 276646.080000
   1075   1077     1   0.10969 276646.080000
   1078   1079     1   0.10969 276646.080000
   1078   1080     1   0.10969 276646.080000
   1082   1083     1   0.10969 276646.080000
   1082   1084     1   0.10969 276646.080000
   1085   1086     1   0.10969 276646.080000
   1085   1087     1   0.10969 276646.080000
   1090   1091     1   0.09730 310787.520000
   1092   1093     1   0.10969 276646.080000
   1092   1094     1   0.10969 276646.080000
   1095   1096     1   0.10969 276646.080000
   1095   1097     1   0.10969 276646.080000
   1100   1101     1   0.09730 310787.520000
   1103   1104     1   0.10969 276646.080000
   1103   1105     1   0.10969 276646.080000
   1106   1107     1   0.10969 276646.080000
   1106   1108     1   0.10969 276646.080000
   1109   1110     1   0.10969 276646.080000
   1109   1111     1   0.10969 276646.080000
   1113   1114     1   0.10969 276646.080000
   1113   1115     1   0.10969 276646.080000
   1116   1117     1   0.10969 276646.080000
   1116   1118     1   0.10969 276646.080000
   1121   1122     1   0.09730 310787.520000
   1123   1124     1   0.10969 276646.080000
   1123   1125     1   0.10969 276646.080000
   1126   1127     1   0.10969 276646.080000
   1126   1128     1   0.10969 276646.080000
   1131   1132     1   0.09730 310787.520000
   1134   1135     1   0.10969 276646.080000
   1134   1136     1   0.10969 276646.080000
   1137   1138     1   0.10969 276646.080000
   1137   1139     1   0.10969 276646.080000
   1140   1141     1   0.10969 276646.080000
   1140   1142     1   0.10969 276646.080000
   1144   1145     1   0.10969 276646.080000
   1144   1146     1   0.10969 276646.080000
   1147   1148     1   0.10969 276646.080000
   1147   1149     1   0.10969 276646.080000
   1152   1153     1   0.09730 310787.520000
   1154   1155     1   0.10969 276646.080000
   1154   1156     1   0.10969 276646.080000
   1157   1158     1   0.10969 276646.080000
   1157   1159     1   0.10969 276646.080000
   1162   1163     1   0.09730 310787.520000
   1165   1166     1   0.10969 276646.080000
   1165   1167     1   0.10969 276646.080000
   1168   1169     1   0.10969 276646.080000
   1168   1170     1   0.10969 276646.080000
   1171   1172     1   0.10969 276646.080000
   1171   1173     1   0.10969 276646.080000
   1175   1176     1   0.10969 276646.080000
   1175   1177     1   0.10969 276646.080000
   1178   1179     1   0.10969 276646.080000
   1178   1180     1   0.10969 276646.080000
   1183   1184     1   0.09730 310787.520000
   1185   1186     1   0.10969 276646.080000
   1185   1187     1   0.10969 276646.080000
   1188   1189     1   0.10969 276646.080000
   1188   1190     1   0.10969 276646.080000
   1193   1194     1   0.09730 310787.520000
   1196   1197     1   0.10969 276646.080000
   1196   1198     1   0.10969 276646.080000
   1199   1200     1   0.10969 276646.080000
   1199   1201     1   0.10969 276646.080000
   1202   1203     1   0.10969 276646.080000
   1202   1204     1   0.10969 276646.080000
   1206   1207     1   0.10969 276646.080000
   1206   1208     1   0.10969 276646.080000
   1209   1210     1   0.10969 276646.080000
   1209   1211     1   0.10969 276646.080000
   1214   1215     1   0.09730 310787.520000
   1216   1217     1   0.10969 276646.080000
   1216   1218     1   0.10969 276646.080000
   1219   1220     1   0.10969 276646.080000
   1219   1221     1   0.10969 276646.080000
   1224   1225     1   0.09730 310787.520000
   1227   1228     1   0.10969 276646.080000
   1227   1229     1   0.10969 276646.080000
   1230   1231     1   0.10969 276646.080000
   1230   1232     1   0.10969 276646.080000
   1233   1234     1   0.10969 276646.080000
   1233   1235     1   0.10969 276646.080000
   1237   1238     1   0.10969 276646.080000
   1237   1239     1   0.10969 276646.080000
   1240   1241     1   0.10969 276646.080000
   1240   1242     1   0.10969 276646.080000
   1245   1246     1   0.09730 310787.520000
   1247   1248     1   0.10969 276646.080000
   1247   1249     1   0.10969 276646.080000
   1250   1251     1   0.10969 276646.080000
   1250   1252     1   0.10969 276646.080000
   1255   1256     1   0.09730 310787.520000
   1258   1259     1   0.10969 276646.080000
   1258   1260     1   0.10969 276646.080000
   1261   1262     1   0.10969 276646.080000
   1261   1263     1   0.10969 276646.080000
   1264   1265     1   0.10969 276646.080000
   1264   1266     1   0.10969 276646.080000
   1268   1269     1   0.10969 276646.080000
   1268   1270     1   0.10969 276646.080000
   1271   1272     1   0.10969 276646.080000
   1271   1273     1   0.10969 276646.080000
   1276   1277     1   0.09730 310787.520000
   1278   1279     1   0.10969 276646.080000
   1278   1280     1   0.10969 276646.080000
   1281   1282     1   0.10969 276646.080000
   1281   1283     1   0.10969 276646.080000
   1286   1287     1   0.09730 310787.520000
   1289   1290     1   0.10969 276646.080000
   1289   1291     1   0.10969 276646.080000
   1292   1293     1   0.10969 276646.080000
   1292   1294     1   0.10969 276646.080000
   1295   1296     1   0.10969 276646.080000
   1295   1297     1   0.10969 276646.080000
   1299   1300     1   0.10969 276646.080000
   1299   1301     1   0.10969 276646.080000
   1302   1303     1   0.10969 276646.080000
   1302   1304     1   0.10969 276646.080000
   1307   1308     1   0.09730 310787.520000
   1309   1310     1   0.10969 276646.080000
   1309   1311     1   0.10969 276646.080000
   1312   1313     1   0.10969 276646.080000
   1312   1314     1   0.10969 276646.080000
   1317   1318     1   0.09730 310787.520000
   1320   1321     1   0.10969 276646.080000
   1320   1322     1   0.10969 276646.080000
   1323   1324     1   0.10969 276646.080000
   1323   1325     1   0.10969 276646.080000
   1326   1327     1   0.10969 276646.080000
   1326   1328     1   0.10969 276646.080000
   1330   1331     1   0.10969 276646.080000
   1330   1332     1   0.10969 276646.080000
   1333   1334     1   0.10969 276646.080000
   1333   1335     1   0.10969 276646.080000
   1338   1339     1   0.09730 310787.520000
   1340   1341     1   0.10969 276646.080000
   1340   1342     1   0.10969 276646.080000
   1343   1344     1   0.10969 276646.080000
   1343   1345     1   0.10969 276646.080000
   1348   1349     1   0.09730 310787.520000
   1351   1352     1   0.10969 276646.080000
   1351   1353     1   0.10969 276646.080000
   1354   1355     1   0.10969 276646.080000
   1354   1356     1   0.10969 276646.080000
   1357   1358     1   0.10969 276646.080000
   1357   1359     1   0.10969 276646.080000
   1361   1362     1   0.10969 276646.080000
   1361   1363     1   0.10969 276646.080000
   1364   1365     1   0.10969 276646.080000
   1364   1366     1   0.10969 276646.080000
   1369   1370     1   0.09730 310787.520000
   1371   1372     1   0.10969 276646.080000
   1371   1373     1   0.10969 276646.080000
   1374   1375     1   0.10969 276646.080000
   1374   1376     1   0.10969 276646.080000
   1379   1380     1   0.09730 310787.520000

[ pairs ]
;    ai     aj funct         c0         c1         c2         c3
      1     26     1
      1     20     1
      1     23     1
      2     17     1
      2     11     1
      2    115     1
      5     14     1
      5     11     1
      5     57     1
      8     14     1
      8     17     1
      8     86     1
     11     77     1
     14    106     1
     17     48     1
     20     39     1
     23     68     1
     26     97     1
     29     54     1
     29     51     1
     29     48     1
     30     45     1
     30     39     1
     30    173     1
     33     42     1
     33     39     1
     33    144     1
     36     42     1
     36     45     1
     36     57     1
     42    164     1
     45    135     1
     51    126     1
     54    155     1
     58     83     1
     58     80     1
     58     77     1
     59     74     1
     59     68     1
     59    231     1
     62     71     1
     62     68     1
     62    202     1
     65     71     1
     65     74     1
     65     86     1
     71    222     1
     74    193     1
     80    184     1
     83    213     1
     87    112     1
     87    109     1
     87    106     1
     88    103     1
     88     97     1
     88    289     1
     91    100     1
     91     97     1
     91    260     1
     94    100     1
     94    103     1
     94    115     1
    100    280     1
    103    251     1
    109    242     1
    112    271     1
    116    141     1
    116    138     1
    116    135     1
    117    132     1
    117    126     1
    117    347     1
    120    129     1
    120    126     1
    120    318     1
    123    129     1
    123    132     1
    123    144     1
    129    338     1
    132    309     1
    138    300     1
    141    329     1
    145    170     1
    145    167     1
    145    164     1
    146    161     1
    146    155     1
    146    405     1
    149    158     1
    149    155     1
    149    376     1
    152    158     1
    152    161     1
    152    173     1
    158    396     1
    161    367     1
    167    358     1
    170    387     1
    174    199     1
    174    196     1
    174    193     1
    175    190     1
    175    184     1
    175    463     1
    178    187     1
    178    184     1
    178    434     1
    181    187     1
    181    190     1
    181    202     1
    187    454     1
    190    425     1
    196    416     1
    199    445     1
    203    228     1
    203    225     1
    203    222     1
    204    219     1
    204    213     1
    204    521     1
    207    216     1
    207    213     1
    207    492     1
    210    216     1
    210    219     1
    210    231     1
    216    512     1
    219    483     1
    225    474     1
    228    503     1
    232    257     1
    232    254     1
    232    251     1
    233    248     1
    233    242     1
    233    579     1
    236    245     1
    236    242     1
    236    550     1
    239    245     1
    239    248     1
    239    260     1
    245    570     1
    248    541     1
    254    532     1
    257    561     1
    261    286     1
    261    283     1
    261    280     1
    262    277     1
    262    271     1
    262    637     1
    265    274     1
    265    271     1
    265    608     1
    268    274     1
    268    277     1
    268    289     1
    274    628     1
    277    599     1
    283    590     1
    286    619     1
    290    315     1
    290    312     1
    290    309     1
    291    306     1
    291    300     1
    291    699     1
    294    303     1
    294    300     1
    294    668     1
    297    303     1
    297    306     1
    297    318     1
    303    669     1
    306    638     1
    312    641     1
    315    672     1
    319    344     1
    319    341     1
    319    338     1
    320    335     1
    320    329     1
    320    761     1
    323    332     1
    323    329     1
    323    730     1
    326    332     1
    326    335     1
    326    347     1
    332    731     1
    335    700     1
    341    703     1
    344    734     1
    348    373     1
    348    370     1
    348    367     1
    349    364     1
    349    358     1
    349    823     1
    352    361     1
    352    358     1
    352    792     1
    355    361     1
    355    364     1
    355    376     1
    361    793     1
    364    762     1
    370    765     1
    373    796     1
    377    402     1
    377    399     1
    377    396     1
    378    393     1
    378    387     1
    378    885     1
    381    390     1
    381    387     1
    381    854     1
    384    390     1
    384    393     1
    384    405     1
    390    855     1
    393    824     1
    399    827     1
    402    858     1
    406    431     1
    406    428     1
    406    425     1
    407    422     1
    407    416     1
    407    947     1
    410    419     1
    410    416     1
    410    916     1
    413    419     1
    413    422     1
    413    434     1
    419    917     1
    422    886     1
    428    889     1
    431    920     1
    435    460     1
    435    457     1
    435    454     1
    436    451     1
    436    445     1
    436   1009     1
    439    448     1
    439    445     1
    439    978     1
    442    448     1
    442    451     1
    442    463     1
    448    979     1
    451    948     1
    457    951     1
    460    982     1
    464    489     1
    464    486     1
    464    483     1
    465    480     1
    465    474     1
    465   1071     1
    468    477     1
    468    474     1
    468   1040     1
    471    477     1
    471    480     1
    471    492     1
    477   1041     1
    480   1010     1
    486   1013     1
    489   1044     1
    493    518     1
    493    515     1
    493    512     1
    494    509     1
    494    503     1
    494   1133     1
    497    506     1
    497    503     1
    497   1102     1
    500    506     1
    500    509     1
    500    521     1
    506   1103     1
    509   1072     1
    515   1075     1
    518   1106     1
    522    547     1
    522    544     1
    522    541     1
    523    538     1
    523    532     1
    523   1195     1
    526    535     1
    526    532     1
    526   1164     1
    529    535     1
    529    538     1
    529    550     1
    535   1165     1
    538   1134     1
    544   1137     1
    547   1168     1
    551    576     1
    551    573     1
    551    570     1
    552    567     1
    552    561     1
    552   1257     1
    555    564     1
    555    561     1
    555   1226     1
    558    564     1
    558    567     1
    558    579     1
    564   1227     1
    567   1196     1
    573   1199     1
    576   1230     1
    580    605     1
    580    602     1
    580    599     1
    581    596     1
    581    590     1
    581   1319     1
    584    593     1
    584    590     1
    584   1288     1
    587    593     1
    587    596     1
    587    608     1
    593   1289     1
    596   1258     1
    602   1261     1
    605   1292     1
    609    634     1
    609    631     1
    609    628     1
    610    625     1
    610    619     1
    610   1381     1
    613    622     1
    613    619     1
    613   1350     1
    616    622     1
    616    625     1
    616    637     1
    622   1351     1
    625   1320     1
    631   1323     1
    634   1354     1
    638    647     1
    641    648     1
    641    658     1
    644    668     1
    644    651     1
    644    661     1
    647    654     1
    647    664     1
    648    661     1
    648    655     1
    648    656     1
    651    658     1
    658    665     1
    658    666     1
    669    678     1
    672    679     1
    672    689     1
    675    682     1
    675    692     1
    675    699     1
    678    685     1
    678    695     1
    679    686     1
    679    687     1
    679    692     1
    682    689     1
    689    696     1
    689    697     1
    700    709     1
    703    710     1
    703    720     1
    706    730     1
    706    713     1
    706    723     1
    709    716     1
    709    726     1
    710    723     1
    710    717     1
    710    718     1
    713    720     1
    720    727     1
    720    728     1
    731    740     1
    734    741     1
    734    751     1
    737    744     1
    737    754     1
    737    761     1
    740    747     1
    740    757     1
    741    748     1
    741    749     1
    741    754     1
    744    751     1
    751    758     1
    751    759     1
    762    771     1
    765    772     1
    765    782     1
    768    792     1
    768    775     1
    768    785     1
    771    778     1
    771    788     1
    772    785     1
    772    779     1
    772    780     1
    775    782     1
    782    789     1
    782    790     1
    793    802     1
    796    803     1
    796    813     1
    799    806     1
    799    816     1
    799    823     1
    802    809     1
    802    819     1
    803    810     1
    803    811     1
    803    816     1
    806    813     1
    813    820     1
    813    821     1
    824    833     1
    827    834     1
    827    844     1
    830    854     1
    830    837     1
    830    847     1
    833    840     1
    833    850     1
    834    847     1
    834    841     1
    834    842     1
    837    844     1
    844    851     1
    844    852     1
    855    864     1
    858    865     1
    858    875     1
    861    868     1
    861    878     1
    861    885     1
    864    871     1
    864    881     1
    865    872     1
    865    873     1
    865    878     1
    868    875     1
    875    882     1
    875    883     1
    886    895     1
    889    896     1
    889    906     1
    892    916     1
    892    899     1
    892    909     1
    895    902     1
    895    912     1
    896    909     1
    896    903     1
    896    904     1
    899    906     1
    906    913     1
    906    914     1
    917    926     1
    920    927     1
    920    937     1
    923    930     1
    923    940     1
    923    947     1
    926    933     1
    926    943     1
    927    934     1
    927    935     1
    927    940     1
    930    937     1
    937    944     1
    937    945     1
    948    957     1
    951    958     1
    951    968     1
    954    978     1
    954    961     1
    954    971     1
    957    964     1
    957    974     1
    958    971     1
    958    965     1
    958    966     1
    961    968     1
    968    975     1
    968    976     1
    979    988     1
    982    989     1
    982    999     1
    985    992     1
    985   1002     1
    985   1009     1
    988    995     1
    988   1005     1
    989    996     1
    989    997     1
    989   1002     1
    992    999     1
    999   1006     1
    999   1007     1
   1010   1019     1
   1013   1020     1
   1013   1030     1
   1016   1040     1
   1016   1023     1
   1016   1033     1
   1019   1026     1
   1019   1036     1
   1020   1033     1
   1020   1027     1
   1020   1028     1
   1023   1030     1
   1030   1037     1
   1030   1038     1
   1041   1050     1
   1044   1051     1
   1044   1061     1
   1047   1054     1
   1047   1064     1
   1047   1071     1
   1050   1057     1
   1050   1067     1
   1051   1058     1
   1051   1059     1
   1051   1064     1
   1054   1061     1
   1061   1068     1
   1061   1069     1
   1072   1081     1
   1075   1082     1
   1075   1092     1
   1078   1102     1
   1078   1085     1
   1078   1095     1
   1081   1088     1
   1081   1098     1
   1082   1095     1
   1082   1089     1
   1082   1090     1
   1085   1092     1
   1092   1099     1
   1092   1100     1
   1103   1112     1
   1106   1113     1
   1106   1123     1
   1109   1116     1
   1109   1126     1
   1109   1133     1
   1112   1119     1
   1112   1129     1
   1113   1120     1
   1113   1121     1
   1113   1126     1
   1116   1123     1
   1123   1130     1
   1123   1131     1
   1134   1143     1
   1137   1144     1
   1137   1154     1
   1140   1164     1
   1140   1147     1
   1140   1157     1
   1143   1150     1
   1143   1160     1
   1144   1157     1
   1144   1151     1
   1144   1152     1
   1147   1154     1
   1154   1161     1
   1154   1162     1
   1165   1174     1
   1168   1175     1
   1168   1185     1
   1171   1178     1
   1171   1188     1
   1171   1195     1
   1174   1181     1
   1174   1191     1
   1175   1182     1
   1175   1183     1
   1175   1188     1
   1178   1185     1
   1185   1192     1
   1185   1193     1
   1196   1205     1
   1199   1206     1
   1199   1216     1
   1202   1226     1
   1202   1209     1
   1202   1219     1
   1205   1212     1
   1205   1222     1
   1206   1219     1
   1206   1213     1
   1206   1214     1
   1209   1216     1
   1216   1223     1
   1216   1224     1
   1227   1236     1
   1230   1237     1
   1230   1247     1
   1233   1240     1
   1233   1250     1
   1233   1257     1
   1236   1243     1
   1236   1253     1
   1237   1244     1
   1237   1245     1
   1237   1250     1
   1240   1247     1
   1247   1254     1
   1247   1255     1
   1258   1267     1
   1261   1268     1
   1261   1278     1
   1264   1288     1
   1264   1271     1
   1264   1281     1
   1267   1274     1
   1267   1284     1
   1268   1281     1
   1268   1275     1
   1268   1276     1
   1271   1278     1
   1278   1285     1
   1278   1286     1
   1289   1298     1
   1292   1299     1
   1292   1309     1
   1295   1302     1
   1295   1312     1
   1295   1319     1
   1298   1305     1
   1298   1315     1
   1299   1306     1
   1299   1307     1
   1299   1312     1
   1302   1309     1
   1309   1316     1
   1309   1317     1
   1320   1329     1
   1323   1330     1
   1323   1340     1
   1326   1350     1
   1326   1333     1
   1326   1343     1
   1329   1336     1
   1329   1346     1
   1330   1343     1
   1330   1337     1
   1330   1338     1
   1333   1340     1
   1340   1347     1
   1340   1348     1
   1351   1360     1
   1354   1361     1
   1354   1371     1
   1357   1364     1
   1357   1374     1
   1357   1381     1
   1360   1367     1
   1360   1377     1
   1361   1368     1
   1361   1369     1
   1361   1374     1
   1364   1371     1
   1371   1378     1
   1371   1379     1
      1     15     1
      1     16     1
      1     18     1
      1     19     1
      1     12     1
      1     13     1
      2      6     1
      2      7     1
      2      9     1
      2     10     1
      2     27     1
      2     28     1
      5      3     1
      8      3     1
      3     26     1
      3     15     1
      3     16     1
      5      4     1
      8      4     1
      4     26     1
      4     15     1
      4     16     1
      5      9     1
      5     10     1
      5     21     1
      5     22     1
      8      6     1
      6     20     1
      6     18     1
      6     19     1
      8      7     1
      7     20     1
      7     18     1
      7     19     1
      8     24     1
      8     25     1
      9     23     1
      9     12     1
      9     13     1
     10     23     1
     10     12     1
     10     13     1
     12     86     1
     12     24     1
     12     25     1
     13     86     1
     13     24     1
     13     25     1
     15    115     1
     15     27     1
     15     28     1
     16    115     1
     16     27     1
     16     28     1
     18     57     1
     18     21     1
     18     22     1
     19     57     1
     19     21     1
     19     22     1
     20     49     1
     20     50     1
     21     48     1
     22     48     1
     23     78     1
     23     79     1
     24     77     1
     25     77     1
     26    107     1
     26    108     1
     27    106     1
     28    106     1
     29     43     1
     29     44     1
     29     46     1
     29     47     1
     29     40     1
     29     41     1
     30     34     1
     30     35     1
     30     37     1
     30     38     1
     30     55     1
     30     56     1
     31     33     1
     31     36     1
     31     54     1
     31     43     1
     31     44     1
     32     33     1
     32     36     1
     32     54     1
     32     43     1
     32     44     1
     33     37     1
     33     38     1
     33     52     1
     33     53     1
     34     36     1
     34     51     1
     34     46     1
     34     47     1
     35     36     1
     35     51     1
     35     46     1
     35     47     1
     36     49     1
     36     50     1
     37     48     1
     37     40     1
     37     41     1
     38     48     1
     38     40     1
     38     41     1
     40     57     1
     40     49     1
     40     50     1
     41     57     1
     41     49     1
     41     50     1
     43    173     1
     43     55     1
     43     56     1
     44    173     1
     44     55     1
     44     56     1
     46    144     1
     46     52     1
     46     53     1
     47    144     1
     47     52     1
     47     53     1
     51    136     1
     51    137     1
     52    135     1
     53    135     1
     54    165     1
     54    166     1
     55    164     1
     56    164     1
     58     72     1
     58     73     1
     58     75     1
     58     76     1
     58     69     1
     58     70     1
     59     63     1
     59     64     1
     59     66     1
     59     67     1
     59     84     1
     59     85     1
     60     62     1
     60     65     1
     60     83     1
     60     72     1
     60     73     1
     61     62     1
     61     65     1
     61     83     1
     61     72     1
     61     73     1
     62     66     1
     62     67     1
     62     81     1
     62     82     1
     63     65     1
     63     80     1
     63     75     1
     63     76     1
     64     65     1
     64     80     1
     64     75     1
     64     76     1
     65     78     1
     65     79     1
     66     77     1
     66     69     1
     66     70     1
     67     77     1
     67     69     1
     67     70     1
     69     86     1
     69     78     1
     69     79     1
     70     86     1
     70     78     1
     70     79     1
     72    231     1
     72     84     1
     72     85     1
     73    231     1
     73     84     1
     73     85     1
     75    202     1
     75     81     1
     75     82     1
     76    202     1
     76     81     1
     76     82     1
     80    194     1
     80    195     1
     81    193     1
     82    193     1
     83    223     1
     83    224     1
     84    222     1
     85    222     1
     87    101     1
     87    102     1
     87    104     1
     87    105     1
     87     98     1
     87     99     1
     88     92     1
     88     93     1
     88     95     1
     88     96     1
     88    113     1
     88    114     1
     89     91     1
     89     94     1
     89    112     1
     89    101     1
     89    102     1
     90     91     1
     90     94     1
     90    112     1
     90    101     1
     90    102     1
     91     95     1
     91     96     1
     91    110     1
     91    111     1
     92     94     1
     92    109     1
     92    104     1
     92    105     1
     93     94     1
     93    109     1
     93    104     1
     93    105     1
     94    107     1
     94    108     1
     95    106     1
     95     98     1
     95     99     1
     96    106     1
     96     98     1
     96     99     1
     98    115     1
     98    107     1
     98    108     1
     99    115     1
     99    107     1
     99    108     1
    101    289     1
    101    113     1
    101    114     1
    102    289     1
    102    113     1
    102    114     1
    104    260     1
    104    110     1
    104    111     1
    105    260     1
    105    110     1
    105    111     1
    109    252     1
    109    253     1
    110    251     1
    111    251     1
    112    281     1
    112    282     1
    113    280     1
    114    280     1
    116    130     1
    116    131     1
    116    133     1
    116    134     1
    116    127     1
    116    128     1
    117    121     1
    117    122     1
    117    124     1
    117    125     1
    117    142     1
    117    143     1
    118    120     1
    118    123     1
    118    141     1
    118    130     1
    118    131     1
    119    120     1
    119    123     1
    119    141     1
    119    130     1
    119    131     1
    120    124     1
    120    125     1
    120    139     1
    120    140     1
    121    123     1
    121    138     1
    121    133     1
    121    134     1
    122    123     1
    122    138     1
    122    133     1
    122    134     1
    123    136     1
    123    137     1
    124    135     1
    124    127     1
    124    128     1
    125    135     1
    125    127     1
    125    128     1
    127    144     1
    127    136     1
    127    137     1
    128    144     1
    128    136     1
    128    137     1
    130    347     1
    130    142     1
    130    143     1
    131    347     1
    131    142     1
    131    143     1
    133    318     1
    133    139     1
    133    140     1
    134    318     1
    134    139     1
    134    140     1
    138    310     1
    138    311     1
    139    309     1
    140    309     1
    141    339     1
    141    340     1
    142    338     1
    143    338     1
    145    159     1
    145    160     1
    145    162     1
    145    163     1
    145    156     1
    145    157     1
    146    150     1
    146    151     1
    146    153     1
    146    154     1
    146    171     1
    146    172     1
    147    149     1
    147    152     1
    147    170     1
    147    159     1
    147    160     1
    148    149     1
    148    152     1
    148    170     1
    148    159     1
    148    160     1
    149    153     1
    149    154     1
    149    168     1
    149    169     1
    150    152     1
    150    167     1
    150    162     1
    150    163     1
    151    152     1
    151    167     1
    151    162     1
    151    163     1
    152    165     1
    152    166     1
    153    164     1
    153    156     1
    153    157     1
    154    164     1
    154    156     1
    154    157     1
    156    173     1
    156    165     1
    156    166     1
    157    173     1
    157    165     1
    157    166     1
    159    405     1
    159    171     1
    159    172     1
    160    405     1
    160    171     1
    160    172     1
    162    376     1
    162    168     1
    162    169     1
    163    376     1
    163    168     1
    163    169     1
    167    368     1
    167    369     1
    168    367     1
    169    367     1
    170    397     1
    170    398     1
    171    396     1
    172    396     1
    174    188     1
    174    189     1
    174    191     1
    174    192     1
    174    185     1
    174    186     1
    175    179     1
    175    180     1
    175    182     1
    175    183     1
    175    200     1
    175    201     1
    176    178     1
    176    181     1
    176    199     1
    176    188     1
    176    189     1
    177    178     1
    177    181     1
    177    199     1
    177    188     1
    177    189     1
    178    182     1
    178    183     1
    178    197     1
    178    198     1
    179    181     1
    179    196     1
    179    191     1
    179    192     1
    180    181     1
    180    196     1
    180    191     1
    180    192     1
    181    194     1
    181    195     1
    182    193     1
    182    185     1
    182    186     1
    183    193     1
    183    185     1
    183    186     1
    185    202     1
    185    194     1
    185    195     1
    186    202     1
    186    194     1
    186    195     1
    188    463     1
    188    200     1
    188    201     1
    189    463     1
    189    200     1
    189    201     1
    191    434     1
    191    197     1
    191    198     1
    192    434     1
    192    197     1
    192    198     1
    196    426     1
    196    427     1
    197    425     1
    198    425     1
    199    455     1
    199    456     1
    200    454     1
    201    454     1
    203    217     1
    203    218     1
    203    220     1
    203    221     1
    203    214     1
    203    215     1
    204    208     1
    204    209     1
    204    211     1
    204    212     1
    204    229     1
    204    230     1
    205    207     1
    205    210     1
    205    228     1
    205    217     1
    205    218     1
    206    207     1
    206    210     1
    206    228     1
    206    217     1
    206    218     1
    207    211     1
    207    212     1
    207    226     1
    207    227     1
    208    210     1
    208    225     1
    208    220     1
    208    221     1
    209    210     1
    209    225     1
    209    220     1
    209    221     1
    210    223     1
    210    224     1
    211    222     1
    211    214     1
    211    215     1
    212    222     1
    212    214     1
    212    215     1
    214    231     1
    214    223     1
    214    224     1
    215    231     1
    215    223     1
    215    224     1
    217    521     1
    217    229     1
    217    230     1
    218    521     1
    218    229     1
    218    230     1
    220    492     1
    220    226     1
    220    227     1
    221    492     1
    221    226     1
    221    227     1
    225    484     1
    225    485     1
    226    483     1
    227    483     1
    228    513     1
    228    514     1
    229    512     1
    230    512     1
    232    246     1
    232    247     1
    232    249     1
    232    250     1
    232    243     1
    232    244     1
    233    237     1
    233    238     1
    233    240     1
    233    241     1
    233    258     1
    233    259     1
    234    236     1
    234    239     1
    234    257     1
    234    246     1
    234    247     1
    235    236     1
    235    239     1
    235    257     1
    235    246     1
    235    247     1
    236    240     1
    236    241     1
    236    255     1
    236    256     1
    237    239     1
    237    254     1
    237    249     1
    237    250     1
    238    239     1
    238    254     1
    238    249     1
    238    250     1
    239    252     1
    239    253     1
    240    251     1
    240    243     1
    240    244     1
    241    251     1
    241    243     1
    241    244     1
    243    260     1
    243    252     1
    243    253     1
    244    260     1
    244    252     1
    244    253     1
    246    579     1
    246    258     1
    246    259     1
    247    579     1
    247    258     1
    247    259     1
    249    550     1
    249    255     1
    249    256     1
    250    550     1
    250    255     1
    250    256     1
    254    542     1
    254    543     1
    255    541     1
    256    541     1
    257    571     1
    257    572     1
    258    570     1
    259    570     1
    261    275     1
    261    276     1
    261    278     1
    261    279     1
    261    272     1
    261    273     1
    262    266     1
    262    267     1
    262    269     1
    262    270     1
    262    287     1
    262    288     1
    263    265     1
    263    268     1
    263    286     1
    263    275     1
    263    276     1
    264    265     1
    264    268     1
    264    286     1
    264    275     1
    264    276     1
    265    269     1
    265    270     1
    265    284     1
    265    285     1
    266    268     1
    266    283     1
    266    278     1
    266    279     1
    267    268     1
    267    283     1
    267    278     1
    267    279     1
    268    281     1
    268    282     1
    269    280     1
    269    272     1
    269    273     1
    270    280     1
    270    272     1
    270    273     1
    272    289     1
    272    281     1
    272    282     1
    273    289     1
    273    281     1
    273    282     1
    275    637     1
    275    287     1
    275    288     1
    276    637     1
    276    287     1
    276    288     1
    278    608     1
    278    284     1
    278    285     1
    279    608     1
    279    284     1
    279    285     1
    283    600     1
    283    601     1
    284    599     1
    285    599     1
    286    629     1
    286    630     1
    287    628     1
    288    628     1
    290    304     1
    290    305     1
    290    307     1
    290    308     1
    290    301     1
    290    302     1
    291    295     1
    291    296     1
    291    298     1
    291    299     1
    291    316     1
    291    317     1
    292    294     1
    292    297     1
    292    315     1
    292    304     1
    292    305     1
    293    294     1
    293    297     1
    293    315     1
    293    304     1
    293    305     1
    294    298     1
    294    299     1
    294    313     1
    294    314     1
    295    297     1
    295    312     1
    295    307     1
    295    308     1
    296    297     1
    296    312     1
    296    307     1
    296    308     1
    297    310     1
    297    311     1
    298    309     1
    298    301     1
    298    302     1
    299    309     1
    299    301     1
    299    302     1
    301    318     1
    301    310     1
    301    311     1
    302    318     1
    302    310     1
    302    311     1
    304    699     1
    304    316     1
    304    317     1
    305    699     1
    305    316     1
    305    317     1
    307    668     1
    307    313     1
    307    314     1
    308    668     1
    308    313     1
    308    314     1
    312    639     1
    312    640     1
    313    638     1
    314    638     1
    315    670     1
    315    671     1
    316    669     1
    317    669     1
    319    333     1
    319    334     1
    319    336     1
    319    337     1
    319    330     1
    319    331     1
    320    324     1
    320    325     1
    320    327     1
    320    328     1
    320    345     1
    320    346     1
    321    323     1
    321    326     1
    321    344     1
    321    333     1
    321    334     1
    322    323     1
    322    326     1
    322    344     1
    322    333     1
    322    334     1
    323    327     1
    323    328     1
    323    342     1
    323    343     1
    324    326     1
    324    341     1
    324    336     1
    324    337     1
    325    326     1
    325    341     1
    325    336     1
    325    337     1
    326    339     1
    326    340     1
    327    338     1
    327    330     1
    327    331     1
    328    338     1
    328    330     1
    328    331     1
    330    347     1
    330    339     1
    330    340     1
    331    347     1
    331    339     1
    331    340     1
    333    761     1
    333    345     1
    333    346     1
    334    761     1
    334    345     1
    334    346     1
    336    730     1
    336    342     1
    336    343     1
    337    730     1
    337    342     1
    337    343     1
    341    701     1
    341    702     1
    342    700     1
    343    700     1
    344    732     1
    344    733     1
    345    731     1
    346    731     1
    348    362     1
    348    363     1
    348    365     1
    348    366     1
    348    359     1
    348    360     1
    349    353     1
    349    354     1
    349    356     1
    349    357     1
    349    374     1
    349    375     1
    350    352     1
    350    355     1
    350    373     1
    350    362     1
    350    363     1
    351    352     1
    351    355     1
    351    373     1
    351    362     1
    351    363     1
    352    356     1
    352    357     1
    352    371     1
    352    372     1
    353    355     1
    353    370     1
    353    365     1
    353    366     1
    354    355     1
    354    370     1
    354    365     1
    354    366     1
    355    368     1
    355    369     1
    356    367     1
    356    359     1
    356    360     1
    357    367     1
    357    359     1
    357    360     1
    359    376     1
    359    368     1
    359    369     1
    360    376     1
    360    368     1
    360    369     1
    362    823     1
    362    374     1
    362    375     1
    363    823     1
    363    374     1
    363    375     1
    365    792     1
    365    371     1
    365    372     1
    366    792     1
    366    371     1
    366    372     1
    370    763     1
    370    764     1
    371    762     1
    372    762     1
    373    794     1
    373    795     1
    374    793     1
    375    793     1
    377    391     1
    377    392     1
    377    394     1
    377    395     1
    377    388     1
    377    389     1
    378    382     1
    378    383     1
    378    385     1
    378    386     1
    378    403     1
    378    404     1
    379    381     1
    379    384     1
    379    402     1
    379    391     1
    379    392     1
    380    381     1
    380    384     1
    380    402     1
    380    391     1
    380    392     1
    381    385     1
    381    386     1
    381    400     1
    381    401     1
    382    384     1
    382    399     1
    382    394     1
    382    395     1
    383    384     1
    383    399     1
    383    394     1
    383    395     1
    384    397     1
    384    398     1
    385    396     1
    385    388     1
    385    389     1
    386    396     1
    386    388     1
    386    389     1
    388    405     1
    388    397     1
    388    398     1
    389    405     1
    389    397     1
    389    398     1
    391    885     1
    391    403     1
    391    404     1
    392    885     1
    392    403     1
    392    404     1
    394    854     1
    394    400     1
    394    401     1
    395    854     1
    395    400     1
    395    401     1
    399    825     1
    399    826     1
    400    824     1
    401    824     1
    402    856     1
    402    857     1
    403    855     1
    404    855     1
    406    420     1
    406    421     1
    406    423     1
    406    424     1
    406    417     1
    406    418     1
    407    411     1
    407    412     1
    407    414     1
    407    415     1
    407    432     1
    407    433     1
    408    410     1
    408    413     1
    408    431     1
    408    420     1
    408    421     1
    409    410     1
    409    413     1
    409    431     1
    409    420     1
    409    421     1
    410    414     1
    410    415     1
    410    429     1
    410    430     1
    411    413     1
    411    428     1
    411    423     1
    411    424     1
    412    413     1
    412    428     1
    412    423     1
    412    424     1
    413    426     1
    413    427     1
    414    425     1
    414    417     1
    414    418     1
    415    425     1
    415    417     1
    415    418     1
    417    434     1
    417    426     1
    417    427     1
    418    434     1
    418    426     1
    418    427     1
    420    947     1
    420    432     1
    420    433     1
    421    947     1
    421    432     1
    421    433     1
    423    916     1
    423    429     1
    423    430     1
    424    916     1
    424    429     1
    424    430     1
    428    887     1
    428    888     1
    429    886     1
    430    886     1
    431    918     1
    431    919     1
    432    917     1
    433    917     1
    435    449     1
    435    450     1
    435    452     1
    435    453     1
    435    446     1
    435    447     1
    436    440     1
    436    441     1
    436    443     1
    436    444     1
    436    461     1
    436    462     1
    437    439     1
    437    442     1
    437    460     1
    437    449     1
    437    450     1
    438    439     1
    438    442     1
    438    460     1
    438    449     1
    438    450     1
    439    443     1
    439    444     1
    439    458     1
    439    459     1
    440    442     1
    440    457     1
    440    452     1
    440    453     1
    441    442     1
    441    457     1
    441    452     1
    441    453     1
    442    455     1
    442    456     1
    443    454     1
    443    446     1
    443    447     1
    444    454     1
    444    446     1
    444    447     1
    446    463     1
    446    455     1
    446    456     1
    447    463     1
    447    455     1
    447    456     1
    449   1009     1
    449    461     1
    449    462     1
    450   1009     1
    450    461     1
    450    462     1
    452    978     1
    452    458     1
    452    459     1
    453    978     1
    453    458     1
    453    459     1
    457    949     1
    457    950     1
    458    948     1
    459    948     1
    460    980     1
    460    981     1
    461    979     1
    462    979     1
    464    478     1
    464    479     1
    464    481     1
    464    482     1
    464    475     1
    464    476     1
    465    469     1
    465    470     1
    465    472     1
    465    473     1
    465    490     1
    465    491     1
    466    468     1
    466    471     1
    466    489     1
    466    478     1
    466    479     1
    467    468     1
    467    471     1
    467    489     1
    467    478     1
    467    479     1
    468    472     1
    468    473     1
    468    487     1
    468    488     1
    469    471     1
    469    486     1
    469    481     1
    469    482     1
    470    471     1
    470    486     1
    470    481     1
    470    482     1
    471    484     1
    471    485     1
    472    483     1
    472    475     1
    472    476     1
    473    483     1
    473    475     1
    473    476     1
    475    492     1
    475    484     1
    475    485     1
    476    492     1
    476    484     1
    476    485     1
    478   1071     1
    478    490     1
    478    491     1
    479   1071     1
    479    490     1
    479    491     1
    481   1040     1
    481    487     1
    481    488     1
    482   1040     1
    482    487     1
    482    488     1
    486   1011     1
    486   1012     1
    487   1010     1
    488   1010     1
    489   1042     1
    489   1043     1
    490   1041     1
    491   1041     1
    493    507     1
    493    508     1
    493    510     1
    493    511     1
    493    504     1
    493    505     1
    494    498     1
    494    499     1
    494    501     1
    494    502     1
    494    519     1
    494    520     1
    495    497     1
    495    500     1
    495    518     1
    495    507     1
    495    508     1
    496    497     1
    496    500     1
    496    518     1
    496    507     1
    496    508     1
    497    501     1
    497    502     1
    497    516     1
    497    517     1
    498    500     1
    498    515     1
    498    510     1
    498    511     1
    499    500     1
    499    515     1
    499    510     1
    499    511     1
    500    513     1
    500    514     1
    501    512     1
    501    504     1
    501    505     1
    502    512     1
    502    504     1
    502    505     1
    504    521     1
    504    513     1
    504    514     1
    505    521     1
    505    513     1
    505    514     1
    507   1133     1
    507    519     1
    507    520     1
    508   1133     1
    508    519     1
    508    520     1
    510   1102     1
    510    516     1
    510    517     1
    511   1102     1
    511    516     1
    511    517     1
    515   1073     1
    515   1074     1
    516   1072     1
    517   1072     1
    518   1104     1
    518   1105     1
    519   1103     1
    520   1103     1
    522    536     1
    522    537     1
    522    539     1
    522    540     1
    522    533     1
    522    534     1
    523    527     1
    523    528     1
    523    530     1
    523    531     1
    523    548     1
    523    549     1
    524    526     1
    524    529     1
    524    547     1
    524    536     1
    524    537     1
    525    526     1
    525    529     1
    525    547     1
    525    536     1
    525    537     1
    526    530     1
    526    531     1
    526    545     1
    526    546     1
    527    529     1
    527    544     1
    527    539     1
    527    540     1
    528    529     1
    528    544     1
    528    539     1
    528    540     1
    529    542     1
    529    543     1
    530    541     1
    530    533     1
    530    534     1
    531    541     1
    531    533     1
    531    534     1
    533    550     1
    533    542     1
    533    543     1
    534    550     1
    534    542     1
    534    543     1
    536   1195     1
    536    548     1
    536    549     1
    537   1195     1
    537    548     1
    537    549     1
    539   1164     1
    539    545     1
    539    546     1
    540   1164     1
    540    545     1
    540    546     1
    544   1135     1
    544   1136     1
    545   1134     1
    546   1134     1
    547   1166     1
    547   1167     1
    548   1165     1
    549   1165     1
    551    565     1
    551    566     1
    551    568     1
    551    569     1
    551    562     1
    551    563     1
    552    556     1
    552    557     1
    552    559     1
    552    560     1
    552    577     1
    552    578     1
    553    555     1
    553    558     1
    553    576     1
    553    565     1
    553    566     1
    554    555     1
    554    558     1
    554    576     1
    554    565     1
    554    566     1
    555    559     1
    555    560     1
    555    574     1
    555    575     1
    556    558     1
    556    573     1
    556    568     1
    556    569     1
    557    558     1
    557    573     1
    557    568     1
    557    569     1
    558    571     1
    558    572     1
    559    570     1
    559    562     1
    559    563     1
    560    570     1
    560    562     1
    560    563     1
    562    579     1
    562    571     1
    562    572     1
    563    579     1
    563    571     1
    563    572     1
    565   1257     1
    565    577     1
    565    578     1
    566   1257     1
    566    577     1
    566    578     1
    568   1226     1
    568    574     1
    568    575     1
    569   1226     1
    569    574     1
    569    575     1
    573   1197     1
    573   1198     1
    574   1196     1
    575   1196     1
    576   1228     1
    576   1229     1
    577   1227     1
    578   1227     1
    580    594     1
    580    595     1
    580    597     1
    580    598     1
    580    591     1
    580    592     1
    581    585     1
    581    586     1
    581    588     1
    581    589     1
    581    606     1
    581    607     1
    582    584     1
    582    587     1
    582    605     1
    582    594     1
    582    595     1
    583    584     1
    583    587     1
    583    605     1
    583    594     1
    583    595     1
    584    588     1
    584    589     1
    584    603     1
    584    604     1
    585    587     1
    585    602     1
    585    597     1
    585    598     1
    586    587     1
    586    602     1
    586    597     1
    586    598     1
    587    600     1
    587    601     1
    588    599     1
    588    591     1
    588    592     1
    589    599     1
    589    591     1
    589    592     1
    591    608     1
    591    600     1
    591    601     1
    592    608     1
    592    600     1
    592    601     1
    594   1319     1
    594    606     1
    594    607     1
    595   1319     1
    595    606     1
    595    607     1
    597   1288     1
    597    603     1
    597    604     1
    598   1288     1
    598    603     1
    598    604     1
    602   1259     1
    602   1260     1
    603   1258     1
    604   1258     1
    605   1290     1
    605   1291     1
    606   1289     1
    607   1289     1
    609    623     1
    609    624     1
    609    626     1
    609    627     1
    609    620     1
    609    621     1
    610    614     1
    610    615     1
    610    617     1
    610    618     1
    610    635     1
    610    636     1
    611    613     1
    611    616     1
    611    634     1
    611    623     1
    611    624     1
    612    613     1
    612    616     1
    612    634     1
    612    623     1
    612    624     1
    613    617     1
    613    618     1
    613    632     1
    613    633     1
    614    616     1
    614    631     1
    614    626     1
    614    627     1
    615    616     1
    615    631     1
    615    626     1
    615    627     1
    616    629     1
    616    630     1
    617    628     1
    617    620     1
    617    621     1
    618    628     1
    618    620     1
    618    621     1
    620    637     1
    620    629     1
    620    630     1
    621    637     1
    621    629     1
    621    630     1
    623   1381     1
    623    635     1
    623    636     1
    624   1381     1
    624    635     1
    624    636     1
    626   1350     1
    626    632     1
    626    633     1
    627   1350     1
    627    632     1
    627    633     1
    631   1321     1
    631   1322     1
    632   1320     1
    633   1320     1
    634   1352     1
    634   1353     1
    635   1351     1
    636   1351     1
    638    645     1
    638    646     1
    639    644     1
    639    642     1
    639    643     1
    640    644     1
    640    642     1
    640    643     1
    642    668     1
    642    647     1
    642    645     1
    642    646     1
    643    668     1
    643    647     1
    643    645     1
    643    646     1
    644    649     1
    644    650     1
    644    659     1
    644    660     1
    645    648     1
    645    658     1
    646    648     1
    646    658     1
    647    652     1
    647    653     1
    647    662     1
    647    663     1
    648    659     1
    648    660     1
    649    658     1
    649    654     1
    649    652     1
    649    653     1
    650    658     1
    650    654     1
    650    652     1
    650    653     1
    651    657     1
    652    655     1
    652    656     1
    653    655     1
    653    656     1
    655    657     1
    659    664     1
    659    662     1
    659    663     1
    660    664     1
    660    662     1
    660    663     1
    661    667     1
    662    665     1
    662    666     1
    663    665     1
    663    666     1
    665    667     1
    669    676     1
    669    677     1
    670    675     1
    670    673     1
    670    674     1
    671    675     1
    671    673     1
    671    674     1
    673    678     1
    673    676     1
    673    677     1
    673    699     1
    674    678     1
    674    676     1
    674    677     1
    674    699     1
    675    680     1
    675    681     1
    675    690     1
    675    691     1
    676    679     1
    676    689     1
    677    679     1
    677    689     1
    678    683     1
    678    684     1
    678    693     1
    678    694     1
    679    690     1
    679    691     1
    680    685     1
    680    683     1
    680    684     1
    680    689     1
    681    685     1
    681    683     1
    681    684     1
    681    689     1
    682    688     1
    683    686     1
    683    687     1
    684    686     1
    684    687     1
    686    688     1
    690    695     1
    690    693     1
    690    694     1
    691    695     1
    691    693     1
    691    694     1
    692    698     1
    693    696     1
    693    697     1
    694    696     1
    694    697     1
    696    698     1
    700    707     1
    700    708     1
    701    706     1
    701    704     1
    701    705     1
    702    706     1
    702    704     1
    702    705     1
    704    730     1
    704    709     1
    704    707     1
    704    708     1
    705    730     1
    705    709     1
    705    707     1
    705    708     1
    706    711     1
    706    712     1
    706    721     1
    706    722     1
    707    710     1
    707    720     1
    708    710     1
    708    720     1
    709    714     1
    709    715     1
    709    724     1
    709    725     1
    710    721     1
    710    722     1
    711    720     1
    711    716     1
    711    714     1
    711    715     1
    712    720     1
    712    716     1
    712    714     1
    712    715     1
    713    719     1
    714    717     1
    714    718     1
    715    717     1
    715    718     1
    717    719     1
    721    726     1
    721    724     1
    721    725     1
    722    726     1
    722    724     1
    722    725     1
    723    729     1
    724    727     1
    724    728     1
    725    727     1
    725    728     1
    727    729     1
    731    738     1
    731    739     1
    732    737     1
    732    735     1
    732    736     1
    733    737     1
    733    735     1
    733    736     1
    735    740     1
    735    738     1
    735    739     1
    735    761     1
    736    740     1
    736    738     1
    736    739     1
    736    761     1
    737    742     1
    737    743     1
    737    752     1
    737    753     1
    738    741     1
    738    751     1
    739    741     1
    739    751     1
    740    745     1
    740    746     1
    740    755     1
    740    756     1
    741    752     1
    741    753     1
    742    747     1
    742    745     1
    742    746     1
    742    751     1
    743    747     1
    743    745     1
    743    746     1
    743    751     1
    744    750     1
    745    748     1
    745    749     1
    746    748     1
    746    749     1
    748    750     1
    752    757     1
    752    755     1
    752    756     1
    753    757     1
    753    755     1
    753    756     1
    754    760     1
    755    758     1
    755    759     1
    756    758     1
    756    759     1
    758    760     1
    762    769     1
    762    770     1
    763    768     1
    763    766     1
    763    767     1
    764    768     1
    764    766     1
    764    767     1
    766    792     1
    766    771     1
    766    769     1
    766    770     1
    767    792     1
    767    771     1
    767    769     1
    767    770     1
    768    773     1
    768    774     1
    768    783     1
    768    784     1
    769    772     1
    769    782     1
    770    772     1
    770    782     1
    771    776     1
    771    777     1
    771    786     1
    771    787     1
    772    783     1
    772    784     1
    773    782     1
    773    778     1
    773    776     1
    773    777     1
    774    782     1
    774    778     1
    774    776     1
    774    777     1
    775    781     1
    776    779     1
    776    780     1
    777    779     1
    777    780     1
    779    781     1
    783    788     1
    783    786     1
    783    787     1
    784    788     1
    784    786     1
    784    787     1
    785    791     1
    786    789     1
    786    790     1
    787    789     1
    787    790     1
    789    791     1
    793    800     1
    793    801     1
    794    799     1
    794    797     1
    794    798     1
    795    799     1
    795    797     1
    795    798     1
    797    802     1
    797    800     1
    797    801     1
    797    823     1
    798    802     1
    798    800     1
    798    801     1
    798    823     1
    799    804     1
    799    805     1
    799    814     1
    799    815     1
    800    803     1
    800    813     1
    801    803     1
    801    813     1
    802    807     1
    802    808     1
    802    817     1
    802    818     1
    803    814     1
    803    815     1
    804    809     1
    804    807     1
    804    808     1
    804    813     1
    805    809     1
    805    807     1
    805    808     1
    805    813     1
    806    812     1
    807    810     1
    807    811     1
    808    810     1
    808    811     1
    810    812     1
    814    819     1
    814    817     1
    814    818     1
    815    819     1
    815    817     1
    815    818     1
    816    822     1
    817    820     1
    817    821     1
    818    820     1
    818    821     1
    820    822     1
    824    831     1
    824    832     1
    825    830     1
    825    828     1
    825    829     1
    826    830     1
    826    828     1
    826    829     1
    828    854     1
    828    833     1
    828    831     1
    828    832     1
    829    854     1
    829    833     1
    829    831     1
    829    832     1
    830    835     1
    830    836     1
    830    845     1
    830    846     1
    831    834     1
    831    844     1
    832    834     1
    832    844     1
    833    838     1
    833    839     1
    833    848     1
    833    849     1
    834    845     1
    834    846     1
    835    844     1
    835    840     1
    835    838     1
    835    839     1
    836    844     1
    836    840     1
    836    838     1
    836    839     1
    837    843     1
    838    841     1
    838    842     1
    839    841     1
    839    842     1
    841    843     1
    845    850     1
    845    848     1
    845    849     1
    846    850     1
    846    848     1
    846    849     1
    847    853     1
    848    851     1
    848    852     1
    849    851     1
    849    852     1
    851    853     1
    855    862     1
    855    863     1
    856    861     1
    856    859     1
    856    860     1
    857    861     1
    857    859     1
    857    860     1
    859    864     1
    859    862     1
    859    863     1
    859    885     1
    860    864     1
    860    862     1
    860    863     1
    860    885     1
    861    866     1
    861    867     1
    861    876     1
    861    877     1
    862    865     1
    862    875     1
    863    865     1
    863    875     1
    864    869     1
    864    870     1
    864    879     1
    864    880     1
    865    876     1
    865    877     1
    866    871     1
    866    869     1
    866    870     1
    866    875     1
    867    871     1
    867    869     1
    867    870     1
    867    875     1
    868    874     1
    869    872     1
    869    873     1
    870    872     1
    870    873     1
    872    874     1
    876    881     1
    876    879     1
    876    880     1
    877    881     1
    877    879     1
    877    880     1
    878    884     1
    879    882     1
    879    883     1
    880    882     1
    880    883     1
    882    884     1
    886    893     1
    886    894     1
    887    892     1
    887    890     1
    887    891     1
    888    892     1
    888    890     1
    888    891     1
    890    916     1
    890    895     1
    890    893     1
    890    894     1
    891    916     1
    891    895     1
    891    893     1
    891    894     1
    892    897     1
    892    898     1
    892    907     1
    892    908     1
    893    896     1
    893    906     1
    894    896     1
    894    906     1
    895    900     1
    895    901     1
    895    910     1
    895    911     1
    896    907     1
    896    908     1
    897    906     1
    897    902     1
    897    900     1
    897    901     1
    898    906     1
    898    902     1
    898    900     1
    898    901     1
    899    905     1
    900    903     1
    900    904     1
    901    903     1
    901    904     1
    903    905     1
    907    912     1
    907    910     1
    907    911     1
    908    912     1
    908    910     1
    908    911     1
    909    915     1
    910    913     1
    910    914     1
    911    913     1
    911    914     1
    913    915     1
    917    924     1
    917    925     1
    918    923     1
    918    921     1
    918    922     1
    919    923     1
    919    921     1
    919    922     1
    921    926     1
    921    924     1
    921    925     1
    921    947     1
    922    926     1
    922    924     1
    922    925     1
    922    947     1
    923    928     1
    923    929     1
    923    938     1
    923    939     1
    924    927     1
    924    937     1
    925    927     1
    925    937     1
    926    931     1
    926    932     1
    926    941     1
    926    942     1
    927    938     1
    927    939     1
    928    933     1
    928    931     1
    928    932     1
    928    937     1
    929    933     1
    929    931     1
    929    932     1
    929    937     1
    930    936     1
    931    934     1
    931    935     1
    932    934     1
    932    935     1
    934    936     1
    938    943     1
    938    941     1
    938    942     1
    939    943     1
    939    941     1
    939    942     1
    940    946     1
    941    944     1
    941    945     1
    942    944     1
    942    945     1
    944    946     1
    948    955     1
    948    956     1
    949    954     1
    949    952     1
    949    953     1
    950    954     1
    950    952     1
    950    953     1
    952    978     1
    952    957     1
    952    955     1
    952    956     1
    953    978     1
    953    957     1
    953    955     1
    953    956     1
    954    959     1
    954    960     1
    954    969     1
    954    970     1
    955    958     1
    955    968     1
    956    958     1
    956    968     1
    957    962     1
    957    963     1
    957    972     1
    957    973     1
    958    969     1
    958    970     1
    959    968     1
    959    964     1
    959    962     1
    959    963     1
    960    968     1
    960    964     1
    960    962     1
    960    963     1
    961    967     1
    962    965     1
    962    966     1
    963    965     1
    963    966     1
    965    967     1
    969    974     1
    969    972     1
    969    973     1
    970    974     1
    970    972     1
    970    973     1
    971    977     1
    972    975     1
    972    976     1
    973    975     1
    973    976     1
    975    977     1
    979    986     1
    979    987     1
    980    985     1
    980    983     1
    980    984     1
    981    985     1
    981    983     1
    981    984     1
    983    988     1
    983    986     1
    983    987     1
    983   1009     1
    984    988     1
    984    986     1
    984    987     1
    984   1009     1
    985    990     1
    985    991     1
    985   1000     1
    985   1001     1
    986    989     1
    986    999     1
    987    989     1
    987    999     1
    988    993     1
    988    994     1
    988   1003     1
    988   1004     1
    989   1000     1
    989   1001     1
    990    995     1
    990    993     1
    990    994     1
    990    999     1
    991    995     1
    991    993     1
    991    994     1
    991    999     1
    992    998     1
    993    996     1
    993    997     1
    994    996     1
    994    997     1
    996    998     1
   1000   1005     1
   1000   1003     1
   1000   1004     1
   1001   1005     1
   1001   1003     1
   1001   1004     1
   1002   1008     1
   1003   1006     1
   1003   1007     1
   1004   1006     1
   1004   1007     1
   1006   1008     1
   1010   1017     1
   1010   1018     1
   1011   1016     1
   1011   1014     1
   1011   1015     1
   1012   1016     1
   1012   1014     1
   1012   1015     1
   1014   1040     1
   1014   1019     1
   1014   1017     1
   1014   1018     1
   1015   1040     1
   1015   1019     1
   1015   1017     1
   1015   1018     1
   1016   1021     1
   1016   1022     1
   1016   1031     1
   1016   1032     1
   1017   1020     1
   1017   1030     1
   1018   1020     1
   1018   1030     1
   1019   1024     1
   1019   1025     1
   1019   1034     1
   1019   1035     1
   1020   1031     1
   1020   1032     1
   1021   1030     1
   1021   1026     1
   1021   1024     1
   1021   1025     1
   1022   1030     1
   1022   1026     1
   1022   1024     1
   1022   1025     1
   1023   1029     1
   1024   1027     1
   1024   1028     1
   1025   1027     1
   1025   1028     1
   1027   1029     1
   1031   1036     1
   1031   1034     1
   1031   1035     1
   1032   1036     1
   1032   1034     1
   1032   1035     1
   1033   1039     1
   1034   1037     1
   1034   1038     1
   1035   1037     1
   1035   1038     1
   1037   1039     1
   1041   1048     1
   1041   1049     1
   1042   1047     1
   1042   1045     1
   1042   1046     1
   1043   1047     1
   1043   1045     1
   1043   1046     1
   1045   1050     1
   1045   1048     1
   1045   1049     1
   1045   1071     1
   1046   1050     1
   1046   1048     1
   1046   1049     1
   1046   1071     1
   1047   1052     1
   1047   1053     1
   1047   1062     1
   1047   1063     1
   1048   1051     1
   1048   1061     1
   1049   1051     1
   1049   1061     1
   1050   1055     1
   1050   1056     1
   1050   1065     1
   1050   1066     1
   1051   1062     1
   1051   1063     1
   1052   1057     1
   1052   1055     1
   1052   1056     1
   1052   1061     1
   1053   1057     1
   1053   1055     1
   1053   1056     1
   1053   1061     1
   1054   1060     1
   1055   1058     1
   1055   1059     1
   1056   1058     1
   1056   1059     1
   1058   1060     1
   1062   1067     1
   1062   1065     1
   1062   1066     1
   1063   1067     1
   1063   1065     1
   1063   1066     1
   1064   1070     1
   1065   1068     1
   1065   1069     1
   1066   1068     1
   1066   1069     1
   1068   1070     1
   1072   1079     1
   1072   1080     1
   1073   1078     1
   1073   1076     1
   1073   1077     1
   1074   1078     1
   1074   1076     1
   1074   1077     1
   1076   1102     1
   1076   1081     1
   1076   1079     1
   1076   1080     1
   1077   1102     1
   1077   1081     1
   1077   1079     1
   1077   1080     1
   1078   1083     1
   1078   1084     1
   1078   1093     1
   1078   1094     1
   1079   1082     1
   1079   1092     1
   1080   1082     1
   1080   1092     1
   1081   1086     1
   1081   1087     1
   1081   1096     1
   1081   1097     1
   1082   1093     1
   1082   1094     1
   1083   1092     1
   1083   1088     1
   1083   1086     1
   1083   1087     1
   1084   1092     1
   1084   1088     1
   1084   1086     1
   1084   1087     1
   1085   1091     1
   1086   1089     1
   1086   1090     1
   1087   1089     1
   1087   1090     1
   1089   1091     1
   1093   1098     1
   1093   1096     1
   1093   1097     1
   1094   1098     1
   1094   1096     1
   1094   1097     1
   1095   1101     1
   1096   1099     1
   1096   1100     1
   1097   1099     1
   1097   1100     1
   1099   1101     1
   1103   1110     1
   1103   1111     1
   1104   1109     1
   1104   1107     1
   1104   1108     1
   1105   1109     1
   1105   1107     1
   1105   1108     1
   1107   1112     1
   1107   1110     1
   1107   1111     1
   1107   1133     1
   1108   1112     1
   1108   1110     1
   1108   1111     1
   1108   1133     1
   1109   1114     1
   1109   1115     1
   1109   1124     1
   1109   1125     1
   1110   1113     1
   1110   1123     1
   1111   1113     1
   1111   1123     1
   1112   1117     1
   1112   1118     1
   1112   1127     1
   1112   1128     1
   1113   1124     1
   1113   1125     1
   1114   1119     1
   1114   1117     1
   1114   1118     1
   1114   1123     1
   1115   1119     1
   1115   1117     1
   1115   1118     1
   1115   1123     1
   1116   1122     1
   1117   1120     1
   1117   1121     1
   1118   1120     1
   1118   1121     1
   1120   1122     1
   1124   1129     1
   1124   1127     1
   1124   1128     1
   1125   1129     1
   1125   1127     1
   1125   1128     1
   1126   1132     1
   1127   1130     1
   1127   1131     1
   1128   1130     1
   1128   1131     1
   1130   1132     1
   1134   1141     1
   1134   1142     1
   1135   1140     1
   1135   1138     1
   1135   1139     1
   1136   1140     1
   1136   1138     1
   1136   1139     1
   1138   1164     1
   1138   1143     1
   1138   1141     1
   1138   1142     1
   1139   1164     1
   1139   1143     1
   1139   1141     1
   1139   1142     1
   1140   1145     1
   1140   1146     1
   1140   1155     1
   1140   1156     1
   1141   1144     1
   1141   1154     1
   1142   1144     1
   1142   1154     1
   1143   1148     1
   1143   1149     1
   1143   1158     1
   1143   1159     1
   1144   1155     1
   1144   1156     1
   1145   1154     1
   1145   1150     1
   1145   1148     1
   1145   1149     1
   1146   1154     1
   1146   1150     1
   1146   1148     1
   1146   1149     1
   1147   1153     1
   1148   1151     1
   1148   1152     1
   1149   1151     1
   1149   1152     1
   1151   1153     1
   1155   1160     1
   1155   1158     1
   1155   1159     1
   1156   1160     1
   1156   1158     1
   1156   1159     1
   1157   1163     1
   1158   1161     1
   1158   1162     1
   1159   1161     1
   1159   1162     1
   1161   1163     1
   1165   1172     1
   1165   1173     1
   1166   1171     1
   1166   1169     1
   1166   1170     1
   1167   1171     1
   1167   1169     1
   1167   1170     1
   1169   1174     1
   1169   1172     1
   1169   1173     1
   1169   1195     1
   1170   1174     1
   1170   1172     1
   1170   1173     1
   1170   1195     1
   1171   1176     1
   1171   1177     1
   1171   1186     1
   1171   1187     1
   1172   1175     1
   1172   1185     1
   1173   1175     1
   1173   1185     1
   1174   1179     1
   1174   1180     1
   1174   1189     1
   1174   1190     1
   1175   1186     1
   1175   1187     1
   1176   1181     1
   1176   1179     1
   1176   1180     1
   1176   1185     1
   1177   1181     1
   1177   1179     1
   1177   1180     1
   1177   1185     1
   1178   1184     1
   1179   1182     1
   1179   1183     1
   1180   1182     1
   1180   1183     1
   1182   1184     1
   1186   1191     1
   1186   1189     1
   1186   1190     1
   1187   1191     1
   1187   1189     1
   1187   1190     1
   1188   1194     1
   1189   1192     1
   1189   1193     1
   1190   1192     1
   1190   1193     1
   1192   1194     1
   1196   1203     1
   1196   1204     1
   1197   1202     1
   1197   1200     1
   1197   1201     1
   1198   1202     1
   1198   1200     1
   1198   1201     1
   1200   1226     1
   1200   1205     1
   1200   1203     1
   1200   1204     1
   1201   1226     1
   1201   1205     1
   1201   1203     1
   1201   1204     1
   1202   1207     1
   1202   1208     1
   1202   1217     1
   1202   1218     1
   1203   1206     1
   1203   1216     1
   1204   1206     1
   1204   1216     1
   1205   1210     1
   1205   1211     1
   1205   1220     1
   1205   1221     1
   1206   1217     1
   1206   1218     1
   1207   1216     1
   1207   1212     1
   1207   1210     1
   1207   1211     1
   1208   1216     1
   1208   1212     1
   1208   1210     1
   1208   1211     1
   1209   1215     1
   1210   1213     1
   1210   1214     1
   1211   1213     1
   1211   1214     1
   1213   1215     1
   1217   1222     1
   1217   1220     1
   1217   1221     1
   1218   1222     1
   1218   1220     1
   1218   1221     1
   1219   1225     1
   1220   1223     1
   1220   1224     1
   1221   1223     1
   1221   1224     1
   1223   1225     1
   1227   1234     1
   1227   1235     1
   1228   1233     1
   1228   1231     1
   1228   1232     1
   1229   1233     1
   1229   1231     1
   1229   1232     1
   1231   1236     1
   1231   1234     1
   1231   1235     1
   1231   1257     1
   1232   1236     1
   1232   1234     1
   1232   1235     1
   1232   1257     1
   1233   1238     1
   1233   1239     1
   1233   1248     1
   1233   1249     1
   1234   1237     1
   1234   1247     1
   1235   1237     1
   1235   1247     1
   1236   1241     1
   1236   1242     1
   1236   1251     1
   1236   1252     1
   1237   1248     1
   1237   1249     1
   1238   1243     1
   1238   1241     1
   1238   1242     1
   1238   1247     1
   1239   1243     1
   1239   1241     1
   1239   1242     1
   1239   1247     1
   1240   1246     1
   1241   1244     1
   1241   1245     1
   1242   1244     1
   1242   1245     1
   1244   1246     1
   1248   1253     1
   1248   1251     1
   1248   1252     1
   1249   1253     1
   1249   1251     1
   1249   1252     1
   1250   1256     1
   1251   1254     1
   1251   1255     1
   1252   1254     1
   1252   1255     1
   1254   1256     1
   1258   1265     1
   1258   1266     1
   1259   1264     1
   1259   1262     1
   1259   1263     1
   1260   1264     1
   1260   1262     1
   1260   1263     1
   1262   1288     1
   1262   1267     1
   1262   1265     1
   1262   1266     1
   1263   1288     1
   1263   1267     1
   1263   1265     1
   1263   1266     1
   1264   1269     1
   1264   1270     1
   1264   1279     1
   1264   1280     1
   1265   1268     1
   1265   1278     1
   1266   1268     1
   1266   1278     1
   1267   1272     1
   1267   1273     1
   1267   1282     1
   1267   1283     1
   1268   1279     1
   1268   1280     1
   1269   1278     1
   1269   1274     1
   1269   1272     1
   1269   1273     1
   1270   1278     1
   1270   1274     1
   1270   1272     1
   1270   1273     1
   1271   1277     1
   1272   1275     1
   1272   1276     1
   1273   1275     1
   1273   1276     1
   1275   1277     1
   1279   1284     1
   1279   1282     1
   1279   1283     1
   1280   1284     1
   1280   1282     1
   1280   1283     1
   1281   1287     1
   1282   1285     1
   1282   1286     1
   1283   1285     1
   1283   1286     1
   1285   1287     1
   1289   1296     1
   1289   1297     1
   1290   1295     1
   1290   1293     1
   1290   1294     1
   1291   1295     1
   1291   1293     1
   1291   1294     1
   1293   1298     1
   1293   1296     1
   1293   1297     1
   1293   1319     1
   1294   1298     1
   1294   1296     1
   1294   1297     1
   1294   1319     1
   1295   1300     1
   1295   1301     1
   1295   1310     1
   1295   1311     1
   1296   1299     1
   1296   1309     1
   1297   1299     1
   1297   1309     1
   1298   1303     1
   1298   1304     1
   1298   1313     1
   1298   1314     1
   1299   1310     1
   1299   1311     1
   1300   1305     1
   1300   1303     1
   1300   1304     1
   1300   1309     1
   1301   1305     1
   1301   1303     1
   1301   1304     1
   1301   1309     1
   1302   1308     1
   1303   1306     1
   1303   1307     1
   1304   1306     1
   1304   1307     1
   1306   1308     1
   1310   1315     1
   1310   1313     1
   1310   1314     1
   1311   1315     1
   1311   1313     1
   1311   1314     1
   1312   1318     1
   1313   1316     1
   1313   1317     1
   1314   1316     1
   1314   1317     1
   1316   1318     1
   1320   1327     1
   1320   1328     1
   1321   1326     1
   1321   1324     1
   1321   1325     1
   1322   1326     1
   1322   1324     1
   1322   1325     1
   1324   1350     1
   1324   1329     1
   1324   1327     1
   1324   1328     1
   1325   1350     1
   1325   1329     1
   1325   1327     1
   1325   1328     1
   1326   1331     1
   1326   1332     1
   1326   1341     1
   1326   1342     1
   1327   1330     1
   1327   1340     1
   1328   1330     1
   1328   1340     1
   1329   1334     1
   1329   1335     1
   1329   1344     1
   1329   1345     1
   1330   1341     1
   1330   1342     1
   1331   1340     1
   1331   1336     1
   1331   1334     1
   1331   1335     1
   1332   1340     1
   1332   1336     1
   1332   1334     1
   1332   1335     1
   1333   1339     1
   1334   1337     1
   1334   1338     1
   1335   1337     1
   1335   1338     1
   1337   1339     1
   1341   1346     1
   1341   1344     1
   1341   1345     1
   1342   1346     1
   1342   1344     1
   1342   1345     1
   1343   1349     1
   1344   1347     1
   1344   1348     1
   1345   1347     1
   1345   1348     1
   1347   1349     1
   1351   1358     1
   1351   1359     1
   1352   1357     1
   1352   1355     1
   1352   1356     1
   1353   1357     1
   1353   1355     1
   1353   1356     1
   1355   1360     1
   1355   1358     1
   1355   1359     1
   1355   1381     1
   1356   1360     1
   1356   1358     1
   1356   1359     1
   1356   1381     1
   1357   1362     1
   1357   1363     1
   1357   1372     1
   1357   1373     1
   1358   1361     1
   1358   1371     1
   1359   1361     1
   1359   1371     1
   1360   1365     1
   1360   1366     1
   1360   1375     1
   1360   1376     1
   1361   1372     1
   1361   1373     1
   1362   1367     1
   1362   1365     1
   1362   1366     1
   1362   1371     1
   1363   1367     1
   1363   1365     1
   1363   1366     1
   1363   1371     1
   1364   1370     1
   1365   1368     1
   1365   1369     1
   1366   1368     1
   1366   1369     1
   1368   1370     1
   1372   1377     1
   1372   1375     1
   1372   1376     1
   1373   1377     1
   1373   1375     1
   1373   1376     1
   1374   1380     1
   1375   1378     1
   1375   1379     1
   1376   1378     1
   1376   1379     1
   1378   1380     1

[ angles ]
;    ai     aj     ak funct         c0         c1         c2         c3
      1      2     14     1   111.0400475 552.288000
      1      5     17     1   111.0400475 552.288000
      1      8     11     1   111.0400475 552.288000
      2      1      5     1   112.3500484 533.878400
      2      1      8     1   112.3500484 533.878400
      2     14     26     1   111.5100476 526.347200
      5      1      8     1   112.3500484 533.878400
      5     17     20     1   111.5100476 526.347200
      8     11     23     1   111.5100476 526.347200
     11     23     86     1   107.9700462 569.024000
     14     26    115     1   107.9700462 569.024000
     17     20     57     1   107.9700462 569.024000
     20     57     48     1   112.4800480 524.673600
     23     86     77     1   112.4800480 524.673600
     26    115    106     1   112.4800480 524.673600
     29     30     42     1   111.0400475 552.288000
     29     33     45     1   111.0400475 552.288000
     29     36     39     1   111.0400475 552.288000
     30     29     33     1   112.3500484 533.878400
     30     29     36     1   112.3500484 533.878400
     30     42     54     1   111.5100476 526.347200
     33     29     36     1   112.3500484 533.878400
     33     45     51     1   111.5100476 526.347200
     36     39     48     1   111.5100476 526.347200
     39     48     57     1   107.9700462 569.024000
     42     54    173     1   107.9700462 569.024000
     45     51    144     1   107.9700462 569.024000
     51    144    135     1   112.4800480 524.673600
     54    173    164     1   112.4800480 524.673600
     58     59     71     1   111.0400475 552.288000
     58     62     74     1   111.0400475 552.288000
     58     65     68     1   111.0400475 552.288000
     59     58     62     1   112.3500484 533.878400
     59     58     65     1   112.3500484 533.878400
     59     71     83     1   111.5100476 526.347200
     62     58     65     1   112.3500484 533.878400
     62     74     80     1   111.5100476 526.347200
     65     68     77     1   111.5100476 526.347200
     68     77     86     1   107.9700462 569.024000
     71     83    231     1   107.9700462 569.024000
     74     80    202     1   107.9700462 569.024000
     80    202    193     1   112.4800480 524.673600
     83    231    222     1   112.4800480 524.673600
     87     88    100     1   111.0400475 552.288000
     87     91    103     1   111.0400475 552.288000
     87     94     97     1   111.0400475 552.288000
     88     87     91     1   112.3500484 533.878400
     88     87     94     1   112.3500484 533.878400
     88    100    112     1   111.5100476 526.347200
     91     87     94     1   112.3500484 533.878400
     91    103    109     1   111.5100476 526.347200
     94     97    106     1   111.5100476 526.347200
     97    106    115     1   107.9700462 569.024000
    100    112    289     1   107.9700462 569.024000
    103    109    260     1   107.9700462 569.024000
    109    260    251     1   112.4800480 524.673600
    112    289    280     1   112.4800480 524.673600
    116    117    129     1   111.0400475 552.288000
    116    120    132     1   111.0400475 552.288000
    116    123    126     1   111.0400475 552.288000
    117    116    120     1   112.3500484 533.878400
    117    116    123     1   112.3500484 533.878400
    117    129    141     1   111.5100476 526.347200
    120    116    123     1   112.3500484 533.878400
    120    132    138     1   111.5100476 526.347200
    123    126    135     1   111.5100476 526.347200
    126    135    144     1   107.9700462 569.024000
    129    141    347     1   107.9700462 569.024000
    132    138    318     1   107.9700462 569.024000
    138    318    309     1   112.4800480 524.673600
    141    347    338     1   112.4800480 524.673600
    145    146    158     1   111.0400475 552.288000
    145    149    161     1   111.0400475 552.288000
    145    152    155     1   111.0400475 552.288000
    146    145    149     1   112.3500484 533.878400
    146    145    152     1   112.3500484 533.878400
    146    158    170     1   111.5100476 526.347200
    149    145    152     1   112.3500484 533.878400
    149    161    167     1   111.5100476 526.347200
    152    155    164     1   111.5100476 526.347200
    155    164    173     1   107.9700462 569.024000
    158    170    405     1   107.9700462 569.024000
    161    167    376     1   107.9700462 569.024000
    167    376    367     1   112.4800480 524.673600
    170    405    396     1   112.4800480 524.673600
    174    175    187     1   111.0400475 552.288000
    174    178    190     1   111.0400475 552.288000
    174    181    184     1   111.0400475 552.288000
    175    174    178     1   112.3500484 533.878400
    175    174    181     1   112.3500484 533.878400
    175    187    199     1   111.5100476 526.347200
    178    174    181     1   112.3500484 533.878400
    178    190    196     1   111.5100476 526.347200
    181    184    193     1   111.5100476 526.347200
    184    193    202     1   107.9700462 569.024000
    187    199    463     1   107.9700462 569.024000
    190    196    434     1   107.9700462 569.024000
    196    434    425     1   112.4800480 524.673600
    199    463    454     1   112.4800480 524.673600
    203    204    216     1   111.0400475 552.288000
    203    207    219     1   111.0400475 552.288000
    203    210    213     1   111.0400475 552.288000
    204    203    207     1   112.3500484 533.878400
    204    203    210     1   112.3500484 533.878400
    204    216    228     1   111.5100476 526.347200
    207    203    210     1   112.3500484 533.878400
    207    219    225     1   111.5100476 526.347200
    210    213    222     1   111.5100476 526.347200
    213    222    231     1   107.9700462 569.024000
    216    228    521     1   107.9700462 569.024000
    219    225    492     1   107.9700462 569.024000
    225    492    483     1   112.4800480 524.673600
    228    521    512     1   112.4800480 524.673600
    232    233    245     1   111.0400475 552.288000
    232    236    248     1   111.0400475 552.288000
    232    239    242     1   111.0400475 552.288000
    233    232    236     1   112.3500484 533.878400
    233    232    239     1   112.3500484 533.878400
    233    245    257     1   111.5100476 526.347200
    236    232    239     1   112.3500484 533.878400
    236    248    254     1   111.5100476 526.347200
    239    242    251     1   111.5100476 526.347200
    242    251    260     1   107.9700462 569.024000
    245    257    579     1   107.9700462 569.024000
    248    254    550     1   107.9700462 569.024000
    254    550    541     1   112.4800480 524.673600
    257    579    570     1   112.4800480 524.673600
    261    262    274     1   111.0400475 552.288000
    261    265    277     1   111.0400475 552.288000
    261    268    271     1   111.0400475 552.288000
    262    261    265     1   112.3500484 533.878400
    262    261    268     1   112.3500484 533.878400
    262    274    286     1   111.5100476 526.347200
    265    261    268     1   112.3500484 533.878400
    265    277    283     1   111.5100476 526.347200
    268    271    280     1   111.5100476 526.347200
    271    280    289     1   107.9700462 569.024000
    274    286    637     1   107.9700462 569.024000
    277    283    608     1   107.9700462 569.024000
    283    608    599     1   112.4800480 524.673600
    286    637    628     1   112.4800480 524.673600
    290    291    303     1   111.0400475 552.288000
    290    294    306     1   111.0400475 552.288000
    290    297    300     1   111.0400475 552.288000
    291    290    294     1   112.3500484 533.878400
    291    290    297     1   112.3500484 533.878400
    291    303    315     1   111.5100476 526.347200
    294    290    297     1   112.3500484 533.878400
    294    306    312     1   111.5100476 526.347200
    297    300    309     1   111.5100476 526.347200
    300    309    318     1   107.9700462 569.024000
    303    315    699     1   107.9700462 569.024000
    306    312    668     1   107.9700462 569.024000
    312    668    638     1   112.4800480 524.673600
    315    699    669     1   112.4800480 524.673600
    319    320    332     1   111.0400475 552.288000
    319    323    335     1   111.0400475 552.288000
    319    326    329     1   111.0400475 552.288000
    320    319    323     1   112.3500484 533.878400
    320    319    326     1   112.3500484 533.878400
    320    332    344     1   111.5100476 526.347200
    323    319    326     1   112.3500484 533.878400
    323    335    341     1   111.5100476 526.347200
    326    329    338     1   111.5100476 526.347200
    329    338    347     1   107.9700462 569.024000
    332    344    761     1   107.9700462 569.024000
    335    341    730     1   107.9700462 569.024000
    341    730    700     1   112.4800480 524.673600
    344    761    731     1   112.4800480 524.673600
    348    349    361     1   111.0400475 552.288000
    348    352    364     1   111.0400475 552.288000
    348    355    358     1   111.0400475 552.288000
    349    348    352     1   112.3500484 533.878400
    349    348    355     1   112.3500484 533.878400
    349    361    373     1   111.5100476 526.347200
    352    348    355     1   112.3500484 533.878400
    352    364    370     1   111.5100476 526.347200
    355    358    367     1   111.5100476 526.347200
    358    367    376     1   107.9700462 569.024000
    361    373    823     1   107.9700462 569.024000
    364    370    792     1   107.9700462 569.024000
    370    792    762     1   112.4800480 524.673600
    373    823    793     1   112.4800480 524.673600
    377    378    390     1   111.0400475 552.288000
    377    381    393     1   111.0400475 552.288000
    377    384    387     1   111.0400475 552.288000
    378    377    381     1   112.3500484 533.878400
    378    377    384     1   112.3500484 533.878400
    378    390    402     1   111.5100476 526.347200
    381    377    384     1   112.3500484 533.878400
    381    393    399     1   111.5100476 526.347200
    384    387    396     1   111.5100476 526.347200
    387    396    405     1   107.9700462 569.024000
    390    402    885     1   107.9700462 569.024000
    393    399    854     1   107.9700462 569.024000
    399    854    824     1   112.4800480 524.673600
    402    885    855     1   112.4800480 524.673600
    406    407    419     1   111.0400475 552.288000
    406    410    422     1   111.0400475 552.288000
    406    413    416     1   111.0400475 552.288000
    407    406    410     1   112.3500484 533.878400
    407    406    413     1   112.3500484 533.878400
    407    419    431     1   111.5100476 526.347200
    410    406    413     1   112.3500484 533.878400
    410    422    428     1   111.5100476 526.347200
    413    416    425     1   111.5100476 526.347200
    416    425    434     1   107.9700462 569.024000
    419    431    947     1   107.9700462 569.024000
    422    428    916     1   107.9700462 569.024000
    428    916    886     1   112.4800480 524.673600
    431    947    917     1   112.4800480 524.673600
    435    436    448     1   111.0400475 552.288000
    435    439    451     1   111.0400475 552.288000
    435    442    445     1   111.0400475 552.288000
    436    435    439     1   112.3500484 533.878400
    436    435    442     1   112.3500484 533.878400
    436    448    460     1   111.5100476 526.347200
    439    435    442     1   112.3500484 533.878400
    439    451    457     1   111.5100476 526.347200
    442    445    454     1   111.5100476 526.347200
    445    454    463     1   107.9700462 569.024000
    448    460   1009     1   107.9700462 569.024000
    451    457    978     1   107.9700462 569.024000
    457    978    948     1   112.4800480 524.673600
    460   1009    979     1   112.4800480 524.673600
    464    465    477     1   111.0400475 552.288000
    464    468    480     1   111.0400475 552.288000
    464    471    474     1   111.0400475 552.288000
    465    464    468     1   112.3500484 533.878400
    465    464    471     1   112.3500484 533.878400
    465    477    489     1   111.5100476 526.347200
    468    464    471     1   112.3500484 533.878400
    468    480    486     1   111.5100476 526.347200
    471    474    483     1   111.5100476 526.347200
    474    483    492     1   107.9700462 569.024000
    477    489   1071     1   107.9700462 569.024000
    480    486   1040     1   107.9700462 569.024000
    486   1040   1010     1   112.4800480 524.673600
    489   1071   1041     1   112.4800480 524.673600
    493    494    506     1   111.0400475 552.288000
    493    497    509     1   111.0400475 552.288000
    493    500    503     1   111.0400475 552.288000
    494    493    497     1   112.3500484 533.878400
    494    493    500     1   112.3500484 533.878400
    494    506    518     1   111.5100476 526.347200
    497    493    500     1   112.3500484 533.878400
    497    509    515     1   111.5100476 526.347200
    500    503    512     1   111.5100476 526.347200
    503    512    521     1   107.9700462 569.024000
    506    518   1133     1   107.9700462 569.024000
    509    515   1102     1   107.9700462 569.024000
    515   1102   1072     1   112.4800480 524.673600
    518   1133   1103     1   112.4800480 524.673600
    522    523    535     1   111.0400475 552.288000
    522    526    538     1   111.0400475 552.288000
    522    529    532     1   111.0400475 552.288000
    523    522    526     1   112.3500484 533.878400
    523    522    529     1   112.3500484 533.878400
    523    535    547     1   111.5100476 526.347200
    526    522    529     1   112.3500484 533.878400
    526    538    544     1   111.5100476 526.347200
    529    532    541     1   111.5100476 526.347200
    532    541    550     1   107.9700462 569.024000
    535    547   1195     1   107.9700462 569.024000
    538    544   1164     1   107.9700462 569.024000
    544   1164   1134     1   112.4800480 524.673600
    547   1195   1165     1   112.4800480 524.673600
    551    552    564     1   111.0400475 552.288000
    551    555    567     1   111.0400475 552.288000
    551    558    561     1   111.0400475 552.288000
    552    551    555     1   112.3500484 533.878400
    552    551    558     1   112.3500484 533.878400
    552    564    576     1   111.5100476 526.347200
    555    551    558     1   112.3500484 533.878400
    555    567    573     1   111.5100476 526.347200
    558    561    570     1   111.5100476 526.347200
    561    570    579     1   107.9700462 569.024000
    564    576   1257     1   107.9700462 569.024000
    567    573   1226     1   107.9700462 569.024000
    573   1226   1196     1   112.4800480 524.673600
    576   1257   1227     1   112.4800480 524.673600
    580    581    593     1   111.0400475 552.288000
    580    584    596     1   111.0400475 552.288000
    580    587    590     1   111.0400475 552.288000
    581    580    584     1   112.3500484 533.878400
    581    580    587     1   112.3500484 533.878400
    581    593    605     1   111.5100476 526.347200
    584    580    587     1   112.3500484 533.878400
    584    596    602     1   111.5100476 526.347200
    587    590    599     1   111.5100476 526.347200
    590    599    608     1   107.9700462 569.024000
    593    605   1319     1   107.9700462 569.024000
    596    602   1288     1   107.9700462 569.024000
    602   1288   1258     1   112.4800480 524.673600
    605   1319   1289     1   112.4800480 524.673600
    609    610    622     1   111.0400475 552.288000
    609    613    625     1   111.0400475 552.288000
    609    616    619     1   111.0400475 552.288000
    610    609    613     1   112.3500484 533.878400
    610    609    616     1   112.3500484 533.878400
    610    622    634     1   111.5100476 526.347200
    613    609    616     1   112.3500484 533.878400
    613    625    631     1   111.5100476 526.347200
    616    619    628     1   111.5100476 526.347200
    619    628    637     1   107.9700462 569.024000
    622    634   1381     1   107.9700462 569.024000
    625    631   1350     1   107.9700462 569.024000
    631   1350   1320     1   112.4800480 524.673600
    634   1381   1351     1   112.4800480 524.673600
    638    641    644     1   111.5100476 526.347200
    641    638    668     1   107.9700462 569.024000
    641    644    647     1   111.0400475 552.288000
    644    647    648     1   112.3500484 533.878400
    644    647    658     1   112.3500484 533.878400
    647    648    651     1   111.0400475 552.288000
    647    658    661     1   111.0400475 552.288000
    648    647    658     1   112.3500484 533.878400
    648    651    654     1   111.0400475 529.694400
    651    654    655     1   123.2000528 564.003200
    651    654    656     1   112.7300484 572.371200
    655    654    656     1   122.1000523 635.131200
    658    661    664     1   111.0400475 529.694400
    661    664    665     1   123.2000528 564.003200
    661    664    666     1   112.7300484 572.371200
    665    664    666     1   122.1000523 635.131200
    669    672    675     1   111.5100476 526.347200
    672    675    678     1   111.0400475 552.288000
    672    669    699     1   107.9700462 569.024000
    675    678    679     1   112.3500484 533.878400
    675    678    689     1   112.3500484 533.878400
    678    679    682     1   111.0400475 552.288000
    678    689    692     1   111.0400475 552.288000
    679    682    685     1   111.0400475 529.694400
    679    678    689     1   112.3500484 533.878400
    682    685    686     1   123.2000528 564.003200
    682    685    687     1   112.7300484 572.371200
    686    685    687     1   122.1000523 635.131200
    689    692    695     1   111.0400475 529.694400
    692    695    696     1   123.2000528 564.003200
    692    695    697     1   112.7300484 572.371200
    696    695    697     1   122.1000523 635.131200
    700    703    706     1   111.5100476 526.347200
    703    700    730     1   107.9700462 569.024000
    703    706    709     1   111.0400475 552.288000
    706    709    710     1   112.3500484 533.878400
    706    709    720     1   112.3500484 533.878400
    709    710    713     1   111.0400475 552.288000
    709    720    723     1   111.0400475 552.288000
    710    709    720     1   112.3500484 533.878400
    710    713    716     1   111.0400475 529.694400
    713    716    717     1   123.2000528 564.003200
    713    716    718     1   112.7300484 572.371200
    717    716    718     1   122.1000523 635.131200
    720    723    726     1   111.0400475 529.694400
    723    726    727     1   123.2000528 564.003200
    723    726    728     1   112.7300484 572.371200
    727    726    728     1   122.1000523 635.131200
    731    734    737     1   111.5100476 526.347200
    734    737    740     1   111.0400475 552.288000
    734    731    761     1   107.9700462 569.024000
    737    740    741     1   112.3500484 533.878400
    737    740    751     1   112.3500484 533.878400
    740    741    744     1   111.0400475 552.288000
    740    751    754     1   111.0400475 552.288000
    741    744    747     1   111.0400475 529.694400
    741    740    751     1   112.3500484 533.878400
    744    747    748     1   123.2000528 564.003200
    744    747    749     1   112.7300484 572.371200
    748    747    749     1   122.1000523 635.131200
    751    754    757     1   111.0400475 529.694400
    754    757    758     1   123.2000528 564.003200
    754    757    759     1   112.7300484 572.371200
    758    757    759     1   122.1000523 635.131200
    762    765    768     1   111.5100476 526.347200
    765    762    792     1   107.9700462 569.024000
    765    768    771     1   111.0400475 552.288000
    768    771    772     1   112.3500484 533.878400
    768    771    782     1   112.3500484 533.878400
    771    772    775     1   111.0400475 552.288000
    771    782    785     1   111.0400475 552.288000
    772    771    782     1   112.3500484 533.878400
    772    775    778     1   111.0400475 529.694400
    775    778    779     1   123.2000528 564.003200
    775    778    780     1   112.7300484 572.371200
    779    778    780     1   122.1000523 635.131200
    782    785    788     1   111.0400475 529.694400
    785    788    789     1   123.2000528 564.003200
    785    788    790     1   112.7300484 572.371200
    789    788    790     1   122.1000523 635.131200
    793    796    799     1   111.5100476 526.347200
    796    799    802     1   111.0400475 552.288000
    796    793    823     1   107.9700462 569.024000
    799    802    803     1   112.3500484 533.878400
    799    802    813     1   112.3500484 533.878400
    802    803    806     1   111.0400475 552.288000
    802    813    816     1   111.0400475 552.288000
    803    806    809     1   111.0400475 529.694400
    803    802    813     1   112.3500484 533.878400
    806    809    810     1   123.2000528 564.003200
    806    809    811     1   112.7300484 572.371200
    810    809    811     1   122.1000523 635.131200
    813    816    819     1   111.0400475 529.694400
    816    819    820     1   123.2000528 564.003200
    816    819    821     1   112.7300484 572.371200
    820    819    821     1   122.1000523 635.131200
    824    827    830     1   111.5100476 526.347200
    827    824    854     1   107.9700462 569.024000
    827    830    833     1   111.0400475 552.288000
    830    833    834     1   112.3500484 533.878400
    830    833    844     1   112.3500484 533.878400
    833    834    837     1   111.0400475 552.288000
    833    844    847     1   111.0400475 552.288000
    834    833    844     1   112.3500484 533.878400
    834    837    840     1   111.0400475 529.694400
    837    840    841     1   123.2000528 564.003200
    837    840    842     1   112.7300484 572.371200
    841    840    842     1   122.1000523 635.131200
    844    847    850     1   111.0400475 529.694400
    847    850    851     1   123.2000528 564.003200
    847    850    852     1   112.7300484 572.371200
    851    850    852     1   122.1000523 635.131200
    855    858    861     1   111.5100476 526.347200
    858    861    864     1   111.0400475 552.288000
    858    855    885     1   107.9700462 569.024000
    861    864    865     1   112.3500484 533.878400
    861    864    875     1   112.3500484 533.878400
    864    865    868     1   111.0400475 552.288000
    864    875    878     1   111.0400475 552.288000
    865    868    871     1   111.0400475 529.694400
    865    864    875     1   112.3500484 533.878400
    868    871    872     1   123.2000528 564.003200
    868    871    873     1   112.7300484 572.371200
    872    871    873     1   122.1000523 635.131200
    875    878    881     1   111.0400475 529.694400
    878    881    882     1   123.2000528 564.003200
    878    881    883     1   112.7300484 572.371200
    882    881    883     1   122.1000523 635.131200
    886    889    892     1   111.5100476 526.347200
    889    886    916     1   107.9700462 569.024000
    889    892    895     1   111.0400475 552.288000
    892    895    896     1   112.3500484 533.878400
    892    895    906     1   112.3500484 533.878400
    895    896    899     1   111.0400475 552.288000
    895    906    909     1   111.0400475 552.288000
    896    895    906     1   112.3500484 533.878400
    896    899    902     1   111.0400475 529.694400
    899    902    903     1   123.2000528 564.003200
    899    902    904     1   112.7300484 572.371200
    903    902    904     1   122.1000523 635.131200
    906    909    912     1   111.0400475 529.694400
    909    912    913     1   123.2000528 564.003200
    909    912    914     1   112.7300484 572.371200
    913    912    914     1   122.1000523 635.131200
    917    920    923     1   111.5100476 526.347200
    920    923    926     1   111.0400475 552.288000
    920    917    947     1   107.9700462 569.024000
    923    926    927     1   112.3500484 533.878400
    923    926    937     1   112.3500484 533.878400
    926    927    930     1   111.0400475 552.288000
    926    937    940     1   111.0400475 552.288000
    927    930    933     1   111.0400475 529.694400
    927    926    937     1   112.3500484 533.878400
    930    933    934     1   123.2000528 564.003200
    930    933    935     1   112.7300484 572.371200
    934    933    935     1   122.1000523 635.131200
    937    940    943     1   111.0400475 529.694400
    940    943    944     1   123.2000528 564.003200
    940    943    945     1   112.7300484 572.371200
    944    943    945     1   122.1000523 635.131200
    948    951    954     1   111.5100476 526.347200
    951    948    978     1   107.9700462 569.024000
    951    954    957     1   111.0400475 552.288000
    954    957    958     1   112.3500484 533.878400
    954    957    968     1   112.3500484 533.878400
    957    958    961     1   111.0400475 552.288000
    957    968    971     1   111.0400475 552.288000
    958    957    968     1   112.3500484 533.878400
    958    961    964     1   111.0400475 529.694400
    961    964    965     1   123.2000528 564.003200
    961    964    966     1   112.7300484 572.371200
    965    964    966     1   122.1000523 635.131200
    968    971    974     1   111.0400475 529.694400
    971    974    975     1   123.2000528 564.003200
    971    974    976     1   112.7300484 572.371200
    975    974    976     1   122.1000523 635.131200
    979    982    985     1   111.5100476 526.347200
    982    985    988     1   111.0400475 552.288000
    982    979   1009     1   107.9700462 569.024000
    985    988    989     1   112.3500484 533.878400
    985    988    999     1   112.3500484 533.878400
    988    989    992     1   111.0400475 552.288000
    988    999   1002     1   111.0400475 552.288000
    989    992    995     1   111.0400475 529.694400
    989    988    999     1   112.3500484 533.878400
    992    995    996     1   123.2000528 564.003200
    992    995    997     1   112.7300484 572.371200
    996    995    997     1   122.1000523 635.131200
    999   1002   1005     1   111.0400475 529.694400
   1002   1005   1006     1   123.2000528 564.003200
   1002   1005   1007     1   112.7300484 572.371200
   1006   1005   1007     1   122.1000523 635.131200
   1010   1013   1016     1   111.5100476 526.347200
   1013   1010   1040     1   107.9700462 569.024000
   1013   1016   1019     1   111.0400475 552.288000
   1016   1019   1020     1   112.3500484 533.878400
   1016   1019   1030     1   112.3500484 533.878400
   1019   1020   1023     1   111.0400475 552.288000
   1019   1030   1033     1   111.0400475 552.288000
   1020   1019   1030     1   112.3500484 533.878400
   1020   1023   1026     1   111.0400475 529.694400
   1023   1026   1027     1   123.2000528 564.003200
   1023   1026   1028     1   112.7300484 572.371200
   1027   1026   1028     1   122.1000523 635.131200
   1030   1033   1036     1   111.0400475 529.694400
   1033   1036   1037     1   123.2000528 564.003200
   1033   1036   1038     1   112.7300484 572.371200
   1037   1036   1038     1   122.1000523 635.131200
   1041   1044   1047     1   111.5100476 526.347200
   1044   1047   1050     1   111.0400475 552.288000
   1044   1041   1071     1   107.9700462 569.024000
   1047   1050   1051     1   112.3500484 533.878400
   1047   1050   1061     1   112.3500484 533.878400
   1050   1051   1054     1   111.0400475 552.288000
   1050   1061   1064     1   111.0400475 552.288000
   1051   1054   1057     1   111.0400475 529.694400
   1051   1050   1061     1   112.3500484 533.878400
   1054   1057   1058     1   123.2000528 564.003200
   1054   1057   1059     1   112.7300484 572.371200
   1058   1057   1059     1   122.1000523 635.131200
   1061   1064   1067     1   111.0400475 529.694400
   1064   1067   1068     1   123.2000528 564.003200
   1064   1067   1069     1   112.7300484 572.371200
   1068   1067   1069     1   122.1000523 635.131200
   1072   1075   1078     1   111.5100476 526.347200
   1075   1072   1102     1   107.9700462 569.024000
   1075   1078   1081     1   111.0400475 552.288000
   1078   1081   1082     1   112.3500484 533.878400
   1078   1081   1092     1   112.3500484 533.878400
   1081   1082   1085     1   111.0400475 552.288000
   1081   1092   1095     1   111.0400475 552.288000
   1082   1081   1092     1   112.3500484 533.878400
   1082   1085   1088     1   111.0400475 529.694400
   1085   1088   1089     1   123.2000528 564.003200
   1085   1088   1090     1   112.7300484 572.371200
   1089   1088   1090     1   122.1000523 635.131200
   1092   1095   1098     1   111.0400475 529.694400
   1095   1098   1099     1   123.2000528 564.003200
   1095   1098   1100     1   112.7300484 572.371200
   1099   1098   1100     1   122.1000523 635.131200
   1103   1106   1109     1   111.5100476 526.347200
   1106   1109   1112     1   111.0400475 552.288000
   1106   1103   1133     1   107.9700462 569.024000
   1109   1112   1113     1   112.3500484 533.878400
   1109   1112   1123     1   112.3500484 533.878400
   1112   1113   1116     1   111.0400475 552.288000
   1112   1123   1126     1   111.0400475 552.288000
   1113   1116   1119     1   111.0400475 529.694400
   1113   1112   1123     1   112.3500484 533.878400
   1116   1119   1120     1   123.2000528 564.003200
   1116   1119   1121     1   112.7300484 572.371200
   1120   1119   1121     1   122.1000523 635.131200
   1123   1126   1129     1   111.0400475 529.694400
   1126   1129   1130     1   123.2000528 564.003200
   1126   1129   1131     1   112.7300484 572.371200
   1130   1129   1131     1   122.1000523 635.131200
   1134   1137   1140     1   111.5100476 526.347200
   1137   1134   1164     1   107.9700462 569.024000
   1137   1140   1143     1   111.0400475 552.288000
   1140   1143   1144     1   112.3500484 533.878400
   1140   1143   1154     1   112.3500484 533.878400
   1143   1144   1147     1   111.0400475 552.288000
   1143   1154   1157     1   111.0400475 552.288000
   1144   1143   1154     1   112.3500484 533.878400
   1144   1147   1150     1   111.0400475 529.694400
   1147   1150   1151     1   123.2000528 564.003200
   1147   1150   1152     1   112.7300484 572.371200
   1151   1150   1152     1   122.1000523 635.131200
   1154   1157   1160     1   111.0400475 529.694400
   1157   1160   1161     1   123.2000528 564.003200
   1157   1160   1162     1   112.7300484 572.371200
   1161   1160   1162     1   122.1000523 635.131200
   1165   1168   1171     1   111.5100476 526.347200
   1168   1171   1174     1   111.0400475 552.288000
   1168   1165   1195     1   107.9700462 569.024000
   1171   1174   1175     1   112.3500484 533.878400
   1171   1174   1185     1   112.3500484 533.878400
   1174   1175   1178     1   111.0400475 552.288000
   1174   1185   1188     1   111.0400475 552.288000
   1175   1178   1181     1   111.0400475 529.694400
   1175   1174   1185     1   112.3500484 533.878400
   1178   1181   1182     1   123.2000528 564.003200
   1178   1181   1183     1   112.7300484 572.371200
   1182   1181   1183     1   122.1000523 635.131200
   1185   1188   1191     1   111.0400475 529.694400
   1188   1191   1192     1   123.2000528 564.003200
   1188   1191   1193     1   112.7300484 572.371200
   1192   1191   1193     1   122.1000523 635.131200
   1196   1199   1202     1   111.5100476 526.347200
   1199   1196   1226     1   107.9700462 569.024000
   1199   1202   1205     1   111.0400475 552.288000
   1202   1205   1206     1   112.3500484 533.878400
   1202   1205   1216     1   112.3500484 533.878400
   1205   1206   1209     1   111.0400475 552.288000
   1205   1216   1219     1   111.0400475 552.288000
   1206   1205   1216     1   112.3500484 533.878400
   1206   1209   1212     1   111.0400475 529.694400
   1209   1212   1213     1   123.2000528 564.003200
   1209   1212   1214     1   112.7300484 572.371200
   1213   1212   1214     1   122.1000523 635.131200
   1216   1219   1222     1   111.0400475 529.694400
   1219   1222   1223     1   123.2000528 564.003200
   1219   1222   1224     1   112.7300484 572.371200
   1223   1222   1224     1   122.1000523 635.131200
   1227   1230   1233     1   111.5100476 526.347200
   1230   1233   1236     1   111.0400475 552.288000
   1230   1227   1257     1   107.9700462 569.024000
   1233   1236   1237     1   112.3500484 533.878400
   1233   1236   1247     1   112.3500484 533.878400
   1236   1237   1240     1   111.0400475 552.288000
   1236   1247   1250     1   111.0400475 552.288000
   1237   1240   1243     1   111.0400475 529.694400
   1237   1236   1247     1   112.3500484 533.878400
   1240   1243   1244     1   123.2000528 564.003200
   1240   1243   1245     1   112.7300484 572.371200
   1244   1243   1245     1   122.1000523 635.131200
   1247   1250   1253     1   111.0400475 529.694400
   1250   1253   1254     1   123.2000528 564.003200
   1250   1253   1255     1   112.7300484 572.371200
   1254   1253   1255     1   122.1000523 635.131200
   1258   1261   1264     1   111.5100476 526.347200
   1261   1258   1288     1   107.9700462 569.024000
   1261   1264   1267     1   111.0400475 552.288000
   1264   1267   1268     1   112.3500484 533.878400
   1264   1267   1278     1   112.3500484 533.878400
   1267   1268   1271     1   111.0400475 552.288000
   1267   1278   1281     1   111.0400475 552.288000
   1268   1267   1278     1   112.3500484 533.878400
   1268   1271   1274     1   111.0400475 529.694400
   1271   1274   1275     1   123.2000528 564.003200
   1271   1274   1276     1   112.7300484 572.371200
   1275   1274   1276     1   122.1000523 635.131200
   1278   1281   1284     1   111.0400475 529.694400
   1281   1284   1285     1   123.2000528 564.003200
   1281   1284   1286     1   112.7300484 572.371200
   1285   1284   1286     1   122.1000523 635.131200
   1289   1292   1295     1   111.5100476 526.347200
   1292   1295   1298     1   111.0400475 552.288000
   1292   1289   1319     1   107.9700462 569.024000
   1295   1298   1299     1   112.3500484 533.878400
   1295   1298   1309     1   112.3500484 533.878400
   1298   1299   1302     1   111.0400475 552.288000
   1298   1309   1312     1   111.0400475 552.288000
   1299   1302   1305     1   111.0400475 529.694400
   1299   1298   1309     1   112.3500484 533.878400
   1302   1305   1306     1   123.2000528 564.003200
   1302   1305   1307     1   112.7300484 572.371200
   1306   1305   1307     1   122.1000523 635.131200
   1309   1312   1315     1   111.0400475 529.694400
   1312   1315   1316     1   123.2000528 564.003200
   1312   1315   1317     1   112.7300484 572.371200
   1316   1315   1317     1   122.1000523 635.131200
   1320   1323   1326     1   111.5100476 526.347200
   1323   1320   1350     1   107.9700462 569.024000
   1323   1326   1329     1   111.0400475 552.288000
   1326   1329   1330     1   112.3500484 533.878400
   1326   1329   1340     1   112.3500484 533.878400
   1329   1330   1333     1   111.0400475 552.288000
   1329   1340   1343     1   111.0400475 552.288000
   1330   1329   1340     1   112.3500484 533.878400
   1330   1333   1336     1   111.0400475 529.694400
   1333   1336   1337     1   123.2000528 564.003200
   1333   1336   1338     1   112.7300484 572.371200
   1337   1336   1338     1   122.1000523 635.131200
   1340   1343   1346     1   111.0400475 529.694400
   1343   1346   1347     1   123.2000528 564.003200
   1343   1346   1348     1   112.7300484 572.371200
   1347   1346   1348     1   122.1000523 635.131200
   1351   1354   1357     1   111.5100476 526.347200
   1354   1357   1360     1   111.0400475 552.288000
   1354   1351   1381     1   107.9700462 569.024000
   1357   1360   1361     1   112.3500484 533.878400
   1357   1360   1371     1   112.3500484 533.878400
   1360   1361   1364     1   111.0400475 552.288000
   1360   1371   1374     1   111.0400475 552.288000
   1361   1364   1367     1   111.0400475 529.694400
   1361   1360   1371     1   112.3500484 533.878400
   1364   1367   1368     1   123.2000528 564.003200
   1364   1367   1369     1   112.7300484 572.371200
   1368   1367   1369     1   122.1000523 635.131200
   1371   1374   1377     1   111.0400475 529.694400
   1374   1377   1378     1   123.2000528 564.003200
   1374   1377   1379     1   112.7300484 572.371200
   1378   1377   1379     1   122.1000523 635.131200
      1      2      3     1   109.8800469 414.216000
      1      2      4     1   109.8800469 414.216000
      1      5      6     1   109.8800469 414.216000
      1      5      7     1   109.8800469 414.216000
      1      8      9     1   109.8800469 414.216000
      1      8     10     1   109.8800469 414.216000
      2     14     15     1   109.8000471 387.438400
      2     14     16     1   109.8000471 387.438400
      3      2     14     1   109.5600471 388.275200
      3      2      4     1   108.4600466 328.025600
      4      2     14     1   109.5600471 388.275200
      5     17     18     1   109.8000471 387.438400
      5     17     19     1   109.8000471 387.438400
      6      5     17     1   109.5600471 388.275200
      6      5      7     1   108.4600466 328.025600
      7      5     17     1   109.5600471 388.275200
      8     11     12     1   109.8000471 387.438400
      8     11     13     1   109.8000471 387.438400
      9      8     11     1   109.5600471 388.275200
      9      8     10     1   108.4600466 328.025600
     10      8     11     1   109.5600471 388.275200
     11     23     24     1   109.5600471 388.275200
     11     23     25     1   109.5600471 388.275200
     12     11     23     1   109.8000471 387.438400
     12     11     13     1   107.5800459 329.699200
     13     11     23     1   109.8000471 387.438400
     14     26     27     1   109.5600471 388.275200
     14     26     28     1   109.5600471 388.275200
     15     14     26     1   109.8000471 387.438400
     15     14     16     1   107.5800459 329.699200
     16     14     26     1   109.8000471 387.438400
     17     20     21     1   109.5600471 388.275200
     17     20     22     1   109.5600471 388.275200
     18     17     20     1   109.8000471 387.438400
     18     17     19     1   107.5800459 329.699200
     19     17     20     1   109.8000471 387.438400
     21     20     57     1   109.7800468 425.094400
     21     20     22     1   108.4600466 328.025600
     22     20     57     1   109.7800468 425.094400
     24     23     86     1   109.7800468 425.094400
     24     23     25     1   108.4600466 328.025600
     25     23     86     1   109.7800468 425.094400
     27     26    115     1   109.7800468 425.094400
     27     26     28     1   108.4600466 328.025600
     28     26    115     1   109.7800468 425.094400
     29     30     31     1   109.8800469 414.216000
     29     30     32     1   109.8800469 414.216000
     29     33     34     1   109.8800469 414.216000
     29     33     35     1   109.8800469 414.216000
     29     36     37     1   109.8800469 414.216000
     29     36     38     1   109.8800469 414.216000
     30     42     43     1   109.8000471 387.438400
     30     42     44     1   109.8000471 387.438400
     31     30     42     1   109.5600471 388.275200
     31     30     32     1   108.4600466 328.025600
     32     30     42     1   109.5600471 388.275200
     33     45     46     1   109.8000471 387.438400
     33     45     47     1   109.8000471 387.438400
     34     33     45     1   109.5600471 388.275200
     34     33     35     1   108.4600466 328.025600
     35     33     45     1   109.5600471 388.275200
     36     39     40     1   109.8000471 387.438400
     36     39     41     1   109.8000471 387.438400
     37     36     39     1   109.5600471 388.275200
     37     36     38     1   108.4600466 328.025600
     38     36     39     1   109.5600471 388.275200
     39     48     49     1   109.5600471 388.275200
     39     48     50     1   109.5600471 388.275200
     40     39     48     1   109.8000471 387.438400
     40     39     41     1   107.5800459 329.699200
     41     39     48     1   109.8000471 387.438400
     42     54     55     1   109.5600471 388.275200
     42     54     56     1   109.5600471 388.275200
     43     42     54     1   109.8000471 387.438400
     43     42     44     1   107.5800459 329.699200
     44     42     54     1   109.8000471 387.438400
     45     51     52     1   109.5600471 388.275200
     45     51     53     1   109.5600471 388.275200
     46     45     51     1   109.8000471 387.438400
     46     45     47     1   107.5800459 329.699200
     47     45     51     1   109.8000471 387.438400
     49     48     57     1   109.7800468 425.094400
     49     48     50     1   108.4600466 328.025600
     50     48     57     1   109.7800468 425.094400
     52     51    144     1   109.7800468 425.094400
     52     51     53     1   108.4600466 328.025600
     53     51    144     1   109.7800468 425.094400
     55     54    173     1   109.7800468 425.094400
     55     54     56     1   108.4600466 328.025600
     56     54    173     1   109.7800468 425.094400
     58     59     60     1   109.8800469 414.216000
     58     59     61     1   109.8800469 414.216000
     58     62     63     1   109.8800469 414.216000
     58     62     64     1   109.8800469 414.216000
     58     65     66     1   109.8800469 414.216000
     58     65     67     1   109.8800469 414.216000
     59     71     72     1   109.8000471 387.438400
     59     71     73     1   109.8000471 387.438400
     60     59     71     1   109.5600471 388.275200
     60     59     61     1   108.4600466 328.025600
     61     59     71     1   109.5600471 388.275200
     62     74     75     1   109.8000471 387.438400
     62     74     76     1   109.8000471 387.438400
     63     62     74     1   109.5600471 388.275200
     63     62     64     1   108.4600466 328.025600
     64     62     74     1   109.5600471 388.275200
     65     68     69     1   109.8000471 387.438400
     65     68     70     1   109.8000471 387.438400
     66     65     68     1   109.5600471 388.275200
     66     65     67     1   108.4600466 328.025600
     67     65     68     1   109.5600471 388.275200
     68     77     78     1   109.5600471 388.275200
     68     77     79     1   109.5600471 388.275200
     69     68     77     1   109.8000471 387.438400
     69     68     70     1   107.5800459 329.699200
     70     68     77     1   109.8000471 387.438400
     71     83     84     1   109.5600471 388.275200
     71     83     85     1   109.5600471 388.275200
     72     71     83     1   109.8000471 387.438400
     72     71     73     1   107.5800459 329.699200
     73     71     83     1   109.8000471 387.438400
     74     80     81     1   109.5600471 388.275200
     74     80     82     1   109.5600471 388.275200
     75     74     80     1   109.8000471 387.438400
     75     74     76     1   107.5800459 329.699200
     76     74     80     1   109.8000471 387.438400
     78     77     86     1   109.7800468 425.094400
     78     77     79     1   108.4600466 328.025600
     79     77     86     1   109.7800468 425.094400
     81     80    202     1   109.7800468 425.094400
     81     80     82     1   108.4600466 328.025600
     82     80    202     1   109.7800468 425.094400
     84     83    231     1   109.7800468 425.094400
     84     83     85     1   108.4600466 328.025600
     85     83    231     1   109.7800468 425.094400
     87     88     89     1   109.8800469 414.216000
     87     88     90     1   109.8800469 414.216000
     87     91     92     1   109.8800469 414.216000
     87     91     93     1   109.8800469 414.216000
     87     94     95     1   109.8800469 414.216000
     87     94     96     1   109.8800469 414.216000
     88    100    101     1   109.8000471 387.438400
     88    100    102     1   109.8000471 387.438400
     89     88    100     1   109.5600471 388.275200
     89     88     90     1   108.4600466 328.025600
     90     88    100     1   109.5600471 388.275200
     91    103    104     1   109.8000471 387.438400
     91    103    105     1   109.8000471 387.438400
     92     91    103     1   109.5600471 388.275200
     92     91     93     1   108.4600466 328.025600
     93     91    103     1   109.5600471 388.275200
     94     97     98     1   109.8000471 387.438400
     94     97     99     1   109.8000471 387.438400
     95     94     97     1   109.5600471 388.275200
     95     94     96     1   108.4600466 328.025600
     96     94     97     1   109.5600471 388.275200
     97    106    107     1   109.5600471 388.275200
     97    106    108     1   109.5600471 388.275200
     98     97    106     1   109.8000471 387.438400
     98     97     99     1   107.5800459 329.699200
     99     97    106     1   109.8000471 387.438400
    100    112    113     1   109.5600471 388.275200
    100    112    114     1   109.5600471 388.275200
    101    100    112     1   109.8000471 387.438400
    101    100    102     1   107.5800459 329.699200
    102    100    112     1   109.8000471 387.438400
    103    109    110     1   109.5600471 388.275200
    103    109    111     1   109.5600471 388.275200
    104    103    109     1   109.8000471 387.438400
    104    103    105     1   107.5800459 329.699200
    105    103    109     1   109.8000471 387.438400
    107    106    115     1   109.7800468 425.094400
    107    106    108     1   108.4600466 328.025600
    108    106    115     1   109.7800468 425.094400
    110    109    260     1   109.7800468 425.094400
    110    109    111     1   108.4600466 328.025600
    111    109    260     1   109.7800468 425.094400
    113    112    289     1   109.7800468 425.094400
    113    112    114     1   108.4600466 328.025600
    114    112    289     1   109.7800468 425.094400
    116    117    118     1   109.8800469 414.216000
    116    117    119     1   109.8800469 414.216000
    116    120    121     1   109.8800469 414.216000
    116    120    122     1   109.8800469 414.216000
    116    123    124     1   109.8800469 414.216000
    116    123    125     1   109.8800469 414.216000
    117    129    130     1   109.8000471 387.438400
    117    129    131     1   109.8000471 387.438400
    118    117    129     1   109.5600471 388.275200
    118    117    119     1   108.4600466 328.025600
    119    117    129     1   109.5600471 388.275200
    120    132    133     1   109.8000471 387.438400
    120    132    134     1   109.8000471 387.438400
    121    120    132     1   109.5600471 388.275200
    121    120    122     1   108.4600466 328.025600
    122    120    132     1   109.5600471 388.275200
    123    126    127     1   109.8000471 387.438400
    123    126    128     1   109.8000471 387.438400
    124    123    126     1   109.5600471 388.275200
    124    123    125     1   108.4600466 328.025600
    125    123    126     1   109.5600471 388.275200
    126    135    136     1   109.5600471 388.275200
    126    135    137     1   109.5600471 388.275200
    127    126    135     1   109.8000471 387.438400
    127    126    128     1   107.5800459 329.699200
    128    126    135     1   109.8000471 387.438400
    129    141    142     1   109.5600471 388.275200
    129    141    143     1   109.5600471 388.275200
    130    129    141     1   109.8000471 387.438400
    130    129    131     1   107.5800459 329.699200
    131    129    141     1   109.8000471 387.438400
    132    138    139     1   109.5600471 388.275200
    132    138    140     1   109.5600471 388.275200
    133    132    138     1   109.8000471 387.438400
    133    132    134     1   107.5800459 329.699200
    134    132    138     1   109.8000471 387.438400
    136    135    144     1   109.7800468 425.094400
    136    135    137     1   108.4600466 328.025600
    137    135    144     1   109.7800468 425.094400
    139    138    318     1   109.7800468 425.094400
    139    138    140     1   108.4600466 328.025600
    140    138    318     1   109.7800468 425.094400
    142    141    347     1   109.7800468 425.094400
    142    141    143     1   108.4600466 328.025600
    143    141    347     1   109.7800468 425.094400
    145    146    147     1   109.8800469 414.216000
    145    146    148     1   109.8800469 414.216000
    145    149    150     1   109.8800469 414.216000
    145    149    151     1   109.8800469 414.216000
    145    152    153     1   109.8800469 414.216000
    145    152    154     1   109.8800469 414.216000
    146    158    159     1   109.8000471 387.438400
    146    158    160     1   109.8000471 387.438400
    147    146    158     1   109.5600471 388.275200
    147    146    148     1   108.4600466 328.025600
    148    146    158     1   109.5600471 388.275200
    149    161    162     1   109.8000471 387.438400
    149    161    163     1   109.8000471 387.438400
    150    149    161     1   109.5600471 388.275200
    150    149    151     1   108.4600466 328.025600
    151    149    161     1   109.5600471 388.275200
    152    155    156     1   109.8000471 387.438400
    152    155    157     1   109.8000471 387.438400
    153    152    155     1   109.5600471 388.275200
    153    152    154     1   108.4600466 328.025600
    154    152    155     1   109.5600471 388.275200
    155    164    165     1   109.5600471 388.275200
    155    164    166     1   109.5600471 388.275200
    156    155    164     1   109.8000471 387.438400
    156    155    157     1   107.5800459 329.699200
    157    155    164     1   109.8000471 387.438400
    158    170    171     1   109.5600471 388.275200
    158    170    172     1   109.5600471 388.275200
    159    158    170     1   109.8000471 387.438400
    159    158    160     1   107.5800459 329.699200
    160    158    170     1   109.8000471 387.438400
    161    167    168     1   109.5600471 388.275200
    161    167    169     1   109.5600471 388.275200
    162    161    167     1   109.8000471 387.438400
    162    161    163     1   107.5800459 329.699200
    163    161    167     1   109.8000471 387.438400
    165    164    173     1   109.7800468 425.094400
    165    164    166     1   108.4600466 328.025600
    166    164    173     1   109.7800468 425.094400
    168    167    376     1   109.7800468 425.094400
    168    167    169     1   108.4600466 328.025600
    169    167    376     1   109.7800468 425.094400
    171    170    405     1   109.7800468 425.094400
    171    170    172     1   108.4600466 328.025600
    172    170    405     1   109.7800468 425.094400
    174    175    176     1   109.8800469 414.216000
    174    175    177     1   109.8800469 414.216000
    174    178    179     1   109.8800469 414.216000
    174    178    180     1   109.8800469 414.216000
    174    181    182     1   109.8800469 414.216000
    174    181    183     1   109.8800469 414.216000
    175    187    188     1   109.8000471 387.438400
    175    187    189     1   109.8000471 387.438400
    176    175    187     1   109.5600471 388.275200
    176    175    177     1   108.4600466 328.025600
    177    175    187     1   109.5600471 388.275200
    178    190    191     1   109.8000471 387.438400
    178    190    192     1   109.8000471 387.438400
    179    178    190     1   109.5600471 388.275200
    179    178    180     1   108.4600466 328.025600
    180    178    190     1   109.5600471 388.275200
    181    184    185     1   109.8000471 387.438400
    181    184    186     1   109.8000471 387.438400
    182    181    184     1   109.5600471 388.275200
    182    181    183     1   108.4600466 328.025600
    183    181    184     1   109.5600471 388.275200
    184    193    194     1   109.5600471 388.275200
    184    193    195     1   109.5600471 388.275200
    185    184    193     1   109.8000471 387.438400
    185    184    186     1   107.5800459 329.699200
    186    184    193     1   109.8000471 387.438400
    187    199    200     1   109.5600471 388.275200
    187    199    201     1   109.5600471 388.275200
    188    187    199     1   109.8000471 387.438400
    188    187    189     1   107.5800459 329.699200
    189    187    199     1   109.8000471 387.438400
    190    196    197     1   109.5600471 388.275200
    190    196    198     1   109.5600471 388.275200
    191    190    196     1   109.8000471 387.438400
    191    190    192     1   107.5800459 329.699200
    192    190    196     1   109.8000471 387.438400
    194    193    202     1   109.7800468 425.094400
    194    193    195     1   108.4600466 328.025600
    195    193    202     1   109.7800468 425.094400
    197    196    434     1   109.7800468 425.094400
    197    196    198     1   108.4600466 328.025600
    198    196    434     1   109.7800468 425.094400
    200    199    463     1   109.7800468 425.094400
    200    199    201     1   108.4600466 328.025600
    201    199    463     1   109.7800468 425.094400
    203    204    205     1   109.8800469 414.216000
    203    204    206     1   109.8800469 414.216000
    203    207    208     1   109.8800469 414.216000
    203    207    209     1   109.8800469 414.216000
    203    210    211     1   109.8800469 414.216000
    203    210    212     1   109.8800469 414.216000
    204    216    217     1   109.8000471 387.438400
    204    216    218     1   109.8000471 387.438400
    205    204    216     1   109.5600471 388.275200
    205    204    206     1   108.4600466 328.025600
    206    204    216     1   109.5600471 388.275200
    207    219    220     1   109.8000471 387.438400
    207    219    221     1   109.8000471 387.438400
    208    207    219     1   109.5600471 388.275200
    208    207    209     1   108.4600466 328.025600
    209    207    219     1   109.5600471 388.275200
    210    213    214     1   109.8000471 387.438400
    210    213    215     1   109.8000471 387.438400
    211    210    213     1   109.5600471 388.275200
    211    210    212     1   108.4600466 328.025600
    212    210    213     1   109.5600471 388.275200
    213    222    223     1   109.5600471 388.275200
    213    222    224     1   109.5600471 388.275200
    214    213    222     1   109.8000471 387.438400
    214    213    215     1   107.5800459 329.699200
    215    213    222     1   109.8000471 387.438400
    216    228    229     1   109.5600471 388.275200
    216    228    230     1   109.5600471 388.275200
    217    216    228     1   109.8000471 387.438400
    217    216    218     1   107.5800459 329.699200
    218    216    228     1   109.8000471 387.438400
    219    225    226     1   109.5600471 388.275200
    219    225    227     1   109.5600471 388.275200
    220    219    225     1   109.8000471 387.438400
    220    219    221     1   107.5800459 329.699200
    221    219    225     1   109.8000471 387.438400
    223    222    231     1   109.7800468 425.094400
    223    222    224     1   108.4600466 328.025600
    224    222    231     1   109.7800468 425.094400
    226    225    492     1   109.7800468 425.094400
    226    225    227     1   108.4600466 328.025600
    227    225    492     1   109.7800468 425.094400
    229    228    521     1   109.7800468 425.094400
    229    228    230     1   108.4600466 328.025600
    230    228    521     1   109.7800468 425.094400
    232    233    234     1   109.8800469 414.216000
    232    233    235     1   109.8800469 414.216000
    232    236    237     1   109.8800469 414.216000
    232    236    238     1   109.8800469 414.216000
    232    239    240     1   109.8800469 414.216000
    232    239    241     1   109.8800469 414.216000
    233    245    246     1   109.8000471 387.438400
    233    245    247     1   109.8000471 387.438400
    234    233    245     1   109.5600471 388.275200
    234    233    235     1   108.4600466 328.025600
    235    233    245     1   109.5600471 388.275200
    236    248    249     1   109.8000471 387.438400
    236    248    250     1   109.8000471 387.438400
    237    236    248     1   109.5600471 388.275200
    237    236    238     1   108.4600466 328.025600
    238    236    248     1   109.5600471 388.275200
    239    242    243     1   109.8000471 387.438400
    239    242    244     1   109.8000471 387.438400
    240    239    242     1   109.5600471 388.275200
    240    239    241     1   108.4600466 328.025600
    241    239    242     1   109.5600471 388.275200
    242    251    252     1   109.5600471 388.275200
    242    251    253     1   109.5600471 388.275200
    243    242    251     1   109.8000471 387.438400
    243    242    244     1   107.5800459 329.699200
    244    242    251     1   109.8000471 387.438400
    245    257    258     1   109.5600471 388.275200
    245    257    259     1   109.5600471 388.275200
    246    245    257     1   109.8000471 387.438400
    246    245    247     1   107.5800459 329.699200
    247    245    257     1   109.8000471 387.438400
    248    254    255     1   109.5600471 388.275200
    248    254    256     1   109.5600471 388.275200
    249    248    254     1   109.8000471 387.438400
    249    248    250     1   107.5800459 329.699200
    250    248    254     1   109.8000471 387.438400
    252    251    260     1   109.7800468 425.094400
    252    251    253     1   108.4600466 328.025600
    253    251    260     1   109.7800468 425.094400
    255    254    550     1   109.7800468 425.094400
    255    254    256     1   108.4600466 328.025600
    256    254    550     1   109.7800468 425.094400
    258    257    579     1   109.7800468 425.094400
    258    257    259     1   108.4600466 328.025600
    259    257    579     1   109.7800468 425.094400
    261    262    263     1   109.8800469 414.216000
    261    262    264     1   109.8800469 414.216000
    261    265    266     1   109.8800469 414.216000
    261    265    267     1   109.8800469 414.216000
    261    268    269     1   109.8800469 414.216000
    261    268    270     1   109.8800469 414.216000
    262    274    275     1   109.8000471 387.438400
    262    274    276     1   109.8000471 387.438400
    263    262    274     1   109.5600471 388.275200
    263    262    264     1   108.4600466 328.025600
    264    262    274     1   109.5600471 388.275200
    265    277    278     1   109.8000471 387.438400
    265    277    279     1   109.8000471 387.438400
    266    265    277     1   109.5600471 388.275200
    266    265    267     1   108.4600466 328.025600
    267    265    277     1   109.5600471 388.275200
    268    271    272     1   109.8000471 387.438400
    268    271    273     1   109.8000471 387.438400
    269    268    271     1   109.5600471 388.275200
    269    268    270     1   108.4600466 328.025600
    270    268    271     1   109.5600471 388.275200
    271    280    281     1   109.5600471 388.275200
    271    280    282     1   109.5600471 388.275200
    272    271    280     1   109.8000471 387.438400
    272    271    273     1   107.5800459 329.699200
    273    271    280     1   109.8000471 387.438400
    274    286    287     1   109.5600471 388.275200
    274    286    288     1   109.5600471 388.275200
    275    274    286     1   109.8000471 387.438400
    275    274    276     1   107.5800459 329.699200
    276    274    286     1   109.8000471 387.438400
    277    283    284     1   109.5600471 388.275200
    277    283    285     1   109.5600471 388.275200
    278    277    283     1   109.8000471 387.438400
    278    277    279     1   107.5800459 329.699200
    279    277    283     1   109.8000471 387.438400
    281    280    289     1   109.7800468 425.094400
    281    280    282     1   108.4600466 328.025600
    282    280    289     1   109.7800468 425.094400
    284    283    608     1   109.7800468 425.094400
    284    283    285     1   108.4600466 328.025600
    285    283    608     1   109.7800468 425.094400
    287    286    637     1   109.7800468 425.094400
    287    286    288     1   108.4600466 328.025600
    288    286    637     1   109.7800468 425.094400
    290    291    292     1   109.8800469 414.216000
    290    291    293     1   109.8800469 414.216000
    290    294    295     1   109.8800469 414.216000
    290    294    296     1   109.8800469 414.216000
    290    297    298     1   109.8800469 414.216000
    290    297    299     1   109.8800469 414.216000
    291    303    304     1   109.8000471 387.438400
    291    303    305     1   109.8000471 387.438400
    292    291    303     1   109.5600471 388.275200
    292    291    293     1   108.4600466 328.025600
    293    291    303     1   109.5600471 388.275200
    294    306    307     1   109.8000471 387.438400
    294    306    308     1   109.8000471 387.438400
    295    294    306     1   109.5600471 388.275200
    295    294    296     1   108.4600466 328.025600
    296    294    306     1   109.5600471 388.275200
    297    300    301     1   109.8000471 387.438400
    297    300    302     1   109.8000471 387.438400
    298    297    300     1   109.5600471 388.275200
    298    297    299     1   108.4600466 328.025600
    299    297    300     1   109.5600471 388.275200
    300    309    310     1   109.5600471 388.275200
    300    309    311     1   109.5600471 388.275200
    301    300    309     1   109.8000471 387.438400
    301    300    302     1   107.5800459 329.699200
    302    300    309     1   109.8000471 387.438400
    303    315    316     1   109.5600471 388.275200
    303    315    317     1   109.5600471 388.275200
    304    303    315     1   109.8000471 387.438400
    304    303    305     1   107.5800459 329.699200
    305    303    315     1   109.8000471 387.438400
    306    312    313     1   109.5600471 388.275200
    306    312    314     1   109.5600471 388.275200
    307    306    312     1   109.8000471 387.438400
    307    306    308     1   107.5800459 329.699200
    308    306    312     1   109.8000471 387.438400
    310    309    318     1   109.7800468 425.094400
    310    309    311     1   108.4600466 328.025600
    311    309    318     1   109.7800468 425.094400
    313    312    668     1   109.7800468 425.094400
    313    312    314     1   108.4600466 328.025600
    314    312    668     1   109.7800468 425.094400
    316    315    699     1   109.7800468 425.094400
    316    315    317     1   108.4600466 328.025600
    317    315    699     1   109.7800468 425.094400
    319    320    321     1   109.8800469 414.216000
    319    320    322     1   109.8800469 414.216000
    319    323    324     1   109.8800469 414.216000
    319    323    325     1   109.8800469 414.216000
    319    326    327     1   109.8800469 414.216000
    319    326    328     1   109.8800469 414.216000
    320    332    333     1   109.8000471 387.438400
    320    332    334     1   109.8000471 387.438400
    321    320    332     1   109.5600471 388.275200
    321    320    322     1   108.4600466 328.025600
    322    320    332     1   109.5600471 388.275200
    323    335    336     1   109.8000471 387.438400
    323    335    337     1   109.8000471 387.438400
    324    323    335     1   109.5600471 388.275200
    324    323    325     1   108.4600466 328.025600
    325    323    335     1   109.5600471 388.275200
    326    329    330     1   109.8000471 387.438400
    326    329    331     1   109.8000471 387.438400
    327    326    329     1   109.5600471 388.275200
    327    326    328     1   108.4600466 328.025600
    328    326    329     1   109.5600471 388.275200
    329    338    339     1   109.5600471 388.275200
    329    338    340     1   109.5600471 388.275200
    330    329    338     1   109.8000471 387.438400
    330    329    331     1   107.5800459 329.699200
    331    329    338     1   109.8000471 387.438400
    332    344    345     1   109.5600471 388.275200
    332    344    346     1   109.5600471 388.275200
    333    332    344     1   109.8000471 387.438400
    333    332    334     1   107.5800459 329.699200
    334    332    344     1   109.8000471 387.438400
    335    341    342     1   109.5600471 388.275200
    335    341    343     1   109.5600471 388.275200
    336    335    341     1   109.8000471 387.438400
    336    335    337     1   107.5800459 329.699200
    337    335    341     1   109.8000471 387.438400
    339    338    347     1   109.7800468 425.094400
    339    338    340     1   108.4600466 328.025600
    340    338    347     1   109.7800468 425.094400
    342    341    730     1   109.7800468 425.094400
    342    341    343     1   108.4600466 328.025600
    343    341    730     1   109.7800468 425.094400
    345    344    761     1   109.7800468 425.094400
    345    344    346     1   108.4600466 328.025600
    346    344    761     1   109.7800468 425.094400
    348    349    350     1   109.8800469 414.216000
    348    349    351     1   109.8800469 414.216000
    348    352    353     1   109.8800469 414.216000
    348    352    354     1   109.8800469 414.216000
    348    355    356     1   109.8800469 414.216000
    348    355    357     1   109.8800469 414.216000
    349    361    362     1   109.8000471 387.438400
    349    361    363     1   109.8000471 387.438400
    350    349    361     1   109.5600471 388.275200
    350    349    351     1   108.4600466 328.025600
    351    349    361     1   109.5600471 388.275200
    352    364    365     1   109.8000471 387.438400
    352    364    366     1   109.8000471 387.438400
    353    352    364     1   109.5600471 388.275200
    353    352    354     1   108.4600466 328.025600
    354    352    364     1   109.5600471 388.275200
    355    358    359     1   109.8000471 387.438400
    355    358    360     1   109.8000471 387.438400
    356    355    358     1   109.5600471 388.275200
    356    355    357     1   108.4600466 328.025600
    357    355    358     1   109.5600471 388.275200
    358    367    368     1   109.5600471 388.275200
    358    367    369     1   109.5600471 388.275200
    359    358    367     1   109.8000471 387.438400
    359    358    360     1   107.5800459 329.699200
    360    358    367     1   109.8000471 387.438400
    361    373    374     1   109.5600471 388.275200
    361    373    375     1   109.5600471 388.275200
    362    361    373     1   109.8000471 387.438400
    362    361    363     1   107.5800459 329.699200
    363    361    373     1   109.8000471 387.438400
    364    370    371     1   109.5600471 388.275200
    364    370    372     1   109.5600471 388.275200
    365    364    370     1   109.8000471 387.438400
    365    364    366     1   107.5800459 329.699200
    366    364    370     1   109.8000471 387.438400
    368    367    376     1   109.7800468 425.094400
    368    367    369     1   108.4600466 328.025600
    369    367    376     1   109.7800468 425.094400
    371    370    792     1   109.7800468 425.094400
    371    370    372     1   108.4600466 328.025600
    372    370    792     1   109.7800468 425.094400
    374    373    823     1   109.7800468 425.094400
    374    373    375     1   108.4600466 328.025600
    375    373    823     1   109.7800468 425.094400
    377    378    379     1   109.8800469 414.216000
    377    378    380     1   109.8800469 414.216000
    377    381    382     1   109.8800469 414.216000
    377    381    383     1   109.8800469 414.216000
    377    384    385     1   109.8800469 414.216000
    377    384    386     1   109.8800469 414.216000
    378    390    391     1   109.8000471 387.438400
    378    390    392     1   109.8000471 387.438400
    379    378    390     1   109.5600471 388.275200
    379    378    380     1   108.4600466 328.025600
    380    378    390     1   109.5600471 388.275200
    381    393    394     1   109.8000471 387.438400
    381    393    395     1   109.8000471 387.438400
    382    381    393     1   109.5600471 388.275200
    382    381    383     1   108.4600466 328.025600
    383    381    393     1   109.5600471 388.275200
    384    387    388     1   109.8000471 387.438400
    384    387    389     1   109.8000471 387.438400
    385    384    387     1   109.5600471 388.275200
    385    384    386     1   108.4600466 328.025600
    386    384    387     1   109.5600471 388.275200
    387    396    397     1   109.5600471 388.275200
    387    396    398     1   109.5600471 388.275200
    388    387    396     1   109.8000471 387.438400
    388    387    389     1   107.5800459 329.699200
    389    387    396     1   109.8000471 387.438400
    390    402    403     1   109.5600471 388.275200
    390    402    404     1   109.5600471 388.275200
    391    390    402     1   109.8000471 387.438400
    391    390    392     1   107.5800459 329.699200
    392    390    402     1   109.8000471 387.438400
    393    399    400     1   109.5600471 388.275200
    393    399    401     1   109.5600471 388.275200
    394    393    399     1   109.8000471 387.438400
    394    393    395     1   107.5800459 329.699200
    395    393    399     1   109.8000471 387.438400
    397    396    405     1   109.7800468 425.094400
    397    396    398     1   108.4600466 328.025600
    398    396    405     1   109.7800468 425.094400
    400    399    854     1   109.7800468 425.094400
    400    399    401     1   108.4600466 328.025600
    401    399    854     1   109.7800468 425.094400
    403    402    885     1   109.7800468 425.094400
    403    402    404     1   108.4600466 328.025600
    404    402    885     1   109.7800468 425.094400
    406    407    408     1   109.8800469 414.216000
    406    407    409     1   109.8800469 414.216000
    406    410    411     1   109.8800469 414.216000
    406    410    412     1   109.8800469 414.216000
    406    413    414     1   109.8800469 414.216000
    406    413    415     1   109.8800469 414.216000
    407    419    420     1   109.8000471 387.438400
    407    419    421     1   109.8000471 387.438400
    408    407    419     1   109.5600471 388.275200
    408    407    409     1   108.4600466 328.025600
    409    407    419     1   109.5600471 388.275200
    410    422    423     1   109.8000471 387.438400
    410    422    424     1   109.8000471 387.438400
    411    410    422     1   109.5600471 388.275200
    411    410    412     1   108.4600466 328.025600
    412    410    422     1   109.5600471 388.275200
    413    416    417     1   109.8000471 387.438400
    413    416    418     1   109.8000471 387.438400
    414    413    416     1   109.5600471 388.275200
    414    413    415     1   108.4600466 328.025600
    415    413    416     1   109.5600471 388.275200
    416    425    426     1   109.5600471 388.275200
    416    425    427     1   109.5600471 388.275200
    417    416    425     1   109.8000471 387.438400
    417    416    418     1   107.5800459 329.699200
    418    416    425     1   109.8000471 387.438400
    419    431    432     1   109.5600471 388.275200
    419    431    433     1   109.5600471 388.275200
    420    419    431     1   109.8000471 387.438400
    420    419    421     1   107.5800459 329.699200
    421    419    431     1   109.8000471 387.438400
    422    428    429     1   109.5600471 388.275200
    422    428    430     1   109.5600471 388.275200
    423    422    428     1   109.8000471 387.438400
    423    422    424     1   107.5800459 329.699200
    424    422    428     1   109.8000471 387.438400
    426    425    434     1   109.7800468 425.094400
    426    425    427     1   108.4600466 328.025600
    427    425    434     1   109.7800468 425.094400
    429    428    916     1   109.7800468 425.094400
    429    428    430     1   108.4600466 328.025600
    430    428    916     1   109.7800468 425.094400
    432    431    947     1   109.7800468 425.094400
    432    431    433     1   108.4600466 328.025600
    433    431    947     1   109.7800468 425.094400
    435    436    437     1   109.8800469 414.216000
    435    436    438     1   109.8800469 414.216000
    435    439    440     1   109.8800469 414.216000
    435    439    441     1   109.8800469 414.216000
    435    442    443     1   109.8800469 414.216000
    435    442    444     1   109.8800469 414.216000
    436    448    449     1   109.8000471 387.438400
    436    448    450     1   109.8000471 387.438400
    437    436    448     1   109.5600471 388.275200
    437    436    438     1   108.4600466 328.025600
    438    436    448     1   109.5600471 388.275200
    439    451    452     1   109.8000471 387.438400
    439    451    453     1   109.8000471 387.438400
    440    439    451     1   109.5600471 388.275200
    440    439    441     1   108.4600466 328.025600
    441    439    451     1   109.5600471 388.275200
    442    445    446     1   109.8000471 387.438400
    442    445    447     1   109.8000471 387.438400
    443    442    445     1   109.5600471 388.275200
    443    442    444     1   108.4600466 328.025600
    444    442    445     1   109.5600471 388.275200
    445    454    455     1   109.5600471 388.275200
    445    454    456     1   109.5600471 388.275200
    446    445    454     1   109.8000471 387.438400
    446    445    447     1   107.5800459 329.699200
    447    445    454     1   109.8000471 387.438400
    448    460    461     1   109.5600471 388.275200
    448    460    462     1   109.5600471 388.275200
    449    448    460     1   109.8000471 387.438400
    449    448    450     1   107.5800459 329.699200
    450    448    460     1   109.8000471 387.438400
    451    457    458     1   109.5600471 388.275200
    451    457    459     1   109.5600471 388.275200
    452    451    457     1   109.8000471 387.438400
    452    451    453     1   107.5800459 329.699200
    453    451    457     1   109.8000471 387.438400
    455    454    463     1   109.7800468 425.094400
    455    454    456     1   108.4600466 328.025600
    456    454    463     1   109.7800468 425.094400
    458    457    978     1   109.7800468 425.094400
    458    457    459     1   108.4600466 328.025600
    459    457    978     1   109.7800468 425.094400
    461    460   1009     1   109.7800468 425.094400
    461    460    462     1   108.4600466 328.025600
    462    460   1009     1   109.7800468 425.094400
    464    465    466     1   109.8800469 414.216000
    464    465    467     1   109.8800469 414.216000
    464    468    469     1   109.8800469 414.216000
    464    468    470     1   109.8800469 414.216000
    464    471    472     1   109.8800469 414.216000
    464    471    473     1   109.8800469 414.216000
    465    477    478     1   109.8000471 387.438400
    465    477    479     1   109.8000471 387.438400
    466    465    477     1   109.5600471 388.275200
    466    465    467     1   108.4600466 328.025600
    467    465    477     1   109.5600471 388.275200
    468    480    481     1   109.8000471 387.438400
    468    480    482     1   109.8000471 387.438400
    469    468    480     1   109.5600471 388.275200
    469    468    470     1   108.4600466 328.025600
    470    468    480     1   109.5600471 388.275200
    471    474    475     1   109.8000471 387.438400
    471    474    476     1   109.8000471 387.438400
    472    471    474     1   109.5600471 388.275200
    472    471    473     1   108.4600466 328.025600
    473    471    474     1   109.5600471 388.275200
    474    483    484     1   109.5600471 388.275200
    474    483    485     1   109.5600471 388.275200
    475    474    483     1   109.8000471 387.438400
    475    474    476     1   107.5800459 329.699200
    476    474    483     1   109.8000471 387.438400
    477    489    490     1   109.5600471 388.275200
    477    489    491     1   109.5600471 388.275200
    478    477    489     1   109.8000471 387.438400
    478    477    479     1   107.5800459 329.699200
    479    477    489     1   109.8000471 387.438400
    480    486    487     1   109.5600471 388.275200
    480    486    488     1   109.5600471 388.275200
    481    480    486     1   109.8000471 387.438400
    481    480    482     1   107.5800459 329.699200
    482    480    486     1   109.8000471 387.438400
    484    483    492     1   109.7800468 425.094400
    484    483    485     1   108.4600466 328.025600
    485    483    492     1   109.7800468 425.094400
    487    486   1040     1   109.7800468 425.094400
    487    486    488     1   108.4600466 328.025600
    488    486   1040     1   109.7800468 425.094400
    490    489   1071     1   109.7800468 425.094400
    490    489    491     1   108.4600466 328.025600
    491    489   1071     1   109.7800468 425.094400
    493    494    495     1   109.8800469 414.216000
    493    494    496     1   109.8800469 414.216000
    493    497    498     1   109.8800469 414.216000
    493    497    499     1   109.8800469 414.216000
    493    500    501     1   109.8800469 414.216000
    493    500    502     1   109.8800469 414.216000
    494    506    507     1   109.8000471 387.438400
    494    506    508     1   109.8000471 387.438400
    495    494    506     1   109.5600471 388.275200
    495    494    496     1   108.4600466 328.025600
    496    494    506     1   109.5600471 388.275200
    497    509    510     1   109.8000471 387.438400
    497    509    511     1   109.8000471 387.438400
    498    497    509     1   109.5600471 388.275200
    498    497    499     1   108.4600466 328.025600
    499    497    509     1   109.5600471 388.275200
    500    503    504     1   109.8000471 387.438400
    500    503    505     1   109.8000471 387.438400
    501    500    503     1   109.5600471 388.275200
    501    500    502     1   108.4600466 328.025600
    502    500    503     1   109.5600471 388.275200
    503    512    513     1   109.5600471 388.275200
    503    512    514     1   109.5600471 388.275200
    504    503    512     1   109.8000471 387.438400
    504    503    505     1   107.5800459 329.699200
    505    503    512     1   109.8000471 387.438400
    506    518    519     1   109.5600471 388.275200
    506    518    520     1   109.5600471 388.275200
    507    506    518     1   109.8000471 387.438400
    507    506    508     1   107.5800459 329.699200
    508    506    518     1   109.8000471 387.438400
    509    515    516     1   109.5600471 388.275200
    509    515    517     1   109.5600471 388.275200
    510    509    515     1   109.8000471 387.438400
    510    509    511     1   107.5800459 329.699200
    511    509    515     1   109.8000471 387.438400
    513    512    521     1   109.7800468 425.094400
    513    512    514     1   108.4600466 328.025600
    514    512    521     1   109.7800468 425.094400
    516    515   1102     1   109.7800468 425.094400
    516    515    517     1   108.4600466 328.025600
    517    515   1102     1   109.7800468 425.094400
    519    518   1133     1   109.7800468 425.094400
    519    518    520     1   108.4600466 328.025600
    520    518   1133     1   109.7800468 425.094400
    522    523    524     1   109.8800469 414.216000
    522    523    525     1   109.8800469 414.216000
    522    526    527     1   109.8800469 414.216000
    522    526    528     1   109.8800469 414.216000
    522    529    530     1   109.8800469 414.216000
    522    529    531     1   109.8800469 414.216000
    523    535    536     1   109.8000471 387.438400
    523    535    537     1   109.8000471 387.438400
    524    523    535     1   109.5600471 388.275200
    524    523    525     1   108.4600466 328.025600
    525    523    535     1   109.5600471 388.275200
    526    538    539     1   109.8000471 387.438400
    526    538    540     1   109.8000471 387.438400
    527    526    538     1   109.5600471 388.275200
    527    526    528     1   108.4600466 328.025600
    528    526    538     1   109.5600471 388.275200
    529    532    533     1   109.8000471 387.438400
    529    532    534     1   109.8000471 387.438400
    530    529    532     1   109.5600471 388.275200
    530    529    531     1   108.4600466 328.025600
    531    529    532     1   109.5600471 388.275200
    532    541    542     1   109.5600471 388.275200
    532    541    543     1   109.5600471 388.275200
    533    532    541     1   109.8000471 387.438400
    533    532    534     1   107.5800459 329.699200
    534    532    541     1   109.8000471 387.438400
    535    547    548     1   109.5600471 388.275200
    535    547    549     1   109.5600471 388.275200
    536    535    547     1   109.8000471 387.438400
    536    535    537     1   107.5800459 329.699200
    537    535    547     1   109.8000471 387.438400
    538    544    545     1   109.5600471 388.275200
    538    544    546     1   109.5600471 388.275200
    539    538    544     1   109.8000471 387.438400
    539    538    540     1   107.5800459 329.699200
    540    538    544     1   109.8000471 387.438400
    542    541    550     1   109.7800468 425.094400
    542    541    543     1   108.4600466 328.025600
    543    541    550     1   109.7800468 425.094400
    545    544   1164     1   109.7800468 425.094400
    545    544    546     1   108.4600466 328.025600
    546    544   1164     1   109.7800468 425.094400
    548    547   1195     1   109.7800468 425.094400
    548    547    549     1   108.4600466 328.025600
    549    547   1195     1   109.7800468 425.094400
    551    552    553     1   109.8800469 414.216000
    551    552    554     1   109.8800469 414.216000
    551    555    556     1   109.8800469 414.216000
    551    555    557     1   109.8800469 414.216000
    551    558    559     1   109.8800469 414.216000
    551    558    560     1   109.8800469 414.216000
    552    564    565     1   109.8000471 387.438400
    552    564    566     1   109.8000471 387.438400
    553    552    564     1   109.5600471 388.275200
    553    552    554     1   108.4600466 328.025600
    554    552    564     1   109.5600471 388.275200
    555    567    568     1   109.8000471 387.438400
    555    567    569     1   109.8000471 387.438400
    556    555    567     1   109.5600471 388.275200
    556    555    557     1   108.4600466 328.025600
    557    555    567     1   109.5600471 388.275200
    558    561    562     1   109.8000471 387.438400
    558    561    563     1   109.8000471 387.438400
    559    558    561     1   109.5600471 388.275200
    559    558    560     1   108.4600466 328.025600
    560    558    561     1   109.5600471 388.275200
    561    570    571     1   109.5600471 388.275200
    561    570    572     1   109.5600471 388.275200
    562    561    570     1   109.8000471 387.438400
    562    561    563     1   107.5800459 329.699200
    563    561    570     1   109.8000471 387.438400
    564    576    577     1   109.5600471 388.275200
    564    576    578     1   109.5600471 388.275200
    565    564    576     1   109.8000471 387.438400
    565    564    566     1   107.5800459 329.699200
    566    564    576     1   109.8000471 387.438400
    567    573    574     1   109.5600471 388.275200
    567    573    575     1   109.5600471 388.275200
    568    567    573     1   109.8000471 387.438400
    568    567    569     1   107.5800459 329.699200
    569    567    573     1   109.8000471 387.438400
    571    570    579     1   109.7800468 425.094400
    571    570    572     1   108.4600466 328.025600
    572    570    579     1   109.7800468 425.094400
    574    573   1226     1   109.7800468 425.094400
    574    573    575     1   108.4600466 328.025600
    575    573   1226     1   109.7800468 425.094400
    577    576   1257     1   109.7800468 425.094400
    577    576    578     1   108.4600466 328.025600
    578    576   1257     1   109.7800468 425.094400
    580    581    582     1   109.8800469 414.216000
    580    581    583     1   109.8800469 414.216000
    580    584    585     1   109.8800469 414.216000
    580    584    586     1   109.8800469 414.216000
    580    587    588     1   109.8800469 414.216000
    580    587    589     1   109.8800469 414.216000
    581    593    594     1   109.8000471 387.438400
    581    593    595     1   109.8000471 387.438400
    582    581    593     1   109.5600471 388.275200
    582    581    583     1   108.4600466 328.025600
    583    581    593     1   109.5600471 388.275200
    584    596    597     1   109.8000471 387.438400
    584    596    598     1   109.8000471 387.438400
    585    584    596     1   109.5600471 388.275200
    585    584    586     1   108.4600466 328.025600
    586    584    596     1   109.5600471 388.275200
    587    590    591     1   109.8000471 387.438400
    587    590    592     1   109.8000471 387.438400
    588    587    590     1   109.5600471 388.275200
    588    587    589     1   108.4600466 328.025600
    589    587    590     1   109.5600471 388.275200
    590    599    600     1   109.5600471 388.275200
    590    599    601     1   109.5600471 388.275200
    591    590    599     1   109.8000471 387.438400
    591    590    592     1   107.5800459 329.699200
    592    590    599     1   109.8000471 387.438400
    593    605    606     1   109.5600471 388.275200
    593    605    607     1   109.5600471 388.275200
    594    593    605     1   109.8000471 387.438400
    594    593    595     1   107.5800459 329.699200
    595    593    605     1   109.8000471 387.438400
    596    602    603     1   109.5600471 388.275200
    596    602    604     1   109.5600471 388.275200
    597    596    602     1   109.8000471 387.438400
    597    596    598     1   107.5800459 329.699200
    598    596    602     1   109.8000471 387.438400
    600    599    608     1   109.7800468 425.094400
    600    599    601     1   108.4600466 328.025600
    601    599    608     1   109.7800468 425.094400
    603    602   1288     1   109.7800468 425.094400
    603    602    604     1   108.4600466 328.025600
    604    602   1288     1   109.7800468 425.094400
    606    605   1319     1   109.7800468 425.094400
    606    605    607     1   108.4600466 328.025600
    607    605   1319     1   109.7800468 425.094400
    609    610    611     1   109.8800469 414.216000
    609    610    612     1   109.8800469 414.216000
    609    613    614     1   109.8800469 414.216000
    609    613    615     1   109.8800469 414.216000
    609    616    617     1   109.8800469 414.216000
    609    616    618     1   109.8800469 414.216000
    610    622    623     1   109.8000471 387.438400
    610    622    624     1   109.8000471 387.438400
    611    610    622     1   109.5600471 388.275200
    611    610    612     1   108.4600466 328.025600
    612    610    622     1   109.5600471 388.275200
    613    625    626     1   109.8000471 387.438400
    613    625    627     1   109.8000471 387.438400
    614    613    625     1   109.5600471 388.275200
    614    613    615     1   108.4600466 328.025600
    615    613    625     1   109.5600471 388.275200
    616    619    620     1   109.8000471 387.438400
    616    619    621     1   109.8000471 387.438400
    617    616    619     1   109.5600471 388.275200
    617    616    618     1   108.4600466 328.025600
    618    616    619     1   109.5600471 388.275200
    619    628    629     1   109.5600471 388.275200
    619    628    630     1   109.5600471 388.275200
    620    619    628     1   109.8000471 387.438400
    620    619    621     1   107.5800459 329.699200
    621    619    628     1   109.8000471 387.438400
    622    634    635     1   109.5600471 388.275200
    622    634    636     1   109.5600471 388.275200
    623    622    634     1   109.8000471 387.438400
    623    622    624     1   107.5800459 329.699200
    624    622    634     1   109.8000471 387.438400
    625    631    632     1   109.5600471 388.275200
    625    631    633     1   109.5600471 388.275200
    626    625    631     1   109.8000471 387.438400
    626    625    627     1   107.5800459 329.699200
    627    625    631     1   109.8000471 387.438400
    629    628    637     1   109.7800468 425.094400
    629    628    630     1   108.4600466 328.025600
    630    628    637     1   109.7800468 425.094400
    632    631   1350     1   109.7800468 425.094400
    632    631    633     1   108.4600466 328.025600
    633    631   1350     1   109.7800468 425.094400
    635    634   1381     1   109.7800468 425.094400
    635    634    636     1   108.4600466 328.025600
    636    634   1381     1   109.7800468 425.094400
    638    641    642     1   109.8000471 387.438400
    638    641    643     1   109.8000471 387.438400
    639    638    641     1   109.5600471 388.275200
    639    638    668     1   109.7800468 425.094400
    639    638    640     1   108.4600466 328.025600
    640    638    641     1   109.5600471 388.275200
    640    638    668     1   109.7800468 425.094400
    641    644    645     1   109.5600471 388.275200
    641    644    646     1   109.5600471 388.275200
    642    641    644     1   109.8000471 387.438400
    642    641    643     1   107.5800459 329.699200
    643    641    644     1   109.8000471 387.438400
    645    644    647     1   109.8800469 414.216000
    645    644    646     1   108.4600466 328.025600
    646    644    647     1   109.8800469 414.216000
    647    648    649     1   109.8800469 414.216000
    647    648    650     1   109.8800469 414.216000
    647    658    659     1   109.8800469 414.216000
    647    658    660     1   109.8800469 414.216000
    648    651    652     1   109.8000471 387.438400
    648    651    653     1   109.8000471 387.438400
    649    648    651     1   109.5600471 388.275200
    649    648    650     1   108.4600466 328.025600
    650    648    651     1   109.5600471 388.275200
    652    651    654     1   108.7700466 392.459200
    652    651    653     1   107.5800459 329.699200
    653    651    654     1   108.7700466 392.459200
    654    656    657     1   106.5500460 417.563200
    658    661    662     1   109.8000471 387.438400
    658    661    663     1   109.8000471 387.438400
    659    658    661     1   109.5600471 388.275200
    659    658    660     1   108.4600466 328.025600
    660    658    661     1   109.5600471 388.275200
    662    661    664     1   108.7700466 392.459200
    662    661    663     1   107.5800459 329.699200
    663    661    664     1   108.7700466 392.459200
    664    666    667     1   106.5500460 417.563200
    669    672    673     1   109.8000471 387.438400
    669    672    674     1   109.8000471 387.438400
    670    669    672     1   109.5600471 388.275200
    670    669    699     1   109.7800468 425.094400
    670    669    671     1   108.4600466 328.025600
    671    669    672     1   109.5600471 388.275200
    671    669    699     1   109.7800468 425.094400
    672    675    676     1   109.5600471 388.275200
    672    675    677     1   109.5600471 388.275200
    673    672    675     1   109.8000471 387.438400
    673    672    674     1   107.5800459 329.699200
    674    672    675     1   109.8000471 387.438400
    676    675    678     1   109.8800469 414.216000
    676    675    677     1   108.4600466 328.025600
    677    675    678     1   109.8800469 414.216000
    678    679    680     1   109.8800469 414.216000
    678    679    681     1   109.8800469 414.216000
    678    689    690     1   109.8800469 414.216000
    678    689    691     1   109.8800469 414.216000
    679    682    683     1   109.8000471 387.438400
    679    682    684     1   109.8000471 387.438400
    680    679    682     1   109.5600471 388.275200
    680    679    681     1   108.4600466 328.025600
    681    679    682     1   109.5600471 388.275200
    683    682    685     1   108.7700466 392.459200
    683    682    684     1   107.5800459 329.699200
    684    682    685     1   108.7700466 392.459200
    685    687    688     1   106.5500460 417.563200
    689    692    693     1   109.8000471 387.438400
    689    692    694     1   109.8000471 387.438400
    690    689    692     1   109.5600471 388.275200
    690    689    691     1   108.4600466 328.025600
    691    689    692     1   109.5600471 388.275200
    693    692    695     1   108.7700466 392.459200
    693    692    694     1   107.5800459 329.699200
    694    692    695     1   108.7700466 392.459200
    695    697    698     1   106.5500460 417.563200
    700    703    704     1   109.8000471 387.438400
    700    703    705     1   109.8000471 387.438400
    701    700    703     1   109.5600471 388.275200
    701    700    730     1   109.7800468 425.094400
    701    700    702     1   108.4600466 328.025600
    702    700    703     1   109.5600471 388.275200
    702    700    730     1   109.7800468 425.094400
    703    706    707     1   109.5600471 388.275200
    703    706    708     1   109.5600471 388.275200
    704    703    706     1   109.8000471 387.438400
    704    703    705     1   107.5800459 329.699200
    705    703    706     1   109.8000471 387.438400
    707    706    709     1   109.8800469 414.216000
    707    706    708     1   108.4600466 328.025600
    708    706    709     1   109.8800469 414.216000
    709    710    711     1   109.8800469 414.216000
    709    710    712     1   109.8800469 414.216000
    709    720    721     1   109.8800469 414.216000
    709    720    722     1   109.8800469 414.216000
    710    713    714     1   109.8000471 387.438400
    710    713    715     1   109.8000471 387.438400
    711    710    713     1   109.5600471 388.275200
    711    710    712     1   108.4600466 328.025600
    712    710    713     1   109.5600471 388.275200
    714    713    716     1   108.7700466 392.459200
    714    713    715     1   107.5800459 329.699200
    715    713    716     1   108.7700466 392.459200
    716    718    719     1   106.5500460 417.563200
    720    723    724     1   109.8000471 387.438400
    720    723    725     1   109.8000471 387.438400
    721    720    723     1   109.5600471 388.275200
    721    720    722     1   108.4600466 328.025600
    722    720    723     1   109.5600471 388.275200
    724    723    726     1   108.7700466 392.459200
    724    723    725     1   107.5800459 329.699200
    725    723    726     1   108.7700466 392.459200
    726    728    729     1   106.5500460 417.563200
    731    734    735     1   109.8000471 387.438400
    731    734    736     1   109.8000471 387.438400
    732    731    734     1   109.5600471 388.275200
    732    731    761     1   109.7800468 425.094400
    732    731    733     1   108.4600466 328.025600
    733    731    734     1   109.5600471 388.275200
    733    731    761     1   109.7800468 425.094400
    734    737    738     1   109.5600471 388.275200
    734    737    739     1   109.5600471 388.275200
    735    734    737     1   109.8000471 387.438400
    735    734    736     1   107.5800459 329.699200
    736    734    737     1   109.8000471 387.438400
    738    737    740     1   109.8800469 414.216000
    738    737    739     1   108.4600466 328.025600
    739    737    740     1   109.8800469 414.216000
    740    741    742     1   109.8800469 414.216000
    740    741    743     1   109.8800469 414.216000
    740    751    752     1   109.8800469 414.216000
    740    751    753     1   109.8800469 414.216000
    741    744    745     1   109.8000471 387.438400
    741    744    746     1   109.8000471 387.438400
    742    741    744     1   109.5600471 388.275200
    742    741    743     1   108.4600466 328.025600
    743    741    744     1   109.5600471 388.275200
    745    744    747     1   108.7700466 392.459200
    745    744    746     1   107.5800459 329.699200
    746    744    747     1   108.7700466 392.459200
    747    749    750     1   106.5500460 417.563200
    751    754    755     1   109.8000471 387.438400
    751    754    756     1   109.8000471 387.438400
    752    751    754     1   109.5600471 388.275200
    752    751    753     1   108.4600466 328.025600
    753    751    754     1   109.5600471 388.275200
    755    754    757     1   108.7700466 392.459200
    755    754    756     1   107.5800459 329.699200
    756    754    757     1   108.7700466 392.459200
    757    759    760     1   106.5500460 417.563200
    762    765    766     1   109.8000471 387.438400
    762    765    767     1   109.8000471 387.438400
    763    762    765     1   109.5600471 388.275200
    763    762    792     1   109.7800468 425.094400
    763    762    764     1   108.4600466 328.025600
    764    762    765     1   109.5600471 388.275200
    764    762    792     1   109.7800468 425.094400
    765    768    769     1   109.5600471 388.275200
    765    768    770     1   109.5600471 388.275200
    766    765    768     1   109.8000471 387.438400
    766    765    767     1   107.5800459 329.699200
    767    765    768     1   109.8000471 387.438400
    769    768    771     1   109.8800469 414.216000
    769    768    770     1   108.4600466 328.025600
    770    768    771     1   109.8800469 414.216000
    771    772    773     1   109.8800469 414.216000
    771    772    774     1   109.8800469 414.216000
    771    782    783     1   109.8800469 414.216000
    771    782    784     1   109.8800469 414.216000
    772    775    776     1   109.8000471 387.438400
    772    775    777     1   109.8000471 387.438400
    773    772    775     1   109.5600471 388.275200
    773    772    774     1   108.4600466 328.025600
    774    772    775     1   109.5600471 388.275200
    776    775    778     1   108.7700466 392.459200
    776    775    777     1   107.5800459 329.699200
    777    775    778     1   108.7700466 392.459200
    778    780    781     1   106.5500460 417.563200
    782    785    786     1   109.8000471 387.438400
    782    785    787     1   109.8000471 387.438400
    783    782    785     1   109.5600471 388.275200
    783    782    784     1   108.4600466 328.025600
    784    782    785     1   109.5600471 388.275200
    786    785    788     1   108.7700466 392.459200
    786    785    787     1   107.5800459 329.699200
    787    785    788     1   108.7700466 392.459200
    788    790    791     1   106.5500460 417.563200
    793    796    797     1   109.8000471 387.438400
    793    796    798     1   109.8000471 387.438400
    794    793    796     1   109.5600471 388.275200
    794    793    823     1   109.7800468 425.094400
    794    793    795     1   108.4600466 328.025600
    795    793    796     1   109.5600471 388.275200
    795    793    823     1   109.7800468 425.094400
    796    799    800     1   109.5600471 388.275200
    796    799    801     1   109.5600471 388.275200
    797    796    799     1   109.8000471 387.438400
    797    796    798     1   107.5800459 329.699200
    798    796    799     1   109.8000471 387.438400
    800    799    802     1   109.8800469 414.216000
    800    799    801     1   108.4600466 328.025600
    801    799    802     1   109.8800469 414.216000
    802    803    804     1   109.8800469 414.216000
    802    803    805     1   109.8800469 414.216000
    802    813    814     1   109.8800469 414.216000
    802    813    815     1   109.8800469 414.216000
    803    806    807     1   109.8000471 387.438400
    803    806    808     1   109.8000471 387.438400
    804    803    806     1   109.5600471 388.275200
    804    803    805     1   108.4600466 328.025600
    805    803    806     1   109.5600471 388.275200
    807    806    809     1   108.7700466 392.459200
    807    806    808     1   107.5800459 329.699200
    808    806    809     1   108.7700466 392.459200
    809    811    812     1   106.5500460 417.563200
    813    816    817     1   109.8000471 387.438400
    813    816    818     1   109.8000471 387.438400
    814    813    816     1   109.5600471 388.275200
    814    813    815     1   108.4600466 328.025600
    815    813    816     1   109.5600471 388.275200
    817    816    819     1   108.7700466 392.459200
    817    816    818     1   107.5800459 329.699200
    818    816    819     1   108.7700466 392.459200
    819    821    822     1   106.5500460 417.563200
    824    827    828     1   109.8000471 387.438400
    824    827    829     1   109.8000471 387.438400
    825    824    827     1   109.5600471 388.275200
    825    824    854     1   109.7800468 425.094400
    825    824    826     1   108.4600466 328.025600
    826    824    827     1   109.5600471 388.275200
    826    824    854     1   109.7800468 425.094400
    827    830    831     1   109.5600471 388.275200
    827    830    832     1   109.5600471 388.275200
    828    827    830     1   109.8000471 387.438400
    828    827    829     1   107.5800459 329.699200
    829    827    830     1   109.8000471 387.438400
    831    830    833     1   109.8800469 414.216000
    831    830    832     1   108.4600466 328.025600
    832    830    833     1   109.8800469 414.216000
    833    834    835     1   109.8800469 414.216000
    833    834    836     1   109.8800469 414.216000
    833    844    845     1   109.8800469 414.216000
    833    844    846     1   109.8800469 414.216000
    834    837    838     1   109.8000471 387.438400
    834    837    839     1   109.8000471 387.438400
    835    834    837     1   109.5600471 388.275200
    835    834    836     1   108.4600466 328.025600
    836    834    837     1   109.5600471 388.275200
    838    837    840     1   108.7700466 392.459200
    838    837    839     1   107.5800459 329.699200
    839    837    840     1   108.7700466 392.459200
    840    842    843     1   106.5500460 417.563200
    844    847    848     1   109.8000471 387.438400
    844    847    849     1   109.8000471 387.438400
    845    844    847     1   109.5600471 388.275200
    845    844    846     1   108.4600466 328.025600
    846    844    847     1   109.5600471 388.275200
    848    847    850     1   108.7700466 392.459200
    848    847    849     1   107.5800459 329.699200
    849    847    850     1   108.7700466 392.459200
    850    852    853     1   106.5500460 417.563200
    855    858    859     1   109.8000471 387.438400
    855    858    860     1   109.8000471 387.438400
    856    855    858     1   109.5600471 388.275200
    856    855    885     1   109.7800468 425.094400
    856    855    857     1   108.4600466 328.025600
    857    855    858     1   109.5600471 388.275200
    857    855    885     1   109.7800468 425.094400
    858    861    862     1   109.5600471 388.275200
    858    861    863     1   109.5600471 388.275200
    859    858    861     1   109.8000471 387.438400
    859    858    860     1   107.5800459 329.699200
    860    858    861     1   109.8000471 387.438400
    862    861    864     1   109.8800469 414.216000
    862    861    863     1   108.4600466 328.025600
    863    861    864     1   109.8800469 414.216000
    864    865    866     1   109.8800469 414.216000
    864    865    867     1   109.8800469 414.216000
    864    875    876     1   109.8800469 414.216000
    864    875    877     1   109.8800469 414.216000
    865    868    869     1   109.8000471 387.438400
    865    868    870     1   109.8000471 387.438400
    866    865    868     1   109.5600471 388.275200
    866    865    867     1   108.4600466 328.025600
    867    865    868     1   109.5600471 388.275200
    869    868    871     1   108.7700466 392.459200
    869    868    870     1   107.5800459 329.699200
    870    868    871     1   108.7700466 392.459200
    871    873    874     1   106.5500460 417.563200
    875    878    879     1   109.8000471 387.438400
    875    878    880     1   109.8000471 387.438400
    876    875    878     1   109.5600471 388.275200
    876    875    877     1   108.4600466 328.025600
    877    875    878     1   109.5600471 388.275200
    879    878    881     1   108.7700466 392.459200
    879    878    880     1   107.5800459 329.699200
    880    878    881     1   108.7700466 392.459200
    881    883    884     1   106.5500460 417.563200
    886    889    890     1   109.8000471 387.438400
    886    889    891     1   109.8000471 387.438400
    887    886    889     1   109.5600471 388.275200
    887    886    916     1   109.7800468 425.094400
    887    886    888     1   108.4600466 328.025600
    888    886    889     1   109.5600471 388.275200
    888    886    916     1   109.7800468 425.094400
    889    892    893     1   109.5600471 388.275200
    889    892    894     1   109.5600471 388.275200
    890    889    892     1   109.8000471 387.438400
    890    889    891     1   107.5800459 329.699200
    891    889    892     1   109.8000471 387.438400
    893    892    895     1   109.8800469 414.216000
    893    892    894     1   108.4600466 328.025600
    894    892    895     1   109.8800469 414.216000
    895    896    897     1   109.8800469 414.216000
    895    896    898     1   109.8800469 414.216000
    895    906    907     1   109.8800469 414.216000
    895    906    908     1   109.8800469 414.216000
    896    899    900     1   109.8000471 387.438400
    896    899    901     1   109.8000471 387.438400
    897    896    899     1   109.5600471 388.275200
    897    896    898     1   108.4600466 328.025600
    898    896    899     1   109.5600471 388.275200
    900    899    902     1   108.7700466 392.459200
    900    899    901     1   107.5800459 329.699200
    901    899    902     1   108.7700466 392.459200
    902    904    905     1   106.5500460 417.563200
    906    909    910     1   109.8000471 387.438400
    906    909    911     1   109.8000471 387.438400
    907    906    909     1   109.5600471 388.275200
    907    906    908     1   108.4600466 328.025600
    908    906    909     1   109.5600471 388.275200
    910    909    912     1   108.7700466 392.459200
    910    909    911     1   107.5800459 329.699200
    911    909    912     1   108.7700466 392.459200
    912    914    915     1   106.5500460 417.563200
    917    920    921     1   109.8000471 387.438400
    917    920    922     1   109.8000471 387.438400
    918    917    920     1   109.5600471 388.275200
    918    917    947     1   109.7800468 425.094400
    918    917    919     1   108.4600466 328.025600
    919    917    920     1   109.5600471 388.275200
    919    917    947     1   109.7800468 425.094400
    920    923    924     1   109.5600471 388.275200
    920    923    925     1   109.5600471 388.275200
    921    920    923     1   109.8000471 387.438400
    921    920    922     1   107.5800459 329.699200
    922    920    923     1   109.8000471 387.438400
    924    923    926     1   109.8800469 414.216000
    924    923    925     1   108.4600466 328.025600
    925    923    926     1   109.8800469 414.216000
    926    927    928     1   109.8800469 414.216000
    926    927    929     1   109.8800469 414.216000
    926    937    938     1   109.8800469 414.216000
    926    937    939     1   109.8800469 414.216000
    927    930    931     1   109.8000471 387.438400
    927    930    932     1   109.8000471 387.438400
    928    927    930     1   109.5600471 388.275200
    928    927    929     1   108.4600466 328.025600
    929    927    930     1   109.5600471 388.275200
    931    930    933     1   108.7700466 392.459200
    931    930    932     1   107.5800459 329.699200
    932    930    933     1   108.7700466 392.459200
    933    935    936     1   106.5500460 417.563200
    937    940    941     1   109.8000471 387.438400
    937    940    942     1   109.8000471 387.438400
    938    937    940     1   109.5600471 388.275200
    938    937    939     1   108.4600466 328.025600
    939    937    940     1   109.5600471 388.275200
    941    940    943     1   108.7700466 392.459200
    941    940    942     1   107.5800459 329.699200
    942    940    943     1   108.7700466 392.459200
    943    945    946     1   106.5500460 417.563200
    948    951    952     1   109.8000471 387.438400
    948    951    953     1   109.8000471 387.438400
    949    948    951     1   109.5600471 388.275200
    949    948    978     1   109.7800468 425.094400
    949    948    950     1   108.4600466 328.025600
    950    948    951     1   109.5600471 388.275200
    950    948    978     1   109.7800468 425.094400
    951    954    955     1   109.5600471 388.275200
    951    954    956     1   109.5600471 388.275200
    952    951    954     1   109.8000471 387.438400
    952    951    953     1   107.5800459 329.699200
    953    951    954     1   109.8000471 387.438400
    955    954    957     1   109.8800469 414.216000
    955    954    956     1   108.4600466 328.025600
    956    954    957     1   109.8800469 414.216000
    957    958    959     1   109.8800469 414.216000
    957    958    960     1   109.8800469 414.216000
    957    968    969     1   109.8800469 414.216000
    957    968    970     1   109.8800469 414.216000
    958    961    962     1   109.8000471 387.438400
    958    961    963     1   109.8000471 387.438400
    959    958    961     1   109.5600471 388.275200
    959    958    960     1   108.4600466 328.025600
    960    958    961     1   109.5600471 388.275200
    962    961    964     1   108.7700466 392.459200
    962    961    963     1   107.5800459 329.699200
    963    961    964     1   108.7700466 392.459200
    964    966    967     1   106.5500460 417.563200
    968    971    972     1   109.8000471 387.438400
    968    971    973     1   109.8000471 387.438400
    969    968    971     1   109.5600471 388.275200
    969    968    970     1   108.4600466 328.025600
    970    968    971     1   109.5600471 388.275200
    972    971    974     1   108.7700466 392.459200
    972    971    973     1   107.5800459 329.699200
    973    971    974     1   108.7700466 392.459200
    974    976    977     1   106.5500460 417.563200
    979    982    983     1   109.8000471 387.438400
    979    982    984     1   109.8000471 387.438400
    980    979    982     1   109.5600471 388.275200
    980    979   1009     1   109.7800468 425.094400
    980    979    981     1   108.4600466 328.025600
    981    979    982     1   109.5600471 388.275200
    981    979   1009     1   109.7800468 425.094400
    982    985    986     1   109.5600471 388.275200
    982    985    987     1   109.5600471 388.275200
    983    982    985     1   109.8000471 387.438400
    983    982    984     1   107.5800459 329.699200
    984    982    985     1   109.8000471 387.438400
    986    985    988     1   109.8800469 414.216000
    986    985    987     1   108.4600466 328.025600
    987    985    988     1   109.8800469 414.216000
    988    989    990     1   109.8800469 414.216000
    988    989    991     1   109.8800469 414.216000
    988    999   1000     1   109.8800469 414.216000
    988    999   1001     1   109.8800469 414.216000
    989    992    993     1   109.8000471 387.438400
    989    992    994     1   109.8000471 387.438400
    990    989    992     1   109.5600471 388.275200
    990    989    991     1   108.4600466 328.025600
    991    989    992     1   109.5600471 388.275200
    993    992    995     1   108.7700466 392.459200
    993    992    994     1   107.5800459 329.699200
    994    992    995     1   108.7700466 392.459200
    995    997    998     1   106.5500460 417.563200
    999   1002   1003     1   109.8000471 387.438400
    999   1002   1004     1   109.8000471 387.438400
   1000    999   1002     1   109.5600471 388.275200
   1000    999   1001     1   108.4600466 328.025600
   1001    999   1002     1   109.5600471 388.275200
   1003   1002   1005     1   108.7700466 392.459200
   1003   1002   1004     1   107.5800459 329.699200
   1004   1002   1005     1   108.7700466 392.459200
   1005   1007   1008     1   106.5500460 417.563200
   1010   1013   1014     1   109.8000471 387.438400
   1010   1013   1015     1   109.8000471 387.438400
   1011   1010   1013     1   109.5600471 388.275200
   1011   1010   1040     1   109.7800468 425.094400
   1011   1010   1012     1   108.4600466 328.025600
   1012   1010   1013     1   109.5600471 388.275200
   1012   1010   1040     1   109.7800468 425.094400
   1013   1016   1017     1   109.5600471 388.275200
   1013   1016   1018     1   109.5600471 388.275200
   1014   1013   1016     1   109.8000471 387.438400
   1014   1013   1015     1   107.5800459 329.699200
   1015   1013   1016     1   109.8000471 387.438400
   1017   1016   1019     1   109.8800469 414.216000
   1017   1016   1018     1   108.4600466 328.025600
   1018   1016   1019     1   109.8800469 414.216000
   1019   1020   1021     1   109.8800469 414.216000
   1019   1020   1022     1   109.8800469 414.216000
   1019   1030   1031     1   109.8800469 414.216000
   1019   1030   1032     1   109.8800469 414.216000
   1020   1023   1024     1   109.8000471 387.438400
   1020   1023   1025     1   109.8000471 387.438400
   1021   1020   1023     1   109.5600471 388.275200
   1021   1020   1022     1   108.4600466 328.025600
   1022   1020   1023     1   109.5600471 388.275200
   1024   1023   1026     1   108.7700466 392.459200
   1024   1023   1025     1   107.5800459 329.699200
   1025   1023   1026     1   108.7700466 392.459200
   1026   1028   1029     1   106.5500460 417.563200
   1030   1033   1034     1   109.8000471 387.438400
   1030   1033   1035     1   109.8000471 387.438400
   1031   1030   1033     1   109.5600471 388.275200
   1031   1030   1032     1   108.4600466 328.025600
   1032   1030   1033     1   109.5600471 388.275200
   1034   1033   1036     1   108.7700466 392.459200
   1034   1033   1035     1   107.5800459 329.699200
   1035   1033   1036     1   108.7700466 392.459200
   1036   1038   1039     1   106.5500460 417.563200
   1041   1044   1045     1   109.8000471 387.438400
   1041   1044   1046     1   109.8000471 387.438400
   1042   1041   1044     1   109.5600471 388.275200
   1042   1041   1071     1   109.7800468 425.094400
   1042   1041   1043     1   108.4600466 328.025600
   1043   1041   1044     1   109.5600471 388.275200
   1043   1041   1071     1   109.7800468 425.094400
   1044   1047   1048     1   109.5600471 388.275200
   1044   1047   1049     1   109.5600471 388.275200
   1045   1044   1047     1   109.8000471 387.438400
   1045   1044   1046     1   107.5800459 329.699200
   1046   1044   1047     1   109.8000471 387.438400
   1048   1047   1050     1   109.8800469 414.216000
   1048   1047   1049     1   108.4600466 328.025600
   1049   1047   1050     1   109.8800469 414.216000
   1050   1051   1052     1   109.8800469 414.216000
   1050   1051   1053     1   109.8800469 414.216000
   1050   1061   1062     1   109.8800469 414.216000
   1050   1061   1063     1   109.8800469 414.216000
   1051   1054   1055     1   109.8000471 387.438400
   1051   1054   1056     1   109.8000471 387.438400
   1052   1051   1054     1   109.5600471 388.275200
   1052   1051   1053     1   108.4600466 328.025600
   1053   1051   1054     1   109.5600471 388.275200
   1055   1054   1057     1   108.7700466 392.459200
   1055   1054   1056     1   107.5800459 329.699200
   1056   1054   1057     1   108.7700466 392.459200
   1057   1059   1060     1   106.5500460 417.563200
   1061   1064   1065     1   109.8000471 387.438400
   1061   1064   1066     1   109.8000471 387.438400
   1062   1061   1064     1   109.5600471 388.275200
   1062   1061   1063     1   108.4600466 328.025600
   1063   1061   1064     1   109.5600471 388.275200
   1065   1064   1067     1   108.7700466 392.459200
   1065   1064   1066     1   107.5800459 329.699200
   1066   1064   1067     1   108.7700466 392.459200
   1067   1069   1070     1   106.5500460 417.563200
   1072   1075   1076     1   109.8000471 387.438400
   1072   1075   1077     1   109.8000471 387.438400
   1073   1072   1075     1   109.5600471 388.275200
   1073   1072   1102     1   109.7800468 425.094400
   1073   1072   1074     1   108.4600466 328.025600
   1074   1072   1075     1   109.5600471 388.275200
   1074   1072   1102     1   109.7800468 425.094400
   1075   1078   1079     1   109.5600471 388.275200
   1075   1078   1080     1   109.5600471 388.275200
   1076   1075   1078     1   109.8000471 387.438400
   1076   1075   1077     1   107.5800459 329.699200
   1077   1075   1078     1   109.8000471 387.438400
   1079   1078   1081     1   109.8800469 414.216000
   1079   1078   1080     1   108.4600466 328.025600
   1080   1078   1081     1   109.8800469 414.216000
   1081   1082   1083     1   109.8800469 414.216000
   1081   1082   1084     1   109.8800469 414.216000
   1081   1092   1093     1   109.8800469 414.216000
   1081   1092   1094     1   109.8800469 414.216000
   1082   1085   1086     1   109.8000471 387.438400
   1082   1085   1087     1   109.8000471 387.438400
   1083   1082   1085     1   109.5600471 388.275200
   1083   1082   1084     1   108.4600466 328.025600
   1084   1082   1085     1   109.5600471 388.275200
   1086   1085   1088     1   108.7700466 392.459200
   1086   1085   1087     1   107.5800459 329.699200
   1087   1085   1088     1   108.7700466 392.459200
   1088   1090   1091     1   106.5500460 417.563200
   1092   1095   1096     1   109.8000471 387.438400
   1092   1095   1097     1   109.8000471 387.438400
   1093   1092   1095     1   109.5600471 388.275200
   1093   1092   1094     1   108.4600466 328.025600
   1094   1092   1095     1   109.5600471 388.275200
   1096   1095   1098     1   108.7700466 392.459200
   1096   1095   1097     1   107.5800459 329.699200
   1097   1095   1098     1   108.7700466 392.459200
   1098   1100   1101     1   106.5500460 417.563200
   1103   1106   1107     1   109.8000471 387.438400
   1103   1106   1108     1   109.8000471 387.438400
   1104   1103   1106     1   109.5600471 388.275200
   1104   1103   1133     1   109.7800468 425.094400
   1104   1103   1105     1   108.4600466 328.025600
   1105   1103   1106     1   109.5600471 388.275200
   1105   1103   1133     1   109.7800468 425.094400
   1106   1109   1110     1   109.5600471 388.275200
   1106   1109   1111     1   109.5600471 388.275200
   1107   1106   1109     1   109.8000471 387.438400
   1107   1106   1108     1   107.5800459 329.699200
   1108   1106   1109     1   109.8000471 387.438400
   1110   1109   1112     1   109.8800469 414.216000
   1110   1109   1111     1   108.4600466 328.025600
   1111   1109   1112     1   109.8800469 414.216000
   1112   1113   1114     1   109.8800469 414.216000
   1112   1113   1115     1   109.8800469 414.216000
   1112   1123   1124     1   109.8800469 414.216000
   1112   1123   1125     1   109.8800469 414.216000
   1113   1116   1117     1   109.8000471 387.438400
   1113   1116   1118     1   109.8000471 387.438400
   1114   1113   1116     1   109.5600471 388.275200
   1114   1113   1115     1   108.4600466 328.025600
   1115   1113   1116     1   109.5600471 388.275200
   1117   1116   1119     1   108.7700466 392.459200
   1117   1116   1118     1   107.5800459 329.699200
   1118   1116   1119     1   108.7700466 392.459200
   1119   1121   1122     1   106.5500460 417.563200
   1123   1126   1127     1   109.8000471 387.438400
   1123   1126   1128     1   109.8000471 387.438400
   1124   1123   1126     1   109.5600471 388.275200
   1124   1123   1125     1   108.4600466 328.025600
   1125   1123   1126     1   109.5600471 388.275200
   1127   1126   1129     1   108.7700466 392.459200
   1127   1126   1128     1   107.5800459 329.699200
   1128   1126   1129     1   108.7700466 392.459200
   1129   1131   1132     1   106.5500460 417.563200
   1134   1137   1138     1   109.8000471 387.438400
   1134   1137   1139     1   109.8000471 387.438400
   1135   1134   1137     1   109.5600471 388.275200
   1135   1134   1164     1   109.7800468 425.094400
   1135   1134   1136     1   108.4600466 328.025600
   1136   1134   1137     1   109.5600471 388.275200
   1136   1134   1164     1   109.7800468 425.094400
   1137   1140   1141     1   109.5600471 388.275200
   1137   1140   1142     1   109.5600471 388.275200
   1138   1137   1140     1   109.8000471 387.438400
   1138   1137   1139     1   107.5800459 329.699200
   1139   1137   1140     1   109.8000471 387.438400
   1141   1140   1143     1   109.8800469 414.216000
   1141   1140   1142     1   108.4600466 328.025600
   1142   1140   1143     1   109.8800469 414.216000
   1143   1144   1145     1   109.8800469 414.216000
   1143   1144   1146     1   109.8800469 414.216000
   1143   1154   1155     1   109.8800469 414.216000
   1143   1154   1156     1   109.8800469 414.216000
   1144   1147   1148     1   109.8000471 387.438400
   1144   1147   1149     1   109.8000471 387.438400
   1145   1144   1147     1   109.5600471 388.275200
   1145   1144   1146     1   108.4600466 328.025600
   1146   1144   1147     1   109.5600471 388.275200
   1148   1147   1150     1   108.7700466 392.459200
   1148   1147   1149     1   107.5800459 329.699200
   1149   1147   1150     1   108.7700466 392.459200
   1150   1152   1153     1   106.5500460 417.563200
   1154   1157   1158     1   109.8000471 387.438400
   1154   1157   1159     1   109.8000471 387.438400
   1155   1154   1157     1   109.5600471 388.275200
   1155   1154   1156     1   108.4600466 328.025600
   1156   1154   1157     1   109.5600471 388.275200
   1158   1157   1160     1   108.7700466 392.459200
   1158   1157   1159     1   107.5800459 329.699200
   1159   1157   1160     1   108.7700466 392.459200
   1160   1162   1163     1   106.5500460 417.563200
   1165   1168   1169     1   109.8000471 387.438400
   1165   1168   1170     1   109.8000471 387.438400
   1166   1165   1168     1   109.5600471 388.275200
   1166   1165   1195     1   109.7800468 425.094400
   1166   1165   1167     1   108.4600466 328.025600
   1167   1165   1168     1   109.5600471 388.275200
   1167   1165   1195     1   109.7800468 425.094400
   1168   1171   1172     1   109.5600471 388.275200
   1168   1171   1173     1   109.5600471 388.275200
   1169   1168   1171     1   109.8000471 387.438400
   1169   1168   1170     1   107.5800459 329.699200
   1170   1168   1171     1   109.8000471 387.438400
   1172   1171   1174     1   109.8800469 414.216000
   1172   1171   1173     1   108.4600466 328.025600
   1173   1171   1174     1   109.8800469 414.216000
   1174   1175   1176     1   109.8800469 414.216000
   1174   1175   1177     1   109.8800469 414.216000
   1174   1185   1186     1   109.8800469 414.216000
   1174   1185   1187     1   109.8800469 414.216000
   1175   1178   1179     1   109.8000471 387.438400
   1175   1178   1180     1   109.8000471 387.438400
   1176   1175   1178     1   109.5600471 388.275200
   1176   1175   1177     1   108.4600466 328.025600
   1177   1175   1178     1   109.5600471 388.275200
   1179   1178   1181     1   108.7700466 392.459200
   1179   1178   1180     1   107.5800459 329.699200
   1180   1178   1181     1   108.7700466 392.459200
   1181   1183   1184     1   106.5500460 417.563200
   1185   1188   1189     1   109.8000471 387.438400
   1185   1188   1190     1   109.8000471 387.438400
   1186   1185   1188     1   109.5600471 388.275200
   1186   1185   1187     1   108.4600466 328.025600
   1187   1185   1188     1   109.5600471 388.275200
   1189   1188   1191     1   108.7700466 392.459200
   1189   1188   1190     1   107.5800459 329.699200
   1190   1188   1191     1   108.7700466 392.459200
   1191   1193   1194     1   106.5500460 417.563200
   1196   1199   1200     1   109.8000471 387.438400
   1196   1199   1201     1   109.8000471 387.438400
   1197   1196   1199     1   109.5600471 388.275200
   1197   1196   1226     1   109.7800468 425.094400
   1197   1196   1198     1   108.4600466 328.025600
   1198   1196   1199     1   109.5600471 388.275200
   1198   1196   1226     1   109.7800468 425.094400
   1199   1202   1203     1   109.5600471 388.275200
   1199   1202   1204     1   109.5600471 388.275200
   1200   1199   1202     1   109.8000471 387.438400
   1200   1199   1201     1   107.5800459 329.699200
   1201   1199   1202     1   109.8000471 387.438400
   1203   1202   1205     1   109.8800469 414.216000
   1203   1202   1204     1   108.4600466 328.025600
   1204   1202   1205     1   109.8800469 414.216000
   1205   1206   1207     1   109.8800469 414.216000
   1205   1206   1208     1   109.8800469 414.216000
   1205   1216   1217     1   109.8800469 414.216000
   1205   1216   1218     1   109.8800469 414.216000
   1206   1209   1210     1   109.8000471 387.438400
   1206   1209   1211     1   109.8000471 387.438400
   1207   1206   1209     1   109.5600471 388.275200
   1207   1206   1208     1   108.4600466 328.025600
   1208   1206   1209     1   109.5600471 388.275200
   1210   1209   1212     1   108.7700466 392.459200
   1210   1209   1211     1   107.5800459 329.699200
   1211   1209   1212     1   108.7700466 392.459200
   1212   1214   1215     1   106.5500460 417.563200
   1216   1219   1220     1   109.8000471 387.438400
   1216   1219   1221     1   109.8000471 387.438400
   1217   1216   1219     1   109.5600471 388.275200
   1217   1216   1218     1   108.4600466 328.025600
   1218   1216   1219     1   109.5600471 388.275200
   1220   1219   1222     1   108.7700466 392.459200
   1220   1219   1221     1   107.5800459 329.699200
   1221   1219   1222     1   108.7700466 392.459200
   1222   1224   1225     1   106.5500460 417.563200
   1227   1230   1231     1   109.8000471 387.438400
   1227   1230   1232     1   109.8000471 387.438400
   1228   1227   1230     1   109.5600471 388.275200
   1228   1227   1257     1   109.7800468 425.094400
   1228   1227   1229     1   108.4600466 328.025600
   1229   1227   1230     1   109.5600471 388.275200
   1229   1227   1257     1   109.7800468 425.094400
   1230   1233   1234     1   109.5600471 388.275200
   1230   1233   1235     1   109.5600471 388.275200
   1231   1230   1233     1   109.8000471 387.438400
   1231   1230   1232     1   107.5800459 329.699200
   1232   1230   1233     1   109.8000471 387.438400
   1234   1233   1236     1   109.8800469 414.216000
   1234   1233   1235     1   108.4600466 328.025600
   1235   1233   1236     1   109.8800469 414.216000
   1236   1237   1238     1   109.8800469 414.216000
   1236   1237   1239     1   109.8800469 414.216000
   1236   1247   1248     1   109.8800469 414.216000
   1236   1247   1249     1   109.8800469 414.216000
   1237   1240   1241     1   109.8000471 387.438400
   1237   1240   1242     1   109.8000471 387.438400
   1238   1237   1240     1   109.5600471 388.275200
   1238   1237   1239     1   108.4600466 328.025600
   1239   1237   1240     1   109.5600471 388.275200
   1241   1240   1243     1   108.7700466 392.459200
   1241   1240   1242     1   107.5800459 329.699200
   1242   1240   1243     1   108.7700466 392.459200
   1243   1245   1246     1   106.5500460 417.563200
   1247   1250   1251     1   109.8000471 387.438400
   1247   1250   1252     1   109.8000471 387.438400
   1248   1247   1250     1   109.5600471 388.275200
   1248   1247   1249     1   108.4600466 328.025600
   1249   1247   1250     1   109.5600471 388.275200
   1251   1250   1253     1   108.7700466 392.459200
   1251   1250   1252     1   107.5800459 329.699200
   1252   1250   1253     1   108.7700466 392.459200
   1253   1255   1256     1   106.5500460 417.563200
   1258   1261   1262     1   109.8000471 387.438400
   1258   1261   1263     1   109.8000471 387.438400
   1259   1258   1261     1   109.5600471 388.275200
   1259   1258   1288     1   109.7800468 425.094400
   1259   1258   1260     1   108.4600466 328.025600
   1260   1258   1261     1   109.5600471 388.275200
   1260   1258   1288     1   109.7800468 425.094400
   1261   1264   1265     1   109.5600471 388.275200
   1261   1264   1266     1   109.5600471 388.275200
   1262   1261   1264     1   109.8000471 387.438400
   1262   1261   1263     1   107.5800459 329.699200
   1263   1261   1264     1   109.8000471 387.438400
   1265   1264   1267     1   109.8800469 414.216000
   1265   1264   1266     1   108.4600466 328.025600
   1266   1264   1267     1   109.8800469 414.216000
   1267   1268   1269     1   109.8800469 414.216000
   1267   1268   1270     1   109.8800469 414.216000
   1267   1278   1279     1   109.8800469 414.216000
   1267   1278   1280     1   109.8800469 414.216000
   1268   1271   1272     1   109.8000471 387.438400
   1268   1271   1273     1   109.8000471 387.438400
   1269   1268   1271     1   109.5600471 388.275200
   1269   1268   1270     1   108.4600466 328.025600
   1270   1268   1271     1   109.5600471 388.275200
   1272   1271   1274     1   108.7700466 392.459200
   1272   1271   1273     1   107.5800459 329.699200
   1273   1271   1274     1   108.7700466 392.459200
   1274   1276   1277     1   106.5500460 417.563200
   1278   1281   1282     1   109.8000471 387.438400
   1278   1281   1283     1   109.8000471 387.438400
   1279   1278   1281     1   109.5600471 388.275200
   1279   1278   1280     1   108.4600466 328.025600
   1280   1278   1281     1   109.5600471 388.275200
   1282   1281   1284     1   108.7700466 392.459200
   1282   1281   1283     1   107.5800459 329.699200
   1283   1281   1284     1   108.7700466 392.459200
   1284   1286   1287     1   106.5500460 417.563200
   1289   1292   1293     1   109.8000471 387.438400
   1289   1292   1294     1   109.8000471 387.438400
   1290   1289   1292     1   109.5600471 388.275200
   1290   1289   1319     1   109.7800468 425.094400
   1290   1289   1291     1   108.4600466 328.025600
   1291   1289   1292     1   109.5600471 388.275200
   1291   1289   1319     1   109.7800468 425.094400
   1292   1295   1296     1   109.5600471 388.275200
   1292   1295   1297     1   109.5600471 388.275200
   1293   1292   1295     1   109.8000471 387.438400
   1293   1292   1294     1   107.5800459 329.699200
   1294   1292   1295     1   109.8000471 387.438400
   1296   1295   1298     1   109.8800469 414.216000
   1296   1295   1297     1   108.4600466 328.025600
   1297   1295   1298     1   109.8800469 414.216000
   1298   1299   1300     1   109.8800469 414.216000
   1298   1299   1301     1   109.8800469 414.216000
   1298   1309   1310     1   109.8800469 414.216000
   1298   1309   1311     1   109.8800469 414.216000
   1299   1302   1303     1   109.8000471 387.438400
   1299   1302   1304     1   109.8000471 387.438400
   1300   1299   1302     1   109.5600471 388.275200
   1300   1299   1301     1   108.4600466 328.025600
   1301   1299   1302     1   109.5600471 388.275200
   1303   1302   1305     1   108.7700466 392.459200
   1303   1302   1304     1   107.5800459 329.699200
   1304   1302   1305     1   108.7700466 392.459200
   1305   1307   1308     1   106.5500460 417.563200
   1309   1312   1313     1   109.8000471 387.438400
   1309   1312   1314     1   109.8000471 387.438400
   1310   1309   1312     1   109.5600471 388.275200
   1310   1309   1311     1   108.4600466 328.025600
   1311   1309   1312     1   109.5600471 388.275200
   1313   1312   1315     1   108.7700466 392.459200
   1313   1312   1314     1   107.5800459 329.699200
   1314   1312   1315     1   108.7700466 392.459200
   1315   1317   1318     1   106.5500460 417.563200
   1320   1323   1324     1   109.8000471 387.438400
   1320   1323   1325     1   109.8000471 387.438400
   1321   1320   1323     1   109.5600471 388.275200
   1321   1320   1350     1   109.7800468 425.094400
   1321   1320   1322     1   108.4600466 328.025600
   1322   1320   1323     1   109.5600471 388.275200
   1322   1320   1350     1   109.7800468 425.094400
   1323   1326   1327     1   109.5600471 388.275200
   1323   1326   1328     1   109.5600471 388.275200
   1324   1323   1326     1   109.8000471 387.438400
   1324   1323   1325     1   107.5800459 329.699200
   1325   1323   1326     1   109.8000471 387.438400
   1327   1326   1329     1   109.8800469 414.216000
   1327   1326   1328     1   108.4600466 328.025600
   1328   1326   1329     1   109.8800469 414.216000
   1329   1330   1331     1   109.8800469 414.216000
   1329   1330   1332     1   109.8800469 414.216000
   1329   1340   1341     1   109.8800469 414.216000
   1329   1340   1342     1   109.8800469 414.216000
   1330   1333   1334     1   109.8000471 387.438400
   1330   1333   1335     1   109.8000471 387.438400
   1331   1330   1333     1   109.5600471 388.275200
   1331   1330   1332     1   108.4600466 328.025600
   1332   1330   1333     1   109.5600471 388.275200
   1334   1333   1336     1   108.7700466 392.459200
   1334   1333   1335     1   107.5800459 329.699200
   1335   1333   1336     1   108.7700466 392.459200
   1336   1338   1339     1   106.5500460 417.563200
   1340   1343   1344     1   109.8000471 387.438400
   1340   1343   1345     1   109.8000471 387.438400
   1341   1340   1343     1   109.5600471 388.275200
   1341   1340   1342     1   108.4600466 328.025600
   1342   1340   1343     1   109.5600471 388.275200
   1344   1343   1346     1   108.7700466 392.459200
   1344   1343   1345     1   107.5800459 329.699200
   1345   1343   1346     1   108.7700466 392.459200
   1346   1348   1349     1   106.5500460 417.563200
   1351   1354   1355     1   109.8000471 387.438400
   1351   1354   1356     1   109.8000471 387.438400
   1352   1351   1354     1   109.5600471 388.275200
   1352   1351   1381     1   109.7800468 425.094400
   1352   1351   1353     1   108.4600466 328.025600
   1353   1351   1354     1   109.5600471 388.275200
   1353   1351   1381     1   109.7800468 425.094400
   1354   1357   1358     1   109.5600471 388.275200
   1354   1357   1359     1   109.5600471 388.275200
   1355   1354   1357     1   109.8000471 387.438400
   1355   1354   1356     1   107.5800459 329.699200
   1356   1354   1357     1   109.8000471 387.438400
   1358   1357   1360     1   109.8800469 414.216000
   1358   1357   1359     1   108.4600466 328.025600
   1359   1357   1360     1   109.8800469 414.216000
   1360   1361   1362     1   109.8800469 414.216000
   1360   1361   1363     1   109.8800469 414.216000
   1360   1371   1372     1   109.8800469 414.216000
   1360   1371   1373     1   109.8800469 414.216000
   1361   1364   1365     1   109.8000471 387.438400
   1361   1364   1366     1   109.8000471 387.438400
   1362   1361   1364     1   109.5600471 388.275200
   1362   1361   1363     1   108.4600466 328.025600
   1363   1361   1364     1   109.5600471 388.275200
   1365   1364   1367     1   108.7700466 392.459200
   1365   1364   1366     1   107.5800459 329.699200
   1366   1364   1367     1   108.7700466 392.459200
   1367   1369   1370     1   106.5500460 417.563200
   1371   1374   1375     1   109.8000471 387.438400
   1371   1374   1376     1   109.8000471 387.438400
   1372   1371   1374     1   109.5600471 388.275200
   1372   1371   1373     1   108.4600466 328.025600
   1373   1371   1374     1   109.5600471 388.275200
   1375   1374   1377     1   108.7700466 392.459200
   1375   1374   1376     1   107.5800459 329.699200
   1376   1374   1377     1   108.7700466 392.459200
   1377   1379   1380     1   106.5500460 417.563200

[ dihedrals ]
;    ai     aj     ak     al funct         c0         c1         c2         c3         c4         c5
      1      2     14     26     1  0.0000000  0.6508444  3
      1      5     17     20     1  0.0000000  0.6508444  3
      1      8     11     23     1  0.0000000  0.6508444  3
      2      1      5     17     1  180.0000771  2.0083200  2
      2      1      5     17     1  0.0000000  1.2552000  3
      2      1      8     11     1  180.0000771  2.0083200  2
      2      1      8     11     1  0.0000000  1.2552000  3
      2     14     26    115     1  0.0000000  0.6508444  3
      5      1      2     14     1  180.0000771  2.0083200  2
      5      1      2     14     1  0.0000000  1.2552000  3
      5      1      8     11     1  180.0000771  2.0083200  2
      5      1      8     11     1  0.0000000  1.2552000  3
      5     17     20     57     1  0.0000000  0.6508444  3
      8      1      2     14     1  180.0000771  2.0083200  2
      8      1      2     14     1  0.0000000  1.2552000  3
      8      1      5     17     1  180.0000771  2.0083200  2
      8      1      5     17     1  0.0000000  1.2552000  3
      8     11     23     86     1  0.0000000  0.6508444  3
     11     23     86     77     1  180.0000771  0.4184000  2
     11     23     86     77     1  0.0000000  1.6024720  3
     14     26    115    106     1  180.0000771  0.4184000  2
     14     26    115    106     1  0.0000000  1.6024720  3
     17     20     57     48     1  180.0000771  0.4184000  2
     17     20     57     48     1  0.0000000  1.6024720  3
     20     57     48     39     1  180.0000771  0.4184000  2
     20     57     48     39     1  0.0000000  1.6024720  3
     23     86     77     68     1  180.0000771  0.4184000  2
     23     86     77     68     1  0.0000000  1.6024720  3
     26    115    106     97     1  180.0000771  0.4184000  2
     26    115    106     97     1  0.0000000  1.6024720  3
     29     30     42     54     1  0.0000000  0.6508444  3
     29     33     45     51     1  0.0000000  0.6508444  3
     29     36     39     48     1  0.0000000  0.6508444  3
     30     29     33     45     1  180.0000771  2.0083200  2
     30     29     33     45     1  0.0000000  1.2552000  3
     30     29     36     39     1  180.0000771  2.0083200  2
     30     29     36     39     1  0.0000000  1.2552000  3
     30     42     54    173     1  0.0000000  0.6508444  3
     33     29     30     42     1  180.0000771  2.0083200  2
     33     29     30     42     1  0.0000000  1.2552000  3
     33     29     36     39     1  180.0000771  2.0083200  2
     33     29     36     39     1  0.0000000  1.2552000  3
     33     45     51    144     1  0.0000000  0.6508444  3
     36     29     30     42     1  180.0000771  2.0083200  2
     36     29     30     42     1  0.0000000  1.2552000  3
     36     29     33     45     1  180.0000771  2.0083200  2
     36     29     33     45     1  0.0000000  1.2552000  3
     36     39     48     57     1  0.0000000  0.6508444  3
     42     54    173    164     1  180.0000771  0.4184000  2
     42     54    173    164     1  0.0000000  1.6024720  3
     45     51    144    135     1  180.0000771  0.4184000  2
     45     51    144    135     1  0.0000000  1.6024720  3
     51    144    135    126     1  180.0000771  0.4184000  2
     51    144    135    126     1  0.0000000  1.6024720  3
     54    173    164    155     1  180.0000771  0.4184000  2
     54    173    164    155     1  0.0000000  1.6024720  3
     58     59     71     83     1  0.0000000  0.6508444  3
     58     62     74     80     1  0.0000000  0.6508444  3
     58     65     68     77     1  0.0000000  0.6508444  3
     59     58     62     74     1  180.0000771  2.0083200  2
     59     58     62     74     1  0.0000000  1.2552000  3
     59     58     65     68     1  180.0000771  2.0083200  2
     59     58     65     68     1  0.0000000  1.2552000  3
     59     71     83    231     1  0.0000000  0.6508444  3
     62     58     59     71     1  180.0000771  2.0083200  2
     62     58     59     71     1  0.0000000  1.2552000  3
     62     58     65     68     1  180.0000771  2.0083200  2
     62     58     65     68     1  0.0000000  1.2552000  3
     62     74     80    202     1  0.0000000  0.6508444  3
     65     58     59     71     1  180.0000771  2.0083200  2
     65     58     59     71     1  0.0000000  1.2552000  3
     65     58     62     74     1  180.0000771  2.0083200  2
     65     58     62     74     1  0.0000000  1.2552000  3
     65     68     77     86     1  0.0000000  0.6508444  3
     71     83    231    222     1  180.0000771  0.4184000  2
     71     83    231    222     1  0.0000000  1.6024720  3
     74     80    202    193     1  180.0000771  0.4184000  2
     74     80    202    193     1  0.0000000  1.6024720  3
     80    202    193    184     1  180.0000771  0.4184000  2
     80    202    193    184     1  0.0000000  1.6024720  3
     83    231    222    213     1  180.0000771  0.4184000  2
     83    231    222    213     1  0.0000000  1.6024720  3
     87     88    100    112     1  0.0000000  0.6508444  3
     87     91    103    109     1  0.0000000  0.6508444  3
     87     94     97    106     1  0.0000000  0.6508444  3
     88     87     91    103     1  180.0000771  2.0083200  2
     88     87     91    103     1  0.0000000  1.2552000  3
     88     87     94     97     1  180.0000771  2.0083200  2
     88     87     94     97     1  0.0000000  1.2552000  3
     88    100    112    289     1  0.0000000  0.6508444  3
     91     87     88    100     1  180.0000771  2.0083200  2
     91     87     88    100     1  0.0000000  1.2552000  3
     91     87     94     97     1  180.0000771  2.0083200  2
     91     87     94     97     1  0.0000000  1.2552000  3
     91    103    109    260     1  0.0000000  0.6508444  3
     94     87     88    100     1  180.0000771  2.0083200  2
     94     87     88    100     1  0.0000000  1.2552000  3
     94     87     91    103     1  180.0000771  2.0083200  2
     94     87     91    103     1  0.0000000  1.2552000  3
     94     97    106    115     1  0.0000000  0.6508444  3
    100    112    289    280     1  180.0000771  0.4184000  2
    100    112    289    280     1  0.0000000  1.6024720  3
    103    109    260    251     1  180.0000771  0.4184000  2
    103    109    260    251     1  0.0000000  1.6024720  3
    109    260    251    242     1  180.0000771  0.4184000  2
    109    260    251    242     1  0.0000000  1.6024720  3
    112    289    280    271     1  180.0000771  0.4184000  2
    112    289    280    271     1  0.0000000  1.6024720  3
    116    117    129    141     1  0.0000000  0.6508444  3
    116    120    132    138     1  0.0000000  0.6508444  3
    116    123    126    135     1  0.0000000  0.6508444  3
    117    116    120    132     1  180.0000771  2.0083200  2
    117    116    120    132     1  0.0000000  1.2552000  3
    117    116    123    126     1  180.0000771  2.0083200  2
    117    116    123    126     1  0.0000000  1.2552000  3
    117    129    141    347     1  0.0000000  0.6508444  3
    120    116    117    129     1  180.0000771  2.0083200  2
    120    116    117    129     1  0.0000000  1.2552000  3
    120    116    123    126     1  180.0000771  2.0083200  2
    120    116    123    126     1  0.0000000  1.2552000  3
    120    132    138    318     1  0.0000000  0.6508444  3
    123    116    117    129     1  180.0000771  2.0083200  2
    123    116    117    129     1  0.0000000  1.2552000  3
    123    116    120    132     1  180.0000771  2.0083200  2
    123    116    120    132     1  0.0000000  1.2552000  3
    123    126    135    144     1  0.0000000  0.6508444  3
    129    141    347    338     1  180.0000771  0.4184000  2
    129    141    347    338     1  0.0000000  1.6024720  3
    132    138    318    309     1  180.0000771  0.4184000  2
    132    138    318    309     1  0.0000000  1.6024720  3
    138    318    309    300     1  180.0000771  0.4184000  2
    138    318    309    300     1  0.0000000  1.6024720  3
    141    347    338    329     1  180.0000771  0.4184000  2
    141    347    338    329     1  0.0000000  1.6024720  3
    145    146    158    170     1  0.0000000  0.6508444  3
    145    149    161    167     1  0.0000000  0.6508444  3
    145    152    155    164     1  0.0000000  0.6508444  3
    146    145    149    161     1  180.0000771  2.0083200  2
    146    145    149    161     1  0.0000000  1.2552000  3
    146    145    152    155     1  180.0000771  2.0083200  2
    146    145    152    155     1  0.0000000  1.2552000  3
    146    158    170    405     1  0.0000000  0.6508444  3
    149    145    146    158     1  180.0000771  2.0083200  2
    149    145    146    158     1  0.0000000  1.2552000  3
    149    145    152    155     1  180.0000771  2.0083200  2
    149    145    152    155     1  0.0000000  1.2552000  3
    149    161    167    376     1  0.0000000  0.6508444  3
    152    145    146    158     1  180.0000771  2.0083200  2
    152    145    146    158     1  0.0000000  1.2552000  3
    152    145    149    161     1  180.0000771  2.0083200  2
    152    145    149    161     1  0.0000000  1.2552000  3
    152    155    164    173     1  0.0000000  0.6508444  3
    158    170    405    396     1  180.0000771  0.4184000  2
    158    170    405    396     1  0.0000000  1.6024720  3
    161    167    376    367     1  180.0000771  0.4184000  2
    161    167    376    367     1  0.0000000  1.6024720  3
    167    376    367    358     1  180.0000771  0.4184000  2
    167    376    367    358     1  0.0000000  1.6024720  3
    170    405    396    387     1  180.0000771  0.4184000  2
    170    405    396    387     1  0.0000000  1.6024720  3
    174    175    187    199     1  0.0000000  0.6508444  3
    174    178    190    196     1  0.0000000  0.6508444  3
    174    181    184    193     1  0.0000000  0.6508444  3
    175    174    178    190     1  180.0000771  2.0083200  2
    175    174    178    190     1  0.0000000  1.2552000  3
    175    174    181    184     1  180.0000771  2.0083200  2
    175    174    181    184     1  0.0000000  1.2552000  3
    175    187    199    463     1  0.0000000  0.6508444  3
    178    174    175    187     1  180.0000771  2.0083200  2
    178    174    175    187     1  0.0000000  1.2552000  3
    178    174    181    184     1  180.0000771  2.0083200  2
    178    174    181    184     1  0.0000000  1.2552000  3
    178    190    196    434     1  0.0000000  0.6508444  3
    181    174    175    187     1  180.0000771  2.0083200  2
    181    174    175    187     1  0.0000000  1.2552000  3
    181    174    178    190     1  180.0000771  2.0083200  2
    181    174    178    190     1  0.0000000  1.2552000  3
    181    184    193    202     1  0.0000000  0.6508444  3
    187    199    463    454     1  180.0000771  0.4184000  2
    187    199    463    454     1  0.0000000  1.6024720  3
    190    196    434    425     1  180.0000771  0.4184000  2
    190    196    434    425     1  0.0000000  1.6024720  3
    196    434    425    416     1  180.0000771  0.4184000  2
    196    434    425    416     1  0.0000000  1.6024720  3
    199    463    454    445     1  180.0000771  0.4184000  2
    199    463    454    445     1  0.0000000  1.6024720  3
    203    204    216    228     1  0.0000000  0.6508444  3
    203    207    219    225     1  0.0000000  0.6508444  3
    203    210    213    222     1  0.0000000  0.6508444  3
    204    203    207    219     1  180.0000771  2.0083200  2
    204    203    207    219     1  0.0000000  1.2552000  3
    204    203    210    213     1  180.0000771  2.0083200  2
    204    203    210    213     1  0.0000000  1.2552000  3
    204    216    228    521     1  0.0000000  0.6508444  3
    207    203    204    216     1  180.0000771  2.0083200  2
    207    203    204    216     1  0.0000000  1.2552000  3
    207    203    210    213     1  180.0000771  2.0083200  2
    207    203    210    213     1  0.0000000  1.2552000  3
    207    219    225    492     1  0.0000000  0.6508444  3
    210    203    204    216     1  180.0000771  2.0083200  2
    210    203    204    216     1  0.0000000  1.2552000  3
    210    203    207    219     1  180.0000771  2.0083200  2
    210    203    207    219     1  0.0000000  1.2552000  3
    210    213    222    231     1  0.0000000  0.6508444  3
    216    228    521    512     1  180.0000771  0.4184000  2
    216    228    521    512     1  0.0000000  1.6024720  3
    219    225    492    483     1  180.0000771  0.4184000  2
    219    225    492    483     1  0.0000000  1.6024720  3
    225    492    483    474     1  180.0000771  0.4184000  2
    225    492    483    474     1  0.0000000  1.6024720  3
    228    521    512    503     1  180.0000771  0.4184000  2
    228    521    512    503     1  0.0000000  1.6024720  3
    232    233    245    257     1  0.0000000  0.6508444  3
    232    236    248    254     1  0.0000000  0.6508444  3
    232    239    242    251     1  0.0000000  0.6508444  3
    233    232    236    248     1  180.0000771  2.0083200  2
    233    232    236    248     1  0.0000000  1.2552000  3
    233    232    239    242     1  180.0000771  2.0083200  2
    233    232    239    242     1  0.0000000  1.2552000  3
    233    245    257    579     1  0.0000000  0.6508444  3
    236    232    233    245     1  180.0000771  2.0083200  2
    236    232    233    245     1  0.0000000  1.2552000  3
    236    232    239    242     1  180.0000771  2.0083200  2
    236    232    239    242     1  0.0000000  1.2552000  3
    236    248    254    550     1  0.0000000  0.6508444  3
    239    232    233    245     1  180.0000771  2.0083200  2
    239    232    233    245     1  0.0000000  1.2552000  3
    239    232    236    248     1  180.0000771  2.0083200  2
    239    232    236    248     1  0.0000000  1.2552000  3
    239    242    251    260     1  0.0000000  0.6508444  3
    245    257    579    570     1  180.0000771  0.4184000  2
    245    257    579    570     1  0.0000000  1.6024720  3
    248    254    550    541     1  180.0000771  0.4184000  2
    248    254    550    541     1  0.0000000  1.6024720  3
    254    550    541    532     1  180.0000771  0.4184000  2
    254    550    541    532     1  0.0000000  1.6024720  3
    257    579    570    561     1  180.0000771  0.4184000  2
    257    579    570    561     1  0.0000000  1.6024720  3
    261    262    274    286     1  0.0000000  0.6508444  3
    261    265    277    283     1  0.0000000  0.6508444  3
    261    268    271    280     1  0.0000000  0.6508444  3
    262    261    265    277     1  180.0000771  2.0083200  2
    262    261    265    277     1  0.0000000  1.2552000  3
    262    261    268    271     1  180.0000771  2.0083200  2
    262    261    268    271     1  0.0000000  1.2552000  3
    262    274    286    637     1  0.0000000  0.6508444  3
    265    261    262    274     1  180.0000771  2.0083200  2
    265    261    262    274     1  0.0000000  1.2552000  3
    265    261    268    271     1  180.0000771  2.0083200  2
    265    261    268    271     1  0.0000000  1.2552000  3
    265    277    283    608     1  0.0000000  0.6508444  3
    268    261    262    274     1  180.0000771  2.0083200  2
    268    261    262    274     1  0.0000000  1.2552000  3
    268    261    265    277     1  180.0000771  2.0083200  2
    268    261    265    277     1  0.0000000  1.2552000  3
    268    271    280    289     1  0.0000000  0.6508444  3
    274    286    637    628     1  180.0000771  0.4184000  2
    274    286    637    628     1  0.0000000  1.6024720  3
    277    283    608    599     1  180.0000771  0.4184000  2
    277    283    608    599     1  0.0000000  1.6024720  3
    283    608    599    590     1  180.0000771  0.4184000  2
    283    608    599    590     1  0.0000000  1.6024720  3
    286    637    628    619     1  180.0000771  0.4184000  2
    286    637    628    619     1  0.0000000  1.6024720  3
    290    291    303    315     1  0.0000000  0.6508444  3
    290    294    306    312     1  0.0000000  0.6508444  3
    290    297    300    309     1  0.0000000  0.6508444  3
    291    290    294    306     1  180.0000771  2.0083200  2
    291    290    294    306     1  0.0000000  1.2552000  3
    291    290    297    300     1  180.0000771  2.0083200  2
    291    290    297    300     1  0.0000000  1.2552000  3
    291    303    315    699     1  0.0000000  0.6508444  3
    294    290    291    303     1  180.0000771  2.0083200  2
    294    290    291    303     1  0.0000000  1.2552000  3
    294    290    297    300     1  180.0000771  2.0083200  2
    294    290    297    300     1  0.0000000  1.2552000  3
    294    306    312    668     1  0.0000000  0.6508444  3
    297    290    291    303     1  180.0000771  2.0083200  2
    297    290    291    303     1  0.0000000  1.2552000  3
    297    290    294    306     1  180.0000771  2.0083200  2
    297    290    294    306     1  0.0000000  1.2552000  3
    297    300    309    318     1  0.0000000  0.6508444  3
    303    315    699    669     1  180.0000771  0.4184000  2
    303    315    699    669     1  0.0000000  1.6024720  3
    306    312    668    638     1  180.0000771  0.4184000  2
    306    312    668    638     1  0.0000000  1.6024720  3
    312    668    638    641     1  180.0000771  0.4184000  2
    312    668    638    641     1  0.0000000  1.6024720  3
    315    699    669    672     1  180.0000771  0.4184000  2
    315    699    669    672     1  0.0000000  1.6024720  3
    319    320    332    344     1  0.0000000  0.6508444  3
    319    323    335    341     1  0.0000000  0.6508444  3
    319    326    329    338     1  0.0000000  0.6508444  3
    320    319    323    335     1  180.0000771  2.0083200  2
    320    319    323    335     1  0.0000000  1.2552000  3
    320    319    326    329     1  180.0000771  2.0083200  2
    320    319    326    329     1  0.0000000  1.2552000  3
    320    332    344    761     1  0.0000000  0.6508444  3
    323    319    320    332     1  180.0000771  2.0083200  2
    323    319    320    332     1  0.0000000  1.2552000  3
    323    319    326    329     1  180.0000771  2.0083200  2
    323    319    326    329     1  0.0000000  1.2552000  3
    323    335    341    730     1  0.0000000  0.6508444  3
    326    319    320    332     1  180.0000771  2.0083200  2
    326    319    320    332     1  0.0000000  1.2552000  3
    326    319    323    335     1  180.0000771  2.0083200  2
    326    319    323    335     1  0.0000000  1.2552000  3
    326    329    338    347     1  0.0000000  0.6508444  3
    332    344    761    731     1  180.0000771  0.4184000  2
    332    344    761    731     1  0.0000000  1.6024720  3
    335    341    730    700     1  180.0000771  0.4184000  2
    335    341    730    700     1  0.0000000  1.6024720  3
    341    730    700    703     1  180.0000771  0.4184000  2
    341    730    700    703     1  0.0000000  1.6024720  3
    344    761    731    734     1  180.0000771  0.4184000  2
    344    761    731    734     1  0.0000000  1.6024720  3
    348    349    361    373     1  0.0000000  0.6508444  3
    348    352    364    370     1  0.0000000  0.6508444  3
    348    355    358    367     1  0.0000000  0.6508444  3
    349    348    352    364     1  180.0000771  2.0083200  2
    349    348    352    364     1  0.0000000  1.2552000  3
    349    348    355    358     1  180.0000771  2.0083200  2
    349    348    355    358     1  0.0000000  1.2552000  3
    349    361    373    823     1  0.0000000  0.6508444  3
    352    348    349    361     1  180.0000771  2.0083200  2
    352    348    349    361     1  0.0000000  1.2552000  3
    352    348    355    358     1  180.0000771  2.0083200  2
    352    348    355    358     1  0.0000000  1.2552000  3
    352    364    370    792     1  0.0000000  0.6508444  3
    355    348    349    361     1  180.0000771  2.0083200  2
    355    348    349    361     1  0.0000000  1.2552000  3
    355    348    352    364     1  180.0000771  2.0083200  2
    355    348    352    364     1  0.0000000  1.2552000  3
    355    358    367    376     1  0.0000000  0.6508444  3
    361    373    823    793     1  180.0000771  0.4184000  2
    361    373    823    793     1  0.0000000  1.6024720  3
    364    370    792    762     1  180.0000771  0.4184000  2
    364    370    792    762     1  0.0000000  1.6024720  3
    370    792    762    765     1  180.0000771  0.4184000  2
    370    792    762    765     1  0.0000000  1.6024720  3
    373    823    793    796     1  180.0000771  0.4184000  2
    373    823    793    796     1  0.0000000  1.6024720  3
    377    378    390    402     1  0.0000000  0.6508444  3
    377    381    393    399     1  0.0000000  0.6508444  3
    377    384    387    396     1  0.0000000  0.6508444  3
    378    377    381    393     1  180.0000771  2.0083200  2
    378    377    381    393     1  0.0000000  1.2552000  3
    378    377    384    387     1  180.0000771  2.0083200  2
    378    377    384    387     1  0.0000000  1.2552000  3
    378    390    402    885     1  0.0000000  0.6508444  3
    381    377    378    390     1  180.0000771  2.0083200  2
    381    377    378    390     1  0.0000000  1.2552000  3
    381    377    384    387     1  180.0000771  2.0083200  2
    381    377    384    387     1  0.0000000  1.2552000  3
    381    393    399    854     1  0.0000000  0.6508444  3
    384    377    378    390     1  180.0000771  2.0083200  2
    384    377    378    390     1  0.0000000  1.2552000  3
    384    377    381    393     1  180.0000771  2.0083200  2
    384    377    381    393     1  0.0000000  1.2552000  3
    384    387    396    405     1  0.0000000  0.6508444  3
    390    402    885    855     1  180.0000771  0.4184000  2
    390    402    885    855     1  0.0000000  1.6024720  3
    393    399    854    824     1  180.0000771  0.4184000  2
    393    399    854    824     1  0.0000000  1.6024720  3
    399    854    824    827     1  180.0000771  0.4184000  2
    399    854    824    827     1  0.0000000  1.6024720  3
    402    885    855    858     1  180.0000771  0.4184000  2
    402    885    855    858     1  0.0000000  1.6024720  3
    406    407    419    431     1  0.0000000  0.6508444  3
    406    410    422    428     1  0.0000000  0.6508444  3
    406    413    416    425     1  0.0000000  0.6508444  3
    407    406    410    422     1  180.0000771  2.0083200  2
    407    406    410    422     1  0.0000000  1.2552000  3
    407    406    413    416     1  180.0000771  2.0083200  2
    407    406    413    416     1  0.0000000  1.2552000  3
    407    419    431    947     1  0.0000000  0.6508444  3
    410    406    407    419     1  180.0000771  2.0083200  2
    410    406    407    419     1  0.0000000  1.2552000  3
    410    406    413    416     1  180.0000771  2.0083200  2
    410    406    413    416     1  0.0000000  1.2552000  3
    410    422    428    916     1  0.0000000  0.6508444  3
    413    406    407    419     1  180.0000771  2.0083200  2
    413    406    407    419     1  0.0000000  1.2552000  3
    413    406    410    422     1  180.0000771  2.0083200  2
    413    406    410    422     1  0.0000000  1.2552000  3
    413    416    425    434     1  0.0000000  0.6508444  3
    419    431    947    917     1  180.0000771  0.4184000  2
    419    431    947    917     1  0.0000000  1.6024720  3
    422    428    916    886     1  180.0000771  0.4184000  2
    422    428    916    886     1  0.0000000  1.6024720  3
    428    916    886    889     1  180.0000771  0.4184000  2
    428    916    886    889     1  0.0000000  1.6024720  3
    431    947    917    920     1  180.0000771  0.4184000  2
    431    947    917    920     1  0.0000000  1.6024720  3
    435    436    448    460     1  0.0000000  0.6508444  3
    435    439    451    457     1  0.0000000  0.6508444  3
    435    442    445    454     1  0.0000000  0.6508444  3
    436    435    439    451     1  180.0000771  2.0083200  2
    436    435    439    451     1  0.0000000  1.2552000  3
    436    435    442    445     1  180.0000771  2.0083200  2
    436    435    442    445     1  0.0000000  1.2552000  3
    436    448    460   1009     1  0.0000000  0.6508444  3
    439    435    436    448     1  180.0000771  2.0083200  2
    439    435    436    448     1  0.0000000  1.2552000  3
    439    435    442    445     1  180.0000771  2.0083200  2
    439    435    442    445     1  0.0000000  1.2552000  3
    439    451    457    978     1  0.0000000  0.6508444  3
    442    435    436    448     1  180.0000771  2.0083200  2
    442    435    436    448     1  0.0000000  1.2552000  3
    442    435    439    451     1  180.0000771  2.0083200  2
    442    435    439    451     1  0.0000000  1.2552000  3
    442    445    454    463     1  0.0000000  0.6508444  3
    448    460   1009    979     1  180.0000771  0.4184000  2
    448    460   1009    979     1  0.0000000  1.6024720  3
    451    457    978    948     1  180.0000771  0.4184000  2
    451    457    978    948     1  0.0000000  1.6024720  3
    457    978    948    951     1  180.0000771  0.4184000  2
    457    978    948    951     1  0.0000000  1.6024720  3
    460   1009    979    982     1  180.0000771  0.4184000  2
    460   1009    979    982     1  0.0000000  1.6024720  3
    464    465    477    489     1  0.0000000  0.6508444  3
    464    468    480    486     1  0.0000000  0.6508444  3
    464    471    474    483     1  0.0000000  0.6508444  3
    465    464    468    480     1  180.0000771  2.0083200  2
    465    464    468    480     1  0.0000000  1.2552000  3
    465    464    471    474     1  180.0000771  2.0083200  2
    465    464    471    474     1  0.0000000  1.2552000  3
    465    477    489   1071     1  0.0000000  0.6508444  3
    468    464    465    477     1  180.0000771  2.0083200  2
    468    464    465    477     1  0.0000000  1.2552000  3
    468    464    471    474     1  180.0000771  2.0083200  2
    468    464    471    474     1  0.0000000  1.2552000  3
    468    480    486   1040     1  0.0000000  0.6508444  3
    471    464    465    477     1  180.0000771  2.0083200  2
    471    464    465    477     1  0.0000000  1.2552000  3
    471    464    468    480     1  180.0000771  2.0083200  2
    471    464    468    480     1  0.0000000  1.2552000  3
    471    474    483    492     1  0.0000000  0.6508444  3
    477    489   1071   1041     1  180.0000771  0.4184000  2
    477    489   1071   1041     1  0.0000000  1.6024720  3
    480    486   1040   1010     1  180.0000771  0.4184000  2
    480    486   1040   1010     1  0.0000000  1.6024720  3
    486   1040   1010   1013     1  180.0000771  0.4184000  2
    486   1040   1010   1013     1  0.0000000  1.6024720  3
    489   1071   1041   1044     1  180.0000771  0.4184000  2
    489   1071   1041   1044     1  0.0000000  1.6024720  3
    493    494    506    518     1  0.0000000  0.6508444  3
    493    497    509    515     1  0.0000000  0.6508444  3
    493    500    503    512     1  0.0000000  0.6508444  3
    494    493    497    509     1  180.0000771  2.0083200  2
    494    493    497    509     1  0.0000000  1.2552000  3
    494    493    500    503     1  180.0000771  2.0083200  2
    494    493    500    503     1  0.0000000  1.2552000  3
    494    506    518   1133     1  0.0000000  0.6508444  3
    497    493    494    506     1  180.0000771  2.0083200  2
    497    493    494    506     1  0.0000000  1.2552000  3
    497    493    500    503     1  180.0000771  2.0083200  2
    497    493    500    503     1  0.0000000  1.2552000  3
    497    509    515   1102     1  0.0000000  0.6508444  3
    500    493    494    506     1  180.0000771  2.0083200  2
    500    493    494    506     1  0.0000000  1.2552000  3
    500    493    497    509     1  180.0000771  2.0083200  2
    500    493    497    509     1  0.0000000  1.2552000  3
    500    503    512    521     1  0.0000000  0.6508444  3
    506    518   1133   1103     1  180.0000771  0.4184000  2
    506    518   1133   1103     1  0.0000000  1.6024720  3
    509    515   1102   1072     1  180.0000771  0.4184000  2
    509    515   1102   1072     1  0.0000000  1.6024720  3
    515   1102   1072   1075     1  180.0000771  0.4184000  2
    515   1102   1072   1075     1  0.0000000  1.6024720  3
    518   1133   1103   1106     1  180.0000771  0.4184000  2
    518   1133   1103   1106     1  0.0000000  1.6024720  3
    522    523    535    547     1  0.0000000  0.6508444  3
    522    526    538    544     1  0.0000000  0.6508444  3
    522    529    532    541     1  0.0000000  0.6508444  3
    523    522    526    538     1  180.0000771  2.0083200  2
    523    522    526    538     1  0.0000000  1.2552000  3
    523    522    529    532     1  180.0000771  2.0083200  2
    523    522    529    532     1  0.0000000  1.2552000  3
    523    535    547   1195     1  0.0000000  0.6508444  3
    526    522    523    535     1  180.0000771  2.0083200  2
    526    522    523    535     1  0.0000000  1.2552000  3
    526    522    529    532     1  180.0000771  2.0083200  2
    526    522    529    532     1  0.0000000  1.2552000  3
    526    538    544   1164     1  0.0000000  0.6508444  3
    529    522    523    535     1  180.0000771  2.0083200  2
    529    522    523    535     1  0.0000000  1.2552000  3
    529    522    526    538     1  180.0000771  2.0083200  2
    529    522    526    538     1  0.0000000  1.2552000  3
    529    532    541    550     1  0.0000000  0.6508444  3
    535    547   1195   1165     1  180.0000771  0.4184000  2
    535    547   1195   1165     1  0.0000000  1.6024720  3
    538    544   1164   1134     1  180.0000771  0.4184000  2
    538    544   1164   1134     1  0.0000000  1.6024720  3
    544   1164   1134   1137     1  180.0000771  0.4184000  2
    544   1164   1134   1137     1  0.0000000  1.6024720  3
    547   1195   1165   1168     1  180.0000771  0.4184000  2
    547   1195   1165   1168     1  0.0000000  1.6024720  3
    551    552    564    576     1  0.0000000  0.6508444  3
    551    555    567    573     1  0.0000000  0.6508444  3
    551    558    561    570     1  0.0000000  0.6508444  3
    552    551    555    567     1  180.0000771  2.0083200  2
    552    551    555    567     1  0.0000000  1.2552000  3
    552    551    558    561     1  180.0000771  2.0083200  2
    552    551    558    561     1  0.0000000  1.2552000  3
    552    564    576   1257     1  0.0000000  0.6508444  3
    555    551    552    564     1  180.0000771  2.0083200  2
    555    551    552    564     1  0.0000000  1.2552000  3
    555    551    558    561     1  180.0000771  2.0083200  2
    555    551    558    561     1  0.0000000  1.2552000  3
    555    567    573   1226     1  0.0000000  0.6508444  3
    558    551    552    564     1  180.0000771  2.0083200  2
    558    551    552    564     1  0.0000000  1.2552000  3
    558    551    555    567     1  180.0000771  2.0083200  2
    558    551    555    567     1  0.0000000  1.2552000  3
    558    561    570    579     1  0.0000000  0.6508444  3
    564    576   1257   1227     1  180.0000771  0.4184000  2
    564    576   1257   1227     1  0.0000000  1.6024720  3
    567    573   1226   1196     1  180.0000771  0.4184000  2
    567    573   1226   1196     1  0.0000000  1.6024720  3
    573   1226   1196   1199     1  180.0000771  0.4184000  2
    573   1226   1196   1199     1  0.0000000  1.6024720  3
    576   1257   1227   1230     1  180.0000771  0.4184000  2
    576   1257   1227   1230     1  0.0000000  1.6024720  3
    580    581    593    605     1  0.0000000  0.6508444  3
    580    584    596    602     1  0.0000000  0.6508444  3
    580    587    590    599     1  0.0000000  0.6508444  3
    581    580    584    596     1  180.0000771  2.0083200  2
    581    580    584    596     1  0.0000000  1.2552000  3
    581    580    587    590     1  180.0000771  2.0083200  2
    581    580    587    590     1  0.0000000  1.2552000  3
    581    593    605   1319     1  0.0000000  0.6508444  3
    584    580    581    593     1  180.0000771  2.0083200  2
    584    580    581    593     1  0.0000000  1.2552000  3
    584    580    587    590     1  180.0000771  2.0083200  2
    584    580    587    590     1  0.0000000  1.2552000  3
    584    596    602   1288     1  0.0000000  0.6508444  3
    587    580    581    593     1  180.0000771  2.0083200  2
    587    580    581    593     1  0.0000000  1.2552000  3
    587    580    584    596     1  180.0000771  2.0083200  2
    587    580    584    596     1  0.0000000  1.2552000  3
    587    590    599    608     1  0.0000000  0.6508444  3
    593    605   1319   1289     1  180.0000771  0.4184000  2
    593    605   1319   1289     1  0.0000000  1.6024720  3
    596    602   1288   1258     1  180.0000771  0.4184000  2
    596    602   1288   1258     1  0.0000000  1.6024720  3
    602   1288   1258   1261     1  180.0000771  0.4184000  2
    602   1288   1258   1261     1  0.0000000  1.6024720  3
    605   1319   1289   1292     1  180.0000771  0.4184000  2
    605   1319   1289   1292     1  0.0000000  1.6024720  3
    609    610    622    634     1  0.0000000  0.6508444  3
    609    613    625    631     1  0.0000000  0.6508444  3
    609    616    619    628     1  0.0000000  0.6508444  3
    610    609    613    625     1  180.0000771  2.0083200  2
    610    609    613    625     1  0.0000000  1.2552000  3
    610    609    616    619     1  180.0000771  2.0083200  2
    610    609    616    619     1  0.0000000  1.2552000  3
    610    622    634   1381     1  0.0000000  0.6508444  3
    613    609    610    622     1  180.0000771  2.0083200  2
    613    609    610    622     1  0.0000000  1.2552000  3
    613    609    616    619     1  180.0000771  2.0083200  2
    613    609    616    619     1  0.0000000  1.2552000  3
    613    625    631   1350     1  0.0000000  0.6508444  3
    616    609    610    622     1  180.0000771  2.0083200  2
    616    609    610    622     1  0.0000000  1.2552000  3
    616    609    613    625     1  180.0000771  2.0083200  2
    616    609    613    625     1  0.0000000  1.2552000  3
    616    619    628    637     1  0.0000000  0.6508444  3
    622    634   1381   1351     1  180.0000771  0.4184000  2
    622    634   1381   1351     1  0.0000000  1.6024720  3
    625    631   1350   1320     1  180.0000771  0.4184000  2
    625    631   1350   1320     1  0.0000000  1.6024720  3
    631   1350   1320   1323     1  180.0000771  0.4184000  2
    631   1350   1320   1323     1  0.0000000  1.6024720  3
    634   1381   1351   1354     1  180.0000771  0.4184000  2
    634   1381   1351   1354     1  0.0000000  1.6024720  3
    638    641    644    647     1  0.0000000  0.6508444  3
    641    644    647    648     1  180.0000771  2.0083200  2
    641    644    647    648     1  0.0000000  1.2552000  3
    641    644    647    658     1  180.0000771  2.0083200  2
    641    644    647    658     1  0.0000000  1.2552000  3
    644    641    638    668     1  0.0000000  0.6508444  3
    644    647    648    651     1  180.0000771  2.0083200  2
    644    647    648    651     1  0.0000000  1.2552000  3
    644    647    658    661     1  180.0000771  2.0083200  2
    644    647    658    661     1  0.0000000  1.2552000  3
    647    648    651    654     1  0.0000000  0.6508444  3
    647    658    661    664     1  0.0000000  0.6508444  3
    648    647    658    661     1  180.0000771  2.0083200  2
    648    647    658    661     1  0.0000000  1.2552000  3
    648    651    654    655     1  180.0000771  0.0000000  2
    648    651    654    656     1  180.0000771  0.0000000  2
    651    648    647    658     1  180.0000771  2.0083200  2
    651    648    647    658     1  0.0000000  1.2552000  3
    658    661    664    665     1  180.0000771  0.0000000  2
    658    661    664    666     1  180.0000771  0.0000000  2
    669    672    675    678     1  0.0000000  0.6508444  3
    672    675    678    679     1  180.0000771  2.0083200  2
    672    675    678    679     1  0.0000000  1.2552000  3
    672    675    678    689     1  180.0000771  2.0083200  2
    672    675    678    689     1  0.0000000  1.2552000  3
    675    678    679    682     1  180.0000771  2.0083200  2
    675    678    679    682     1  0.0000000  1.2552000  3
    675    678    689    692     1  180.0000771  2.0083200  2
    675    678    689    692     1  0.0000000  1.2552000  3
    675    672    669    699     1  0.0000000  0.6508444  3
    678    679    682    685     1  0.0000000  0.6508444  3
    678    689    692    695     1  0.0000000  0.6508444  3
    679    682    685    686     1  180.0000771  0.0000000  2
    679    682    685    687     1  180.0000771  0.0000000  2
    679    678    689    692     1  180.0000771  2.0083200  2
    679    678    689    692     1  0.0000000  1.2552000  3
    682    679    678    689     1  180.0000771  2.0083200  2
    682    679    678    689     1  0.0000000  1.2552000  3
    689    692    695    696     1  180.0000771  0.0000000  2
    689    692    695    697     1  180.0000771  0.0000000  2
    700    703    706    709     1  0.0000000  0.6508444  3
    703    706    709    710     1  180.0000771  2.0083200  2
    703    706    709    710     1  0.0000000  1.2552000  3
    703    706    709    720     1  180.0000771  2.0083200  2
    703    706    709    720     1  0.0000000  1.2552000  3
    706    703    700    730     1  0.0000000  0.6508444  3
    706    709    710    713     1  180.0000771  2.0083200  2
    706    709    710    713     1  0.0000000  1.2552000  3
    706    709    720    723     1  180.0000771  2.0083200  2
    706    709    720    723     1  0.0000000  1.2552000  3
    709    710    713    716     1  0.0000000  0.6508444  3
    709    720    723    726     1  0.0000000  0.6508444  3
    710    709    720    723     1  180.0000771  2.0083200  2
    710    709    720    723     1  0.0000000  1.2552000  3
    710    713    716    717     1  180.0000771  0.0000000  2
    710    713    716    718     1  180.0000771  0.0000000  2
    713    710    709    720     1  180.0000771  2.0083200  2
    713    710    709    720     1  0.0000000  1.2552000  3
    720    723    726    727     1  180.0000771  0.0000000  2
    720    723    726    728     1  180.0000771  0.0000000  2
    731    734    737    740     1  0.0000000  0.6508444  3
    734    737    740    741     1  180.0000771  2.0083200  2
    734    737    740    741     1  0.0000000  1.2552000  3
    734    737    740    751     1  180.0000771  2.0083200  2
    734    737    740    751     1  0.0000000  1.2552000  3
    737    740    741    744     1  180.0000771  2.0083200  2
    737    740    741    744     1  0.0000000  1.2552000  3
    737    740    751    754     1  180.0000771  2.0083200  2
    737    740    751    754     1  0.0000000  1.2552000  3
    737    734    731    761     1  0.0000000  0.6508444  3
    740    741    744    747     1  0.0000000  0.6508444  3
    740    751    754    757     1  0.0000000  0.6508444  3
    741    744    747    748     1  180.0000771  0.0000000  2
    741    744    747    749     1  180.0000771  0.0000000  2
    741    740    751    754     1  180.0000771  2.0083200  2
    741    740    751    754     1  0.0000000  1.2552000  3
    744    741    740    751     1  180.0000771  2.0083200  2
    744    741    740    751     1  0.0000000  1.2552000  3
    751    754    757    758     1  180.0000771  0.0000000  2
    751    754    757    759     1  180.0000771  0.0000000  2
    762    765    768    771     1  0.0000000  0.6508444  3
    765    768    771    772     1  180.0000771  2.0083200  2
    765    768    771    772     1  0.0000000  1.2552000  3
    765    768    771    782     1  180.0000771  2.0083200  2
    765    768    771    782     1  0.0000000  1.2552000  3
    768    765    762    792     1  0.0000000  0.6508444  3
    768    771    772    775     1  180.0000771  2.0083200  2
    768    771    772    775     1  0.0000000  1.2552000  3
    768    771    782    785     1  180.0000771  2.0083200  2
    768    771    782    785     1  0.0000000  1.2552000  3
    771    772    775    778     1  0.0000000  0.6508444  3
    771    782    785    788     1  0.0000000  0.6508444  3
    772    771    782    785     1  180.0000771  2.0083200  2
    772    771    782    785     1  0.0000000  1.2552000  3
    772    775    778    779     1  180.0000771  0.0000000  2
    772    775    778    780     1  180.0000771  0.0000000  2
    775    772    771    782     1  180.0000771  2.0083200  2
    775    772    771    782     1  0.0000000  1.2552000  3
    782    785    788    789     1  180.0000771  0.0000000  2
    782    785    788    790     1  180.0000771  0.0000000  2
    793    796    799    802     1  0.0000000  0.6508444  3
    796    799    802    803     1  180.0000771  2.0083200  2
    796    799    802    803     1  0.0000000  1.2552000  3
    796    799    802    813     1  180.0000771  2.0083200  2
    796    799    802    813     1  0.0000000  1.2552000  3
    799    802    803    806     1  180.0000771  2.0083200  2
    799    802    803    806     1  0.0000000  1.2552000  3
    799    802    813    816     1  180.0000771  2.0083200  2
    799    802    813    816     1  0.0000000  1.2552000  3
    799    796    793    823     1  0.0000000  0.6508444  3
    802    803    806    809     1  0.0000000  0.6508444  3
    802    813    816    819     1  0.0000000  0.6508444  3
    803    806    809    810     1  180.0000771  0.0000000  2
    803    806    809    811     1  180.0000771  0.0000000  2
    803    802    813    816     1  180.0000771  2.0083200  2
    803    802    813    816     1  0.0000000  1.2552000  3
    806    803    802    813     1  180.0000771  2.0083200  2
    806    803    802    813     1  0.0000000  1.2552000  3
    813    816    819    820     1  180.0000771  0.0000000  2
    813    816    819    821     1  180.0000771  0.0000000  2
    824    827    830    833     1  0.0000000  0.6508444  3
    827    830    833    834     1  180.0000771  2.0083200  2
    827    830    833    834     1  0.0000000  1.2552000  3
    827    830    833    844     1  180.0000771  2.0083200  2
    827    830    833    844     1  0.0000000  1.2552000  3
    830    827    824    854     1  0.0000000  0.6508444  3
    830    833    834    837     1  180.0000771  2.0083200  2
    830    833    834    837     1  0.0000000  1.2552000  3
    830    833    844    847     1  180.0000771  2.0083200  2
    830    833    844    847     1  0.0000000  1.2552000  3
    833    834    837    840     1  0.0000000  0.6508444  3
    833    844    847    850     1  0.0000000  0.6508444  3
    834    833    844    847     1  180.0000771  2.0083200  2
    834    833    844    847     1  0.0000000  1.2552000  3
    834    837    840    841     1  180.0000771  0.0000000  2
    834    837    840    842     1  180.0000771  0.0000000  2
    837    834    833    844     1  180.0000771  2.0083200  2
    837    834    833    844     1  0.0000000  1.2552000  3
    844    847    850    851     1  180.0000771  0.0000000  2
    844    847    850    852     1  180.0000771  0.0000000  2
    855    858    861    864     1  0.0000000  0.6508444  3
    858    861    864    865     1  180.0000771  2.0083200  2
    858    861    864    865     1  0.0000000  1.2552000  3
    858    861    864    875     1  180.0000771  2.0083200  2
    858    861    864    875     1  0.0000000  1.2552000  3
    861    864    865    868     1  180.0000771  2.0083200  2
    861    864    865    868     1  0.0000000  1.2552000  3
    861    864    875    878     1  180.0000771  2.0083200  2
    861    864    875    878     1  0.0000000  1.2552000  3
    861    858    855    885     1  0.0000000  0.6508444  3
    864    865    868    871     1  0.0000000  0.6508444  3
    864    875    878    881     1  0.0000000  0.6508444  3
    865    868    871    872     1  180.0000771  0.0000000  2
    865    868    871    873     1  180.0000771  0.0000000  2
    865    864    875    878     1  180.0000771  2.0083200  2
    865    864    875    878     1  0.0000000  1.2552000  3
    868    865    864    875     1  180.0000771  2.0083200  2
    868    865    864    875     1  0.0000000  1.2552000  3
    875    878    881    882     1  180.0000771  0.0000000  2
    875    878    881    883     1  180.0000771  0.0000000  2
    886    889    892    895     1  0.0000000  0.6508444  3
    889    892    895    896     1  180.0000771  2.0083200  2
    889    892    895    896     1  0.0000000  1.2552000  3
    889    892    895    906     1  180.0000771  2.0083200  2
    889    892    895    906     1  0.0000000  1.2552000  3
    892    889    886    916     1  0.0000000  0.6508444  3
    892    895    896    899     1  180.0000771  2.0083200  2
    892    895    896    899     1  0.0000000  1.2552000  3
    892    895    906    909     1  180.0000771  2.0083200  2
    892    895    906    909     1  0.0000000  1.2552000  3
    895    896    899    902     1  0.0000000  0.6508444  3
    895    906    909    912     1  0.0000000  0.6508444  3
    896    895    906    909     1  180.0000771  2.0083200  2
    896    895    906    909     1  0.0000000  1.2552000  3
    896    899    902    903     1  180.0000771  0.0000000  2
    896    899    902    904     1  180.0000771  0.0000000  2
    899    896    895    906     1  180.0000771  2.0083200  2
    899    896    895    906     1  0.0000000  1.2552000  3
    906    909    912    913     1  180.0000771  0.0000000  2
    906    909    912    914     1  180.0000771  0.0000000  2
    917    920    923    926     1  0.0000000  0.6508444  3
    920    923    926    927     1  180.0000771  2.0083200  2
    920    923    926    927     1  0.0000000  1.2552000  3
    920    923    926    937     1  180.0000771  2.0083200  2
    920    923    926    937     1  0.0000000  1.2552000  3
    923    926    927    930     1  180.0000771  2.0083200  2
    923    926    927    930     1  0.0000000  1.2552000  3
    923    926    937    940     1  180.0000771  2.0083200  2
    923    926    937    940     1  0.0000000  1.2552000  3
    923    920    917    947     1  0.0000000  0.6508444  3
    926    927    930    933     1  0.0000000  0.6508444  3
    926    937    940    943     1  0.0000000  0.6508444  3
    927    930    933    934     1  180.0000771  0.0000000  2
    927    930    933    935     1  180.0000771  0.0000000  2
    927    926    937    940     1  180.0000771  2.0083200  2
    927    926    937    940     1  0.0000000  1.2552000  3
    930    927    926    937     1  180.0000771  2.0083200  2
    930    927    926    937     1  0.0000000  1.2552000  3
    937    940    943    944     1  180.0000771  0.0000000  2
    937    940    943    945     1  180.0000771  0.0000000  2
    948    951    954    957     1  0.0000000  0.6508444  3
    951    954    957    958     1  180.0000771  2.0083200  2
    951    954    957    958     1  0.0000000  1.2552000  3
    951    954    957    968     1  180.0000771  2.0083200  2
    951    954    957    968     1  0.0000000  1.2552000  3
    954    951    948    978     1  0.0000000  0.6508444  3
    954    957    958    961     1  180.0000771  2.0083200  2
    954    957    958    961     1  0.0000000  1.2552000  3
    954    957    968    971     1  180.0000771  2.0083200  2
    954    957    968    971     1  0.0000000  1.2552000  3
    957    958    961    964     1  0.0000000  0.6508444  3
    957    968    971    974     1  0.0000000  0.6508444  3
    958    957    968    971     1  180.0000771  2.0083200  2
    958    957    968    971     1  0.0000000  1.2552000  3
    958    961    964    965     1  180.0000771  0.0000000  2
    958    961    964    966     1  180.0000771  0.0000000  2
    961    958    957    968     1  180.0000771  2.0083200  2
    961    958    957    968     1  0.0000000  1.2552000  3
    968    971    974    975     1  180.0000771  0.0000000  2
    968    971    974    976     1  180.0000771  0.0000000  2
    979    982    985    988     1  0.0000000  0.6508444  3
    982    985    988    989     1  180.0000771  2.0083200  2
    982    985    988    989     1  0.0000000  1.2552000  3
    982    985    988    999     1  180.0000771  2.0083200  2
    982    985    988    999     1  0.0000000  1.2552000  3
    985    988    989    992     1  180.0000771  2.0083200  2
    985    988    989    992     1  0.0000000  1.2552000  3
    985    988    999   1002     1  180.0000771  2.0083200  2
    985    988    999   1002     1  0.0000000  1.2552000  3
    985    982    979   1009     1  0.0000000  0.6508444  3
    988    989    992    995     1  0.0000000  0.6508444  3
    988    999   1002   1005     1  0.0000000  0.6508444  3
    989    992    995    996     1  180.0000771  0.0000000  2
    989    992    995    997     1  180.0000771  0.0000000  2
    989    988    999   1002     1  180.0000771  2.0083200  2
    989    988    999   1002     1  0.0000000  1.2552000  3
    992    989    988    999     1  180.0000771  2.0083200  2
    992    989    988    999     1  0.0000000  1.2552000  3
    999   1002   1005   1006     1  180.0000771  0.0000000  2
    999   1002   1005   1007     1  180.0000771  0.0000000  2
   1010   1013   1016   1019     1  0.0000000  0.6508444  3
   1013   1016   1019   1020     1  180.0000771  2.0083200  2
   1013   1016   1019   1020     1  0.0000000  1.2552000  3
   1013   1016   1019   1030     1  180.0000771  2.0083200  2
   1013   1016   1019   1030     1  0.0000000  1.2552000  3
   1016   1013   1010   1040     1  0.0000000  0.6508444  3
   1016   1019   1020   1023     1  180.0000771  2.0083200  2
   1016   1019   1020   1023     1  0.0000000  1.2552000  3
   1016   1019   1030   1033     1  180.0000771  2.0083200  2
   1016   1019   1030   1033     1  0.0000000  1.2552000  3
   1019   1020   1023   1026     1  0.0000000  0.6508444  3
   1019   1030   1033   1036     1  0.0000000  0.6508444  3
   1020   1019   1030   1033     1  180.0000771  2.0083200  2
   1020   1019   1030   1033     1  0.0000000  1.2552000  3
   1020   1023   1026   1027     1  180.0000771  0.0000000  2
   1020   1023   1026   1028     1  180.0000771  0.0000000  2
   1023   1020   1019   1030     1  180.0000771  2.0083200  2
   1023   1020   1019   1030     1  0.0000000  1.2552000  3
   1030   1033   1036   1037     1  180.0000771  0.0000000  2
   1030   1033   1036   1038     1  180.0000771  0.0000000  2
   1041   1044   1047   1050     1  0.0000000  0.6508444  3
   1044   1047   1050   1051     1  180.0000771  2.0083200  2
   1044   1047   1050   1051     1  0.0000000  1.2552000  3
   1044   1047   1050   1061     1  180.0000771  2.0083200  2
   1044   1047   1050   1061     1  0.0000000  1.2552000  3
   1047   1050   1051   1054     1  180.0000771  2.0083200  2
   1047   1050   1051   1054     1  0.0000000  1.2552000  3
   1047   1050   1061   1064     1  180.0000771  2.0083200  2
   1047   1050   1061   1064     1  0.0000000  1.2552000  3
   1047   1044   1041   1071     1  0.0000000  0.6508444  3
   1050   1051   1054   1057     1  0.0000000  0.6508444  3
   1050   1061   1064   1067     1  0.0000000  0.6508444  3
   1051   1054   1057   1058     1  180.0000771  0.0000000  2
   1051   1054   1057   1059     1  180.0000771  0.0000000  2
   1051   1050   1061   1064     1  180.0000771  2.0083200  2
   1051   1050   1061   1064     1  0.0000000  1.2552000  3
   1054   1051   1050   1061     1  180.0000771  2.0083200  2
   1054   1051   1050   1061     1  0.0000000  1.2552000  3
   1061   1064   1067   1068     1  180.0000771  0.0000000  2
   1061   1064   1067   1069     1  180.0000771  0.0000000  2
   1072   1075   1078   1081     1  0.0000000  0.6508444  3
   1075   1078   1081   1082     1  180.0000771  2.0083200  2
   1075   1078   1081   1082     1  0.0000000  1.2552000  3
   1075   1078   1081   1092     1  180.0000771  2.0083200  2
   1075   1078   1081   1092     1  0.0000000  1.2552000  3
   1078   1075   1072   1102     1  0.0000000  0.6508444  3
   1078   1081   1082   1085     1  180.0000771  2.0083200  2
   1078   1081   1082   1085     1  0.0000000  1.2552000  3
   1078   1081   1092   1095     1  180.0000771  2.0083200  2
   1078   1081   1092   1095     1  0.0000000  1.2552000  3
   1081   1082   1085   1088     1  0.0000000  0.6508444  3
   1081   1092   1095   1098     1  0.0000000  0.6508444  3
   1082   1081   1092   1095     1  180.0000771  2.0083200  2
   1082   1081   1092   1095     1  0.0000000  1.2552000  3
   1082   1085   1088   1089     1  180.0000771  0.0000000  2
   1082   1085   1088   1090     1  180.0000771  0.0000000  2
   1085   1082   1081   1092     1  180.0000771  2.0083200  2
   1085   1082   1081   1092     1  0.0000000  1.2552000  3
   1092   1095   1098   1099     1  180.0000771  0.0000000  2
   1092   1095   1098   1100     1  180.0000771  0.0000000  2
   1103   1106   1109   1112     1  0.0000000  0.6508444  3
   1106   1109   1112   1113     1  180.0000771  2.0083200  2
   1106   1109   1112   1113     1  0.0000000  1.2552000  3
   1106   1109   1112   1123     1  180.0000771  2.0083200  2
   1106   1109   1112   1123     1  0.0000000  1.2552000  3
   1109   1112   1113   1116     1  180.0000771  2.0083200  2
   1109   1112   1113   1116     1  0.0000000  1.2552000  3
   1109   1112   1123   1126     1  180.0000771  2.0083200  2
   1109   1112   1123   1126     1  0.0000000  1.2552000  3
   1109   1106   1103   1133     1  0.0000000  0.6508444  3
   1112   1113   1116   1119     1  0.0000000  0.6508444  3
   1112   1123   1126   1129     1  0.0000000  0.6508444  3
   1113   1116   1119   1120     1  180.0000771  0.0000000  2
   1113   1116   1119   1121     1  180.0000771  0.0000000  2
   1113   1112   1123   1126     1  180.0000771  2.0083200  2
   1113   1112   1123   1126     1  0.0000000  1.2552000  3
   1116   1113   1112   1123     1  180.0000771  2.0083200  2
   1116   1113   1112   1123     1  0.0000000  1.2552000  3
   1123   1126   1129   1130     1  180.0000771  0.0000000  2
   1123   1126   1129   1131     1  180.0000771  0.0000000  2
   1134   1137   1140   1143     1  0.0000000  0.6508444  3
   1137   1140   1143   1144     1  180.0000771  2.0083200  2
   1137   1140   1143   1144     1  0.0000000  1.2552000  3
   1137   1140   1143   1154     1  180.0000771  2.0083200  2
   1137   1140   1143   1154     1  0.0000000  1.2552000  3
   1140   1137   1134   1164     1  0.0000000  0.6508444  3
   1140   1143   1144   1147     1  180.0000771  2.0083200  2
   1140   1143   1144   1147     1  0.0000000  1.2552000  3
   1140   1143   1154   1157     1  180.0000771  2.0083200  2
   1140   1143   1154   1157     1  0.0000000  1.2552000  3
   1143   1144   1147   1150     1  0.0000000  0.6508444  3
   1143   1154   1157   1160     1  0.0000000  0.6508444  3
   1144   1143   1154   1157     1  180.0000771  2.0083200  2
   1144   1143   1154   1157     1  0.0000000  1.2552000  3
   1144   1147   1150   1151     1  180.0000771  0.0000000  2
   1144   1147   1150   1152     1  180.0000771  0.0000000  2
   1147   1144   1143   1154     1  180.0000771  2.0083200  2
   1147   1144   1143   1154     1  0.0000000  1.2552000  3
   1154   1157   1160   1161     1  180.0000771  0.0000000  2
   1154   1157   1160   1162     1  180.0000771  0.0000000  2
   1165   1168   1171   1174     1  0.0000000  0.6508444  3
   1168   1171   1174   1175     1  180.0000771  2.0083200  2
   1168   1171   1174   1175     1  0.0000000  1.2552000  3
   1168   1171   1174   1185     1  180.0000771  2.0083200  2
   1168   1171   1174   1185     1  0.0000000  1.2552000  3
   1171   1174   1175   1178     1  180.0000771  2.0083200  2
   1171   1174   1175   1178     1  0.0000000  1.2552000  3
   1171   1174   1185   1188     1  180.0000771  2.0083200  2
   1171   1174   1185   1188     1  0.0000000  1.2552000  3
   1171   1168   1165   1195     1  0.0000000  0.6508444  3
   1174   1175   1178   1181     1  0.0000000  0.6508444  3
   1174   1185   1188   1191     1  0.0000000  0.6508444  3
   1175   1178   1181   1182     1  180.0000771  0.0000000  2
   1175   1178   1181   1183     1  180.0000771  0.0000000  2
   1175   1174   1185   1188     1  180.0000771  2.0083200  2
   1175   1174   1185   1188     1  0.0000000  1.2552000  3
   1178   1175   1174   1185     1  180.0000771  2.0083200  2
   1178   1175   1174   1185     1  0.0000000  1.2552000  3
   1185   1188   1191   1192     1  180.0000771  0.0000000  2
   1185   1188   1191   1193     1  180.0000771  0.0000000  2
   1196   1199   1202   1205     1  0.0000000  0.6508444  3
   1199   1202   1205   1206     1  180.0000771  2.0083200  2
   1199   1202   1205   1206     1  0.0000000  1.2552000  3
   1199   1202   1205   1216     1  180.0000771  2.0083200  2
   1199   1202   1205   1216     1  0.0000000  1.2552000  3
   1202   1199   1196   1226     1  0.0000000  0.6508444  3
   1202   1205   1206   1209     1  180.0000771  2.0083200  2
   1202   1205   1206   1209     1  0.0000000  1.2552000  3
   1202   1205   1216   1219     1  180.0000771  2.0083200  2
   1202   1205   1216   1219     1  0.0000000  1.2552000  3
   1205   1206   1209   1212     1  0.0000000  0.6508444  3
   1205   1216   1219   1222     1  0.0000000  0.6508444  3
   1206   1205   1216   1219     1  180.0000771  2.0083200  2
   1206   1205   1216   1219     1  0.0000000  1.2552000  3
   1206   1209   1212   1213     1  180.0000771  0.0000000  2
   1206   1209   1212   1214     1  180.0000771  0.0000000  2
   1209   1206   1205   1216     1  180.0000771  2.0083200  2
   1209   1206   1205   1216     1  0.0000000  1.2552000  3
   1216   1219   1222   1223     1  180.0000771  0.0000000  2
   1216   1219   1222   1224     1  180.0000771  0.0000000  2
   1227   1230   1233   1236     1  0.0000000  0.6508444  3
   1230   1233   1236   1237     1  180.0000771  2.0083200  2
   1230   1233   1236   1237     1  0.0000000  1.2552000  3
   1230   1233   1236   1247     1  180.0000771  2.0083200  2
   1230   1233   1236   1247     1  0.0000000  1.2552000  3
   1233   1236   1237   1240     1  180.0000771  2.0083200  2
   1233   1236   1237   1240     1  0.0000000  1.2552000  3
   1233   1236   1247   1250     1  180.0000771  2.0083200  2
   1233   1236   1247   1250     1  0.0000000  1.2552000  3
   1233   1230   1227   1257     1  0.0000000  0.6508444  3
   1236   1237   1240   1243     1  0.0000000  0.6508444  3
   1236   1247   1250   1253     1  0.0000000  0.6508444  3
   1237   1240   1243   1244     1  180.0000771  0.0000000  2
   1237   1240   1243   1245     1  180.0000771  0.0000000  2
   1237   1236   1247   1250     1  180.0000771  2.0083200  2
   1237   1236   1247   1250     1  0.0000000  1.2552000  3
   1240   1237   1236   1247     1  180.0000771  2.0083200  2
   1240   1237   1236   1247     1  0.0000000  1.2552000  3
   1247   1250   1253   1254     1  180.0000771  0.0000000  2
   1247   1250   1253   1255     1  180.0000771  0.0000000  2
   1258   1261   1264   1267     1  0.0000000  0.6508444  3
   1261   1264   1267   1268     1  180.0000771  2.0083200  2
   1261   1264   1267   1268     1  0.0000000  1.2552000  3
   1261   1264   1267   1278     1  180.0000771  2.0083200  2
   1261   1264   1267   1278     1  0.0000000  1.2552000  3
   1264   1261   1258   1288     1  0.0000000  0.6508444  3
   1264   1267   1268   1271     1  180.0000771  2.0083200  2
   1264   1267   1268   1271     1  0.0000000  1.2552000  3
   1264   1267   1278   1281     1  180.0000771  2.0083200  2
   1264   1267   1278   1281     1  0.0000000  1.2552000  3
   1267   1268   1271   1274     1  0.0000000  0.6508444  3
   1267   1278   1281   1284     1  0.0000000  0.6508444  3
   1268   1267   1278   1281     1  180.0000771  2.0083200  2
   1268   1267   1278   1281     1  0.0000000  1.2552000  3
   1268   1271   1274   1275     1  180.0000771  0.0000000  2
   1268   1271   1274   1276     1  180.0000771  0.0000000  2
   1271   1268   1267   1278     1  180.0000771  2.0083200  2
   1271   1268   1267   1278     1  0.0000000  1.2552000  3
   1278   1281   1284   1285     1  180.0000771  0.0000000  2
   1278   1281   1284   1286     1  180.0000771  0.0000000  2
   1289   1292   1295   1298     1  0.0000000  0.6508444  3
   1292   1295   1298   1299     1  180.0000771  2.0083200  2
   1292   1295   1298   1299     1  0.0000000  1.2552000  3
   1292   1295   1298   1309     1  180.0000771  2.0083200  2
   1292   1295   1298   1309     1  0.0000000  1.2552000  3
   1295   1298   1299   1302     1  180.0000771  2.0083200  2
   1295   1298   1299   1302     1  0.0000000  1.2552000  3
   1295   1298   1309   1312     1  180.0000771  2.0083200  2
   1295   1298   1309   1312     1  0.0000000  1.2552000  3
   1295   1292   1289   1319     1  0.0000000  0.6508444  3
   1298   1299   1302   1305     1  0.0000000  0.6508444  3
   1298   1309   1312   1315     1  0.0000000  0.6508444  3
   1299   1302   1305   1306     1  180.0000771  0.0000000  2
   1299   1302   1305   1307     1  180.0000771  0.0000000  2
   1299   1298   1309   1312     1  180.0000771  2.0083200  2
   1299   1298   1309   1312     1  0.0000000  1.2552000  3
   1302   1299   1298   1309     1  180.0000771  2.0083200  2
   1302   1299   1298   1309     1  0.0000000  1.2552000  3
   1309   1312   1315   1316     1  180.0000771  0.0000000  2
   1309   1312   1315   1317     1  180.0000771  0.0000000  2
   1320   1323   1326   1329     1  0.0000000  0.6508444  3
   1323   1326   1329   1330     1  180.0000771  2.0083200  2
   1323   1326   1329   1330     1  0.0000000  1.2552000  3
   1323   1326   1329   1340     1  180.0000771  2.0083200  2
   1323   1326   1329   1340     1  0.0000000  1.2552000  3
   1326   1323   1320   1350     1  0.0000000  0.6508444  3
   1326   1329   1330   1333     1  180.0000771  2.0083200  2
   1326   1329   1330   1333     1  0.0000000  1.2552000  3
   1326   1329   1340   1343     1  180.0000771  2.0083200  2
   1326   1329   1340   1343     1  0.0000000  1.2552000  3
   1329   1330   1333   1336     1  0.0000000  0.6508444  3
   1329   1340   1343   1346     1  0.0000000  0.6508444  3
   1330   1329   1340   1343     1  180.0000771  2.0083200  2
   1330   1329   1340   1343     1  0.0000000  1.2552000  3
   1330   1333   1336   1337     1  180.0000771  0.0000000  2
   1330   1333   1336   1338     1  180.0000771  0.0000000  2
   1333   1330   1329   1340     1  180.0000771  2.0083200  2
   1333   1330   1329   1340     1  0.0000000  1.2552000  3
   1340   1343   1346   1347     1  180.0000771  0.0000000  2
   1340   1343   1346   1348     1  180.0000771  0.0000000  2
   1351   1354   1357   1360     1  0.0000000  0.6508444  3
   1354   1357   1360   1361     1  180.0000771  2.0083200  2
   1354   1357   1360   1361     1  0.0000000  1.2552000  3
   1354   1357   1360   1371     1  180.0000771  2.0083200  2
   1354   1357   1360   1371     1  0.0000000  1.2552000  3
   1357   1360   1361   1364     1  180.0000771  2.0083200  2
   1357   1360   1361   1364     1  0.0000000  1.2552000  3
   1357   1360   1371   1374     1  180.0000771  2.0083200  2
   1357   1360   1371   1374     1  0.0000000  1.2552000  3
   1357   1354   1351   1381     1  0.0000000  0.6508444  3
   1360   1361   1364   1367     1  0.0000000  0.6508444  3
   1360   1371   1374   1377     1  0.0000000  0.6508444  3
   1361   1364   1367   1368     1  180.0000771  0.0000000  2
   1361   1364   1367   1369     1  180.0000771  0.0000000  2
   1361   1360   1371   1374     1  180.0000771  2.0083200  2
   1361   1360   1371   1374     1  0.0000000  1.2552000  3
   1364   1361   1360   1371     1  180.0000771  2.0083200  2
   1364   1361   1360   1371     1  0.0000000  1.2552000  3
   1371   1374   1377   1378     1  180.0000771  0.0000000  2
   1371   1374   1377   1379     1  180.0000771  0.0000000  2
    651    655    654    656     4  180.0000771  4.6024000  2
    661    665    664    666     4  180.0000771  4.6024000  2
    682    686    685    687     4  180.0000771  4.6024000  2
    692    696    695    697     4  180.0000771  4.6024000  2
    713    717    716    718     4  180.0000771  4.6024000  2
    723    727    726    728     4  180.0000771  4.6024000  2
    744    748    747    749     4  180.0000771  4.6024000  2
    754    758    757    759     4  180.0000771  4.6024000  2
    775    779    778    780     4  180.0000771  4.6024000  2
    785    789    788    790     4  180.0000771  4.6024000  2
    806    810    809    811     4  180.0000771  4.6024000  2
    816    820    819    821     4  180.0000771  4.6024000  2
    837    841    840    842     4  180.0000771  4.6024000  2
    847    851    850    852     4  180.0000771  4.6024000  2
    868    872    871    873     4  180.0000771  4.6024000  2
    878    882    881    883     4  180.0000771  4.6024000  2
    899    903    902    904     4  180.0000771  4.6024000  2
    909    913    912    914     4  180.0000771  4.6024000  2
    930    934    933    935     4  180.0000771  4.6024000  2
    940    944    943    945     4  180.0000771  4.6024000  2
    961    965    964    966     4  180.0000771  4.6024000  2
    971    975    974    976     4  180.0000771  4.6024000  2
    992    996    995    997     4  180.0000771  4.6024000  2
   1002   1006   1005   1007     4  180.0000771  4.6024000  2
   1023   1027   1026   1028     4  180.0000771  4.6024000  2
   1033   1037   1036   1038     4  180.0000771  4.6024000  2
   1054   1058   1057   1059     4  180.0000771  4.6024000  2
   1064   1068   1067   1069     4  180.0000771  4.6024000  2
   1085   1089   1088   1090     4  180.0000771  4.6024000  2
   1095   1099   1098   1100     4  180.0000771  4.6024000  2
   1116   1120   1119   1121     4  180.0000771  4.6024000  2
   1126   1130   1129   1131     4  180.0000771  4.6024000  2
   1147   1151   1150   1152     4  180.0000771  4.6024000  2
   1157   1161   1160   1162     4  180.0000771  4.6024000  2
   1178   1182   1181   1183     4  180.0000771  4.6024000  2
   1188   1192   1191   1193     4  180.0000771  4.6024000  2
   1209   1213   1212   1214     4  180.0000771  4.6024000  2
   1219   1223   1222   1224     4  180.0000771  4.6024000  2
   1240   1244   1243   1245     4  180.0000771  4.6024000  2
   1250   1254   1253   1255     4  180.0000771  4.6024000  2
   1271   1275   1274   1276     4  180.0000771  4.6024000  2
   1281   1285   1284   1286     4  180.0000771  4.6024000  2
   1302   1306   1305   1307     4  180.0000771  4.6024000  2
   1312   1316   1315   1317     4  180.0000771  4.6024000  2
   1333   1337   1336   1338     4  180.0000771  4.6024000  2
   1343   1347   1346   1348     4  180.0000771  4.6024000  2
   1364   1368   1367   1369     4  180.0000771  4.6024000  2
   1374   1378   1377   1379     4  180.0000771  4.6024000  2
      1      2     14     15     1  0.0000000  0.6508444  3
      1      2     14     16     1  0.0000000  0.6508444  3
      1      5     17     18     1  0.0000000  0.6508444  3
      1      5     17     19     1  0.0000000  0.6508444  3
      1      8     11     12     1  0.0000000  0.6508444  3
      1      8     11     13     1  0.0000000  0.6508444  3
      2      1      5      6     1  0.0000000  1.2552000  3
      2      1      5      7     1  0.0000000  1.2552000  3
      2      1      8      9     1  0.0000000  1.2552000  3
      2      1      8     10     1  0.0000000  1.2552000  3
      2     14     26     27     1  0.0000000  0.6508444  3
      2     14     26     28     1  0.0000000  0.6508444  3
      5      1      2      3     1  0.0000000  1.2552000  3
      8      1      2      3     1  0.0000000  1.2552000  3
      3      2     14     26     1  0.0000000  0.6508444  3
      3      2     14     15     1  0.0000000  0.6508444  3
      3      2     14     16     1  0.0000000  0.6508444  3
      5      1      2      4     1  0.0000000  1.2552000  3
      8      1      2      4     1  0.0000000  1.2552000  3
      4      2     14     26     1  0.0000000  0.6508444  3
      4      2     14     15     1  0.0000000  0.6508444  3
      4      2     14     16     1  0.0000000  0.6508444  3
      5      1      8      9     1  0.0000000  1.2552000  3
      5      1      8     10     1  0.0000000  1.2552000  3
      5     17     20     21     1  0.0000000  0.6508444  3
      5     17     20     22     1  0.0000000  0.6508444  3
      8      1      5      6     1  0.0000000  1.2552000  3
      6      5     17     20     1  0.0000000  0.6508444  3
      6      5     17     18     1  0.0000000  0.6508444  3
      6      5     17     19     1  0.0000000  0.6508444  3
      8      1      5      7     1  0.0000000  1.2552000  3
      7      5     17     20     1  0.0000000  0.6508444  3
      7      5     17     18     1  0.0000000  0.6508444  3
      7      5     17     19     1  0.0000000  0.6508444  3
      8     11     23     24     1  0.0000000  0.6508444  3
      8     11     23     25     1  0.0000000  0.6508444  3
      9      8     11     23     1  0.0000000  0.6508444  3
      9      8     11     12     1  0.0000000  0.6508444  3
      9      8     11     13     1  0.0000000  0.6508444  3
     10      8     11     23     1  0.0000000  0.6508444  3
     10      8     11     12     1  0.0000000  0.6508444  3
     10      8     11     13     1  0.0000000  0.6508444  3
     12     11     23     86     1  0.0000000  1.0460000  1
     12     11     23     86     1  0.0000000  0.0000000  3
     12     11     23     24     1  0.0000000  0.6508444  3
     12     11     23     25     1  0.0000000  0.6508444  3
     13     11     23     86     1  0.0000000  1.0460000  1
     13     11     23     86     1  0.0000000  0.0000000  3
     13     11     23     24     1  0.0000000  0.6508444  3
     13     11     23     25     1  0.0000000  0.6508444  3
     15     14     26    115     1  0.0000000  1.0460000  1
     15     14     26    115     1  0.0000000  0.0000000  3
     15     14     26     27     1  0.0000000  0.6508444  3
     15     14     26     28     1  0.0000000  0.6508444  3
     16     14     26    115     1  0.0000000  1.0460000  1
     16     14     26    115     1  0.0000000  0.0000000  3
     16     14     26     27     1  0.0000000  0.6508444  3
     16     14     26     28     1  0.0000000  0.6508444  3
     18     17     20     57     1  0.0000000  1.0460000  1
     18     17     20     57     1  0.0000000  0.0000000  3
     18     17     20     21     1  0.0000000  0.6508444  3
     18     17     20     22     1  0.0000000  0.6508444  3
     19     17     20     57     1  0.0000000  1.0460000  1
     19     17     20     57     1  0.0000000  0.0000000  3
     19     17     20     21     1  0.0000000  0.6508444  3
     19     17     20     22     1  0.0000000  0.6508444  3
     20     57     48     49     1  0.0000000  1.6038667  3
     20     57     48     50     1  0.0000000  1.6038667  3
     21     20     57     48     1  0.0000000  1.6038667  3
     22     20     57     48     1  0.0000000  1.6038667  3
     23     86     77     78     1  0.0000000  1.6038667  3
     23     86     77     79     1  0.0000000  1.6038667  3
     24     23     86     77     1  0.0000000  1.6038667  3
     25     23     86     77     1  0.0000000  1.6038667  3
     26    115    106    107     1  0.0000000  1.6038667  3
     26    115    106    108     1  0.0000000  1.6038667  3
     27     26    115    106     1  0.0000000  1.6038667  3
     28     26    115    106     1  0.0000000  1.6038667  3
     29     30     42     43     1  0.0000000  0.6508444  3
     29     30     42     44     1  0.0000000  0.6508444  3
     29     33     45     46     1  0.0000000  0.6508444  3
     29     33     45     47     1  0.0000000  0.6508444  3
     29     36     39     40     1  0.0000000  0.6508444  3
     29     36     39     41     1  0.0000000  0.6508444  3
     30     29     33     34     1  0.0000000  1.2552000  3
     30     29     33     35     1  0.0000000  1.2552000  3
     30     29     36     37     1  0.0000000  1.2552000  3
     30     29     36     38     1  0.0000000  1.2552000  3
     30     42     54     55     1  0.0000000  0.6508444  3
     30     42     54     56     1  0.0000000  0.6508444  3
     31     30     29     33     1  0.0000000  1.2552000  3
     31     30     29     36     1  0.0000000  1.2552000  3
     31     30     42     54     1  0.0000000  0.6508444  3
     31     30     42     43     1  0.0000000  0.6508444  3
     31     30     42     44     1  0.0000000  0.6508444  3
     32     30     29     33     1  0.0000000  1.2552000  3
     32     30     29     36     1  0.0000000  1.2552000  3
     32     30     42     54     1  0.0000000  0.6508444  3
     32     30     42     43     1  0.0000000  0.6508444  3
     32     30     42     44     1  0.0000000  0.6508444  3
     33     29     36     37     1  0.0000000  1.2552000  3
     33     29     36     38     1  0.0000000  1.2552000  3
     33     45     51     52     1  0.0000000  0.6508444  3
     33     45     51     53     1  0.0000000  0.6508444  3
     34     33     29     36     1  0.0000000  1.2552000  3
     34     33     45     51     1  0.0000000  0.6508444  3
     34     33     45     46     1  0.0000000  0.6508444  3
     34     33     45     47     1  0.0000000  0.6508444  3
     35     33     29     36     1  0.0000000  1.2552000  3
     35     33     45     51     1  0.0000000  0.6508444  3
     35     33     45     46     1  0.0000000  0.6508444  3
     35     33     45     47     1  0.0000000  0.6508444  3
     36     39     48     49     1  0.0000000  0.6508444  3
     36     39     48     50     1  0.0000000  0.6508444  3
     37     36     39     48     1  0.0000000  0.6508444  3
     37     36     39     40     1  0.0000000  0.6508444  3
     37     36     39     41     1  0.0000000  0.6508444  3
     38     36     39     48     1  0.0000000  0.6508444  3
     38     36     39     40     1  0.0000000  0.6508444  3
     38     36     39     41     1  0.0000000  0.6508444  3
     40     39     48     57     1  0.0000000  1.0460000  1
     40     39     48     57     1  0.0000000  0.0000000  3
     40     39     48     49     1  0.0000000  0.6508444  3
     40     39     48     50     1  0.0000000  0.6508444  3
     41     39     48     57     1  0.0000000  1.0460000  1
     41     39     48     57     1  0.0000000  0.0000000  3
     41     39     48     49     1  0.0000000  0.6508444  3
     41     39     48     50     1  0.0000000  0.6508444  3
     43     42     54    173     1  0.0000000  1.0460000  1
     43     42     54    173     1  0.0000000  0.0000000  3
     43     42     54     55     1  0.0000000  0.6508444  3
     43     42     54     56     1  0.0000000  0.6508444  3
     44     42     54    173     1  0.0000000  1.0460000  1
     44     42     54    173     1  0.0000000  0.0000000  3
     44     42     54     55     1  0.0000000  0.6508444  3
     44     42     54     56     1  0.0000000  0.6508444  3
     46     45     51    144     1  0.0000000  1.0460000  1
     46     45     51    144     1  0.0000000  0.0000000  3
     46     45     51     52     1  0.0000000  0.6508444  3
     46     45     51     53     1  0.0000000  0.6508444  3
     47     45     51    144     1  0.0000000  1.0460000  1
     47     45     51    144     1  0.0000000  0.0000000  3
     47     45     51     52     1  0.0000000  0.6508444  3
     47     45     51     53     1  0.0000000  0.6508444  3
     51    144    135    136     1  0.0000000  1.6038667  3
     51    144    135    137     1  0.0000000  1.6038667  3
     52     51    144    135     1  0.0000000  1.6038667  3
     53     51    144    135     1  0.0000000  1.6038667  3
     54    173    164    165     1  0.0000000  1.6038667  3
     54    173    164    166     1  0.0000000  1.6038667  3
     55     54    173    164     1  0.0000000  1.6038667  3
     56     54    173    164     1  0.0000000  1.6038667  3
     58     59     71     72     1  0.0000000  0.6508444  3
     58     59     71     73     1  0.0000000  0.6508444  3
     58     62     74     75     1  0.0000000  0.6508444  3
     58     62     74     76     1  0.0000000  0.6508444  3
     58     65     68     69     1  0.0000000  0.6508444  3
     58     65     68     70     1  0.0000000  0.6508444  3
     59     58     62     63     1  0.0000000  1.2552000  3
     59     58     62     64     1  0.0000000  1.2552000  3
     59     58     65     66     1  0.0000000  1.2552000  3
     59     58     65     67     1  0.0000000  1.2552000  3
     59     71     83     84     1  0.0000000  0.6508444  3
     59     71     83     85     1  0.0000000  0.6508444  3
     60     59     58     62     1  0.0000000  1.2552000  3
     60     59     58     65     1  0.0000000  1.2552000  3
     60     59     71     83     1  0.0000000  0.6508444  3
     60     59     71     72     1  0.0000000  0.6508444  3
     60     59     71     73     1  0.0000000  0.6508444  3
     61     59     58     62     1  0.0000000  1.2552000  3
     61     59     58     65     1  0.0000000  1.2552000  3
     61     59     71     83     1  0.0000000  0.6508444  3
     61     59     71     72     1  0.0000000  0.6508444  3
     61     59     71     73     1  0.0000000  0.6508444  3
     62     58     65     66     1  0.0000000  1.2552000  3
     62     58     65     67     1  0.0000000  1.2552000  3
     62     74     80     81     1  0.0000000  0.6508444  3
     62     74     80     82     1  0.0000000  0.6508444  3
     63     62     58     65     1  0.0000000  1.2552000  3
     63     62     74     80     1  0.0000000  0.6508444  3
     63     62     74     75     1  0.0000000  0.6508444  3
     63     62     74     76     1  0.0000000  0.6508444  3
     64     62     58     65     1  0.0000000  1.2552000  3
     64     62     74     80     1  0.0000000  0.6508444  3
     64     62     74     75     1  0.0000000  0.6508444  3
     64     62     74     76     1  0.0000000  0.6508444  3
     65     68     77     78     1  0.0000000  0.6508444  3
     65     68     77     79     1  0.0000000  0.6508444  3
     66     65     68     77     1  0.0000000  0.6508444  3
     66     65     68     69     1  0.0000000  0.6508444  3
     66     65     68     70     1  0.0000000  0.6508444  3
     67     65     68     77     1  0.0000000  0.6508444  3
     67     65     68     69     1  0.0000000  0.6508444  3
     67     65     68     70     1  0.0000000  0.6508444  3
     69     68     77     86     1  0.0000000  1.0460000  1
     69     68     77     86     1  0.0000000  0.0000000  3
     69     68     77     78     1  0.0000000  0.6508444  3
     69     68     77     79     1  0.0000000  0.6508444  3
     70     68     77     86     1  0.0000000  1.0460000  1
     70     68     77     86     1  0.0000000  0.0000000  3
     70     68     77     78     1  0.0000000  0.6508444  3
     70     68     77     79     1  0.0000000  0.6508444  3
     72     71     83    231     1  0.0000000  1.0460000  1
     72     71     83    231     1  0.0000000  0.0000000  3
     72     71     83     84     1  0.0000000  0.6508444  3
     72     71     83     85     1  0.0000000  0.6508444  3
     73     71     83    231     1  0.0000000  1.0460000  1
     73     71     83    231     1  0.0000000  0.0000000  3
     73     71     83     84     1  0.0000000  0.6508444  3
     73     71     83     85     1  0.0000000  0.6508444  3
     75     74     80    202     1  0.0000000  1.0460000  1
     75     74     80    202     1  0.0000000  0.0000000  3
     75     74     80     81     1  0.0000000  0.6508444  3
     75     74     80     82     1  0.0000000  0.6508444  3
     76     74     80    202     1  0.0000000  1.0460000  1
     76     74     80    202     1  0.0000000  0.0000000  3
     76     74     80     81     1  0.0000000  0.6508444  3
     76     74     80     82     1  0.0000000  0.6508444  3
     80    202    193    194     1  0.0000000  1.6038667  3
     80    202    193    195     1  0.0000000  1.6038667  3
     81     80    202    193     1  0.0000000  1.6038667  3
     82     80    202    193     1  0.0000000  1.6038667  3
     83    231    222    223     1  0.0000000  1.6038667  3
     83    231    222    224     1  0.0000000  1.6038667  3
     84     83    231    222     1  0.0000000  1.6038667  3
     85     83    231    222     1  0.0000000  1.6038667  3
     87     88    100    101     1  0.0000000  0.6508444  3
     87     88    100    102     1  0.0000000  0.6508444  3
     87     91    103    104     1  0.0000000  0.6508444  3
     87     91    103    105     1  0.0000000  0.6508444  3
     87     94     97     98     1  0.0000000  0.6508444  3
     87     94     97     99     1  0.0000000  0.6508444  3
     88     87     91     92     1  0.0000000  1.2552000  3
     88     87     91     93     1  0.0000000  1.2552000  3
     88     87     94     95     1  0.0000000  1.2552000  3
     88     87     94     96     1  0.0000000  1.2552000  3
     88    100    112    113     1  0.0000000  0.6508444  3
     88    100    112    114     1  0.0000000  0.6508444  3
     89     88     87     91     1  0.0000000  1.2552000  3
     89     88     87     94     1  0.0000000  1.2552000  3
     89     88    100    112     1  0.0000000  0.6508444  3
     89     88    100    101     1  0.0000000  0.6508444  3
     89     88    100    102     1  0.0000000  0.6508444  3
     90     88     87     91     1  0.0000000  1.2552000  3
     90     88     87     94     1  0.0000000  1.2552000  3
     90     88    100    112     1  0.0000000  0.6508444  3
     90     88    100    101     1  0.0000000  0.6508444  3
     90     88    100    102     1  0.0000000  0.6508444  3
     91     87     94     95     1  0.0000000  1.2552000  3
     91     87     94     96     1  0.0000000  1.2552000  3
     91    103    109    110     1  0.0000000  0.6508444  3
     91    103    109    111     1  0.0000000  0.6508444  3
     92     91     87     94     1  0.0000000  1.2552000  3
     92     91    103    109     1  0.0000000  0.6508444  3
     92     91    103    104     1  0.0000000  0.6508444  3
     92     91    103    105     1  0.0000000  0.6508444  3
     93     91     87     94     1  0.0000000  1.2552000  3
     93     91    103    109     1  0.0000000  0.6508444  3
     93     91    103    104     1  0.0000000  0.6508444  3
     93     91    103    105     1  0.0000000  0.6508444  3
     94     97    106    107     1  0.0000000  0.6508444  3
     94     97    106    108     1  0.0000000  0.6508444  3
     95     94     97    106     1  0.0000000  0.6508444  3
     95     94     97     98     1  0.0000000  0.6508444  3
     95     94     97     99     1  0.0000000  0.6508444  3
     96     94     97    106     1  0.0000000  0.6508444  3
     96     94     97     98     1  0.0000000  0.6508444  3
     96     94     97     99     1  0.0000000  0.6508444  3
     98     97    106    115     1  0.0000000  1.0460000  1
     98     97    106    115     1  0.0000000  0.0000000  3
     98     97    106    107     1  0.0000000  0.6508444  3
     98     97    106    108     1  0.0000000  0.6508444  3
     99     97    106    115     1  0.0000000  1.0460000  1
     99     97    106    115     1  0.0000000  0.0000000  3
     99     97    106    107     1  0.0000000  0.6508444  3
     99     97    106    108     1  0.0000000  0.6508444  3
    101    100    112    289     1  0.0000000  1.0460000  1
    101    100    112    289     1  0.0000000  0.0000000  3
    101    100    112    113     1  0.0000000  0.6508444  3
    101    100    112    114     1  0.0000000  0.6508444  3
    102    100    112    289     1  0.0000000  1.0460000  1
    102    100    112    289     1  0.0000000  0.0000000  3
    102    100    112    113     1  0.0000000  0.6508444  3
    102    100    112    114     1  0.0000000  0.6508444  3
    104    103    109    260     1  0.0000000  1.0460000  1
    104    103    109    260     1  0.0000000  0.0000000  3
    104    103    109    110     1  0.0000000  0.6508444  3
    104    103    109    111     1  0.0000000  0.6508444  3
    105    103    109    260     1  0.0000000  1.0460000  1
    105    103    109    260     1  0.0000000  0.0000000  3
    105    103    109    110     1  0.0000000  0.6508444  3
    105    103    109    111     1  0.0000000  0.6508444  3
    109    260    251    252     1  0.0000000  1.6038667  3
    109    260    251    253     1  0.0000000  1.6038667  3
    110    109    260    251     1  0.0000000  1.6038667  3
    111    109    260    251     1  0.0000000  1.6038667  3
    112    289    280    281     1  0.0000000  1.6038667  3
    112    289    280    282     1  0.0000000  1.6038667  3
    113    112    289    280     1  0.0000000  1.6038667  3
    114    112    289    280     1  0.0000000  1.6038667  3
    116    117    129    130     1  0.0000000  0.6508444  3
    116    117    129    131     1  0.0000000  0.6508444  3
    116    120    132    133     1  0.0000000  0.6508444  3
    116    120    132    134     1  0.0000000  0.6508444  3
    116    123    126    127     1  0.0000000  0.6508444  3
    116    123    126    128     1  0.0000000  0.6508444  3
    117    116    120    121     1  0.0000000  1.2552000  3
    117    116    120    122     1  0.0000000  1.2552000  3
    117    116    123    124     1  0.0000000  1.2552000  3
    117    116    123    125     1  0.0000000  1.2552000  3
    117    129    141    142     1  0.0000000  0.6508444  3
    117    129    141    143     1  0.0000000  0.6508444  3
    118    117    116    120     1  0.0000000  1.2552000  3
    118    117    116    123     1  0.0000000  1.2552000  3
    118    117    129    141     1  0.0000000  0.6508444  3
    118    117    129    130     1  0.0000000  0.6508444  3
    118    117    129    131     1  0.0000000  0.6508444  3
    119    117    116    120     1  0.0000000  1.2552000  3
    119    117    116    123     1  0.0000000  1.2552000  3
    119    117    129    141     1  0.0000000  0.6508444  3
    119    117    129    130     1  0.0000000  0.6508444  3
    119    117    129    131     1  0.0000000  0.6508444  3
    120    116    123    124     1  0.0000000  1.2552000  3
    120    116    123    125     1  0.0000000  1.2552000  3
    120    132    138    139     1  0.0000000  0.6508444  3
    120    132    138    140     1  0.0000000  0.6508444  3
    121    120    116    123     1  0.0000000  1.2552000  3
    121    120    132    138     1  0.0000000  0.6508444  3
    121    120    132    133     1  0.0000000  0.6508444  3
    121    120    132    134     1  0.0000000  0.6508444  3
    122    120    116    123     1  0.0000000  1.2552000  3
    122    120    132    138     1  0.0000000  0.6508444  3
    122    120    132    133     1  0.0000000  0.6508444  3
    122    120    132    134     1  0.0000000  0.6508444  3
    123    126    135    136     1  0.0000000  0.6508444  3
    123    126    135    137     1  0.0000000  0.6508444  3
    124    123    126    135     1  0.0000000  0.6508444  3
    124    123    126    127     1  0.0000000  0.6508444  3
    124    123    126    128     1  0.0000000  0.6508444  3
    125    123    126    135     1  0.0000000  0.6508444  3
    125    123    126    127     1  0.0000000  0.6508444  3
    125    123    126    128     1  0.0000000  0.6508444  3
    127    126    135    144     1  0.0000000  1.0460000  1
    127    126    135    144     1  0.0000000  0.0000000  3
    127    126    135    136     1  0.0000000  0.6508444  3
    127    126    135    137     1  0.0000000  0.6508444  3
    128    126    135    144     1  0.0000000  1.0460000  1
    128    126    135    144     1  0.0000000  0.0000000  3
    128    126    135    136     1  0.0000000  0.6508444  3
    128    126    135    137     1  0.0000000  0.6508444  3
    130    129    141    347     1  0.0000000  1.0460000  1
    130    129    141    347     1  0.0000000  0.0000000  3
    130    129    141    142     1  0.0000000  0.6508444  3
    130    129    141    143     1  0.0000000  0.6508444  3
    131    129    141    347     1  0.0000000  1.0460000  1
    131    129    141    347     1  0.0000000  0.0000000  3
    131    129    141    142     1  0.0000000  0.6508444  3
    131    129    141    143     1  0.0000000  0.6508444  3
    133    132    138    318     1  0.0000000  1.0460000  1
    133    132    138    318     1  0.0000000  0.0000000  3
    133    132    138    139     1  0.0000000  0.6508444  3
    133    132    138    140     1  0.0000000  0.6508444  3
    134    132    138    318     1  0.0000000  1.0460000  1
    134    132    138    318     1  0.0000000  0.0000000  3
    134    132    138    139     1  0.0000000  0.6508444  3
    134    132    138    140     1  0.0000000  0.6508444  3
    138    318    309    310     1  0.0000000  1.6038667  3
    138    318    309    311     1  0.0000000  1.6038667  3
    139    138    318    309     1  0.0000000  1.6038667  3
    140    138    318    309     1  0.0000000  1.6038667  3
    141    347    338    339     1  0.0000000  1.6038667  3
    141    347    338    340     1  0.0000000  1.6038667  3
    142    141    347    338     1  0.0000000  1.6038667  3
    143    141    347    338     1  0.0000000  1.6038667  3
    145    146    158    159     1  0.0000000  0.6508444  3
    145    146    158    160     1  0.0000000  0.6508444  3
    145    149    161    162     1  0.0000000  0.6508444  3
    145    149    161    163     1  0.0000000  0.6508444  3
    145    152    155    156     1  0.0000000  0.6508444  3
    145    152    155    157     1  0.0000000  0.6508444  3
    146    145    149    150     1  0.0000000  1.2552000  3
    146    145    149    151     1  0.0000000  1.2552000  3
    146    145    152    153     1  0.0000000  1.2552000  3
    146    145    152    154     1  0.0000000  1.2552000  3
    146    158    170    171     1  0.0000000  0.6508444  3
    146    158    170    172     1  0.0000000  0.6508444  3
    147    146    145    149     1  0.0000000  1.2552000  3
    147    146    145    152     1  0.0000000  1.2552000  3
    147    146    158    170     1  0.0000000  0.6508444  3
    147    146    158    159     1  0.0000000  0.6508444  3
    147    146    158    160     1  0.0000000  0.6508444  3
    148    146    145    149     1  0.0000000  1.2552000  3
    148    146    145    152     1  0.0000000  1.2552000  3
    148    146    158    170     1  0.0000000  0.6508444  3
    148    146    158    159     1  0.0000000  0.6508444  3
    148    146    158    160     1  0.0000000  0.6508444  3
    149    145    152    153     1  0.0000000  1.2552000  3
    149    145    152    154     1  0.0000000  1.2552000  3
    149    161    167    168     1  0.0000000  0.6508444  3
    149    161    167    169     1  0.0000000  0.6508444  3
    150    149    145    152     1  0.0000000  1.2552000  3
    150    149    161    167     1  0.0000000  0.6508444  3
    150    149    161    162     1  0.0000000  0.6508444  3
    150    149    161    163     1  0.0000000  0.6508444  3
    151    149    145    152     1  0.0000000  1.2552000  3
    151    149    161    167     1  0.0000000  0.6508444  3
    151    149    161    162     1  0.0000000  0.6508444  3
    151    149    161    163     1  0.0000000  0.6508444  3
    152    155    164    165     1  0.0000000  0.6508444  3
    152    155    164    166     1  0.0000000  0.6508444  3
    153    152    155    164     1  0.0000000  0.6508444  3
    153    152    155    156     1  0.0000000  0.6508444  3
    153    152    155    157     1  0.0000000  0.6508444  3
    154    152    155    164     1  0.0000000  0.6508444  3
    154    152    155    156     1  0.0000000  0.6508444  3
    154    152    155    157     1  0.0000000  0.6508444  3
    156    155    164    173     1  0.0000000  1.0460000  1
    156    155    164    173     1  0.0000000  0.0000000  3
    156    155    164    165     1  0.0000000  0.6508444  3
    156    155    164    166     1  0.0000000  0.6508444  3
    157    155    164    173     1  0.0000000  1.0460000  1
    157    155    164    173     1  0.0000000  0.0000000  3
    157    155    164    165     1  0.0000000  0.6508444  3
    157    155    164    166     1  0.0000000  0.6508444  3
    159    158    170    405     1  0.0000000  1.0460000  1
    159    158    170    405     1  0.0000000  0.0000000  3
    159    158    170    171     1  0.0000000  0.6508444  3
    159    158    170    172     1  0.0000000  0.6508444  3
    160    158    170    405     1  0.0000000  1.0460000  1
    160    158    170    405     1  0.0000000  0.0000000  3
    160    158    170    171     1  0.0000000  0.6508444  3
    160    158    170    172     1  0.0000000  0.6508444  3
    162    161    167    376     1  0.0000000  1.0460000  1
    162    161    167    376     1  0.0000000  0.0000000  3
    162    161    167    168     1  0.0000000  0.6508444  3
    162    161    167    169     1  0.0000000  0.6508444  3
    163    161    167    376     1  0.0000000  1.0460000  1
    163    161    167    376     1  0.0000000  0.0000000  3
    163    161    167    168     1  0.0000000  0.6508444  3
    163    161    167    169     1  0.0000000  0.6508444  3
    167    376    367    368     1  0.0000000  1.6038667  3
    167    376    367    369     1  0.0000000  1.6038667  3
    168    167    376    367     1  0.0000000  1.6038667  3
    169    167    376    367     1  0.0000000  1.6038667  3
    170    405    396    397     1  0.0000000  1.6038667  3
    170    405    396    398     1  0.0000000  1.6038667  3
    171    170    405    396     1  0.0000000  1.6038667  3
    172    170    405    396     1  0.0000000  1.6038667  3
    174    175    187    188     1  0.0000000  0.6508444  3
    174    175    187    189     1  0.0000000  0.6508444  3
    174    178    190    191     1  0.0000000  0.6508444  3
    174    178    190    192     1  0.0000000  0.6508444  3
    174    181    184    185     1  0.0000000  0.6508444  3
    174    181    184    186     1  0.0000000  0.6508444  3
    175    174    178    179     1  0.0000000  1.2552000  3
    175    174    178    180     1  0.0000000  1.2552000  3
    175    174    181    182     1  0.0000000  1.2552000  3
    175    174    181    183     1  0.0000000  1.2552000  3
    175    187    199    200     1  0.0000000  0.6508444  3
    175    187    199    201     1  0.0000000  0.6508444  3
    176    175    174    178     1  0.0000000  1.2552000  3
    176    175    174    181     1  0.0000000  1.2552000  3
    176    175    187    199     1  0.0000000  0.6508444  3
    176    175    187    188     1  0.0000000  0.6508444  3
    176    175    187    189     1  0.0000000  0.6508444  3
    177    175    174    178     1  0.0000000  1.2552000  3
    177    175    174    181     1  0.0000000  1.2552000  3
    177    175    187    199     1  0.0000000  0.6508444  3
    177    175    187    188     1  0.0000000  0.6508444  3
    177    175    187    189     1  0.0000000  0.6508444  3
    178    174    181    182     1  0.0000000  1.2552000  3
    178    174    181    183     1  0.0000000  1.2552000  3
    178    190    196    197     1  0.0000000  0.6508444  3
    178    190    196    198     1  0.0000000  0.6508444  3
    179    178    174    181     1  0.0000000  1.2552000  3
    179    178    190    196     1  0.0000000  0.6508444  3
    179    178    190    191     1  0.0000000  0.6508444  3
    179    178    190    192     1  0.0000000  0.6508444  3
    180    178    174    181     1  0.0000000  1.2552000  3
    180    178    190    196     1  0.0000000  0.6508444  3
    180    178    190    191     1  0.0000000  0.6508444  3
    180    178    190    192     1  0.0000000  0.6508444  3
    181    184    193    194     1  0.0000000  0.6508444  3
    181    184    193    195     1  0.0000000  0.6508444  3
    182    181    184    193     1  0.0000000  0.6508444  3
    182    181    184    185     1  0.0000000  0.6508444  3
    182    181    184    186     1  0.0000000  0.6508444  3
    183    181    184    193     1  0.0000000  0.6508444  3
    183    181    184    185     1  0.0000000  0.6508444  3
    183    181    184    186     1  0.0000000  0.6508444  3
    185    184    193    202     1  0.0000000  1.0460000  1
    185    184    193    202     1  0.0000000  0.0000000  3
    185    184    193    194     1  0.0000000  0.6508444  3
    185    184    193    195     1  0.0000000  0.6508444  3
    186    184    193    202     1  0.0000000  1.0460000  1
    186    184    193    202     1  0.0000000  0.0000000  3
    186    184    193    194     1  0.0000000  0.6508444  3
    186    184    193    195     1  0.0000000  0.6508444  3
    188    187    199    463     1  0.0000000  1.0460000  1
    188    187    199    463     1  0.0000000  0.0000000  3
    188    187    199    200     1  0.0000000  0.6508444  3
    188    187    199    201     1  0.0000000  0.6508444  3
    189    187    199    463     1  0.0000000  1.0460000  1
    189    187    199    463     1  0.0000000  0.0000000  3
    189    187    199    200     1  0.0000000  0.6508444  3
    189    187    199    201     1  0.0000000  0.6508444  3
    191    190    196    434     1  0.0000000  1.0460000  1
    191    190    196    434     1  0.0000000  0.0000000  3
    191    190    196    197     1  0.0000000  0.6508444  3
    191    190    196    198     1  0.0000000  0.6508444  3
    192    190    196    434     1  0.0000000  1.0460000  1
    192    190    196    434     1  0.0000000  0.0000000  3
    192    190    196    197     1  0.0000000  0.6508444  3
    192    190    196    198     1  0.0000000  0.6508444  3
    196    434    425    426     1  0.0000000  1.6038667  3
    196    434    425    427     1  0.0000000  1.6038667  3
    197    196    434    425     1  0.0000000  1.6038667  3
    198    196    434    425     1  0.0000000  1.6038667  3
    199    463    454    455     1  0.0000000  1.6038667  3
    199    463    454    456     1  0.0000000  1.6038667  3
    200    199    463    454     1  0.0000000  1.6038667  3
    201    199    463    454     1  0.0000000  1.6038667  3
    203    204    216    217     1  0.0000000  0.6508444  3
    203    204    216    218     1  0.0000000  0.6508444  3
    203    207    219    220     1  0.0000000  0.6508444  3
    203    207    219    221     1  0.0000000  0.6508444  3
    203    210    213    214     1  0.0000000  0.6508444  3
    203    210    213    215     1  0.0000000  0.6508444  3
    204    203    207    208     1  0.0000000  1.2552000  3
    204    203    207    209     1  0.0000000  1.2552000  3
    204    203    210    211     1  0.0000000  1.2552000  3
    204    203    210    212     1  0.0000000  1.2552000  3
    204    216    228    229     1  0.0000000  0.6508444  3
    204    216    228    230     1  0.0000000  0.6508444  3
    205    204    203    207     1  0.0000000  1.2552000  3
    205    204    203    210     1  0.0000000  1.2552000  3
    205    204    216    228     1  0.0000000  0.6508444  3
    205    204    216    217     1  0.0000000  0.6508444  3
    205    204    216    218     1  0.0000000  0.6508444  3
    206    204    203    207     1  0.0000000  1.2552000  3
    206    204    203    210     1  0.0000000  1.2552000  3
    206    204    216    228     1  0.0000000  0.6508444  3
    206    204    216    217     1  0.0000000  0.6508444  3
    206    204    216    218     1  0.0000000  0.6508444  3
    207    203    210    211     1  0.0000000  1.2552000  3
    207    203    210    212     1  0.0000000  1.2552000  3
    207    219    225    226     1  0.0000000  0.6508444  3
    207    219    225    227     1  0.0000000  0.6508444  3
    208    207    203    210     1  0.0000000  1.2552000  3
    208    207    219    225     1  0.0000000  0.6508444  3
    208    207    219    220     1  0.0000000  0.6508444  3
    208    207    219    221     1  0.0000000  0.6508444  3
    209    207    203    210     1  0.0000000  1.2552000  3
    209    207    219    225     1  0.0000000  0.6508444  3
    209    207    219    220     1  0.0000000  0.6508444  3
    209    207    219    221     1  0.0000000  0.6508444  3
    210    213    222    223     1  0.0000000  0.6508444  3
    210    213    222    224     1  0.0000000  0.6508444  3
    211    210    213    222     1  0.0000000  0.6508444  3
    211    210    213    214     1  0.0000000  0.6508444  3
    211    210    213    215     1  0.0000000  0.6508444  3
    212    210    213    222     1  0.0000000  0.6508444  3
    212    210    213    214     1  0.0000000  0.6508444  3
    212    210    213    215     1  0.0000000  0.6508444  3
    214    213    222    231     1  0.0000000  1.0460000  1
    214    213    222    231     1  0.0000000  0.0000000  3
    214    213    222    223     1  0.0000000  0.6508444  3
    214    213    222    224     1  0.0000000  0.6508444  3
    215    213    222    231     1  0.0000000  1.0460000  1
    215    213    222    231     1  0.0000000  0.0000000  3
    215    213    222    223     1  0.0000000  0.6508444  3
    215    213    222    224     1  0.0000000  0.6508444  3
    217    216    228    521     1  0.0000000  1.0460000  1
    217    216    228    521     1  0.0000000  0.0000000  3
    217    216    228    229     1  0.0000000  0.6508444  3
    217    216    228    230     1  0.0000000  0.6508444  3
    218    216    228    521     1  0.0000000  1.0460000  1
    218    216    228    521     1  0.0000000  0.0000000  3
    218    216    228    229     1  0.0000000  0.6508444  3
    218    216    228    230     1  0.0000000  0.6508444  3
    220    219    225    492     1  0.0000000  1.0460000  1
    220    219    225    492     1  0.0000000  0.0000000  3
    220    219    225    226     1  0.0000000  0.6508444  3
    220    219    225    227     1  0.0000000  0.6508444  3
    221    219    225    492     1  0.0000000  1.0460000  1
    221    219    225    492     1  0.0000000  0.0000000  3
    221    219    225    226     1  0.0000000  0.6508444  3
    221    219    225    227     1  0.0000000  0.6508444  3
    225    492    483    484     1  0.0000000  1.6038667  3
    225    492    483    485     1  0.0000000  1.6038667  3
    226    225    492    483     1  0.0000000  1.6038667  3
    227    225    492    483     1  0.0000000  1.6038667  3
    228    521    512    513     1  0.0000000  1.6038667  3
    228    521    512    514     1  0.0000000  1.6038667  3
    229    228    521    512     1  0.0000000  1.6038667  3
    230    228    521    512     1  0.0000000  1.6038667  3
    232    233    245    246     1  0.0000000  0.6508444  3
    232    233    245    247     1  0.0000000  0.6508444  3
    232    236    248    249     1  0.0000000  0.6508444  3
    232    236    248    250     1  0.0000000  0.6508444  3
    232    239    242    243     1  0.0000000  0.6508444  3
    232    239    242    244     1  0.0000000  0.6508444  3
    233    232    236    237     1  0.0000000  1.2552000  3
    233    232    236    238     1  0.0000000  1.2552000  3
    233    232    239    240     1  0.0000000  1.2552000  3
    233    232    239    241     1  0.0000000  1.2552000  3
    233    245    257    258     1  0.0000000  0.6508444  3
    233    245    257    259     1  0.0000000  0.6508444  3
    234    233    232    236     1  0.0000000  1.2552000  3
    234    233    232    239     1  0.0000000  1.2552000  3
    234    233    245    257     1  0.0000000  0.6508444  3
    234    233    245    246     1  0.0000000  0.6508444  3
    234    233    245    247     1  0.0000000  0.6508444  3
    235    233    232    236     1  0.0000000  1.2552000  3
    235    233    232    239     1  0.0000000  1.2552000  3
    235    233    245    257     1  0.0000000  0.6508444  3
    235    233    245    246     1  0.0000000  0.6508444  3
    235    233    245    247     1  0.0000000  0.6508444  3
    236    232    239    240     1  0.0000000  1.2552000  3
    236    232    239    241     1  0.0000000  1.2552000  3
    236    248    254    255     1  0.0000000  0.6508444  3
    236    248    254    256     1  0.0000000  0.6508444  3
    237    236    232    239     1  0.0000000  1.2552000  3
    237    236    248    254     1  0.0000000  0.6508444  3
    237    236    248    249     1  0.0000000  0.6508444  3
    237    236    248    250     1  0.0000000  0.6508444  3
    238    236    232    239     1  0.0000000  1.2552000  3
    238    236    248    254     1  0.0000000  0.6508444  3
    238    236    248    249     1  0.0000000  0.6508444  3
    238    236    248    250     1  0.0000000  0.6508444  3
    239    242    251    252     1  0.0000000  0.6508444  3
    239    242    251    253     1  0.0000000  0.6508444  3
    240    239    242    251     1  0.0000000  0.6508444  3
    240    239    242    243     1  0.0000000  0.6508444  3
    240    239    242    244     1  0.0000000  0.6508444  3
    241    239    242    251     1  0.0000000  0.6508444  3
    241    239    242    243     1  0.0000000  0.6508444  3
    241    239    242    244     1  0.0000000  0.6508444  3
    243    242    251    260     1  0.0000000  1.0460000  1
    243    242    251    260     1  0.0000000  0.0000000  3
    243    242    251    252     1  0.0000000  0.6508444  3
    243    242    251    253     1  0.0000000  0.6508444  3
    244    242    251    260     1  0.0000000  1.0460000  1
    244    242    251    260     1  0.0000000  0.0000000  3
    244    242    251    252     1  0.0000000  0.6508444  3
    244    242    251    253     1  0.0000000  0.6508444  3
    246    245    257    579     1  0.0000000  1.0460000  1
    246    245    257    579     1  0.0000000  0.0000000  3
    246    245    257    258     1  0.0000000  0.6508444  3
    246    245    257    259     1  0.0000000  0.6508444  3
    247    245    257    579     1  0.0000000  1.0460000  1
    247    245    257    579     1  0.0000000  0.0000000  3
    247    245    257    258     1  0.0000000  0.6508444  3
    247    245    257    259     1  0.0000000  0.6508444  3
    249    248    254    550     1  0.0000000  1.0460000  1
    249    248    254    550     1  0.0000000  0.0000000  3
    249    248    254    255     1  0.0000000  0.6508444  3
    249    248    254    256     1  0.0000000  0.6508444  3
    250    248    254    550     1  0.0000000  1.0460000  1
    250    248    254    550     1  0.0000000  0.0000000  3
    250    248    254    255     1  0.0000000  0.6508444  3
    250    248    254    256     1  0.0000000  0.6508444  3
    254    550    541    542     1  0.0000000  1.6038667  3
    254    550    541    543     1  0.0000000  1.6038667  3
    255    254    550    541     1  0.0000000  1.6038667  3
    256    254    550    541     1  0.0000000  1.6038667  3
    257    579    570    571     1  0.0000000  1.6038667  3
    257    579    570    572     1  0.0000000  1.6038667  3
    258    257    579    570     1  0.0000000  1.6038667  3
    259    257    579    570     1  0.0000000  1.6038667  3
    261    262    274    275     1  0.0000000  0.6508444  3
    261    262    274    276     1  0.0000000  0.6508444  3
    261    265    277    278     1  0.0000000  0.6508444  3
    261    265    277    279     1  0.0000000  0.6508444  3
    261    268    271    272     1  0.0000000  0.6508444  3
    261    268    271    273     1  0.0000000  0.6508444  3
    262    261    265    266     1  0.0000000  1.2552000  3
    262    261    265    267     1  0.0000000  1.2552000  3
    262    261    268    269     1  0.0000000  1.2552000  3
    262    261    268    270     1  0.0000000  1.2552000  3
    262    274    286    287     1  0.0000000  0.6508444  3
    262    274    286    288     1  0.0000000  0.6508444  3
    263    262    261    265     1  0.0000000  1.2552000  3
    263    262    261    268     1  0.0000000  1.2552000  3
    263    262    274    286     1  0.0000000  0.6508444  3
    263    262    274    275     1  0.0000000  0.6508444  3
    263    262    274    276     1  0.0000000  0.6508444  3
    264    262    261    265     1  0.0000000  1.2552000  3
    264    262    261    268     1  0.0000000  1.2552000  3
    264    262    274    286     1  0.0000000  0.6508444  3
    264    262    274    275     1  0.0000000  0.6508444  3
    264    262    274    276     1  0.0000000  0.6508444  3
    265    261    268    269     1  0.0000000  1.2552000  3
    265    261    268    270     1  0.0000000  1.2552000  3
    265    277    283    284     1  0.0000000  0.6508444  3
    265    277    283    285     1  0.0000000  0.6508444  3
    266    265    261    268     1  0.0000000  1.2552000  3
    266    265    277    283     1  0.0000000  0.6508444  3
    266    265    277    278     1  0.0000000  0.6508444  3
    266    265    277    279     1  0.0000000  0.6508444  3
    267    265    261    268     1  0.0000000  1.2552000  3
    267    265    277    283     1  0.0000000  0.6508444  3
    267    265    277    278     1  0.0000000  0.6508444  3
    267    265    277    279     1  0.0000000  0.6508444  3
    268    271    280    281     1  0.0000000  0.6508444  3
    268    271    280    282     1  0.0000000  0.6508444  3
    269    268    271    280     1  0.0000000  0.6508444  3
    269    268    271    272     1  0.0000000  0.6508444  3
    269    268    271    273     1  0.0000000  0.6508444  3
    270    268    271    280     1  0.0000000  0.6508444  3
    270    268    271    272     1  0.0000000  0.6508444  3
    270    268    271    273     1  0.0000000  0.6508444  3
    272    271    280    289     1  0.0000000  1.0460000  1
    272    271    280    289     1  0.0000000  0.0000000  3
    272    271    280    281     1  0.0000000  0.6508444  3
    272    271    280    282     1  0.0000000  0.6508444  3
    273    271    280    289     1  0.0000000  1.0460000  1
    273    271    280    289     1  0.0000000  0.0000000  3
    273    271    280    281     1  0.0000000  0.6508444  3
    273    271    280    282     1  0.0000000  0.6508444  3
    275    274    286    637     1  0.0000000  1.0460000  1
    275    274    286    637     1  0.0000000  0.0000000  3
    275    274    286    287     1  0.0000000  0.6508444  3
    275    274    286    288     1  0.0000000  0.6508444  3
    276    274    286    637     1  0.0000000  1.0460000  1
    276    274    286    637     1  0.0000000  0.0000000  3
    276    274    286    287     1  0.0000000  0.6508444  3
    276    274    286    288     1  0.0000000  0.6508444  3
    278    277    283    608     1  0.0000000  1.0460000  1
    278    277    283    608     1  0.0000000  0.0000000  3
    278    277    283    284     1  0.0000000  0.6508444  3
    278    277    283    285     1  0.0000000  0.6508444  3
    279    277    283    608     1  0.0000000  1.0460000  1
    279    277    283    608     1  0.0000000  0.0000000  3
    279    277    283    284     1  0.0000000  0.6508444  3
    279    277    283    285     1  0.0000000  0.6508444  3
    283    608    599    600     1  0.0000000  1.6038667  3
    283    608    599    601     1  0.0000000  1.6038667  3
    284    283    608    599     1  0.0000000  1.6038667  3
    285    283    608    599     1  0.0000000  1.6038667  3
    286    637    628    629     1  0.0000000  1.6038667  3
    286    637    628    630     1  0.0000000  1.6038667  3
    287    286    637    628     1  0.0000000  1.6038667  3
    288    286    637    628     1  0.0000000  1.6038667  3
    290    291    303    304     1  0.0000000  0.6508444  3
    290    291    303    305     1  0.0000000  0.6508444  3
    290    294    306    307     1  0.0000000  0.6508444  3
    290    294    306    308     1  0.0000000  0.6508444  3
    290    297    300    301     1  0.0000000  0.6508444  3
    290    297    300    302     1  0.0000000  0.6508444  3
    291    290    294    295     1  0.0000000  1.2552000  3
    291    290    294    296     1  0.0000000  1.2552000  3
    291    290    297    298     1  0.0000000  1.2552000  3
    291    290    297    299     1  0.0000000  1.2552000  3
    291    303    315    316     1  0.0000000  0.6508444  3
    291    303    315    317     1  0.0000000  0.6508444  3
    292    291    290    294     1  0.0000000  1.2552000  3
    292    291    290    297     1  0.0000000  1.2552000  3
    292    291    303    315     1  0.0000000  0.6508444  3
    292    291    303    304     1  0.0000000  0.6508444  3
    292    291    303    305     1  0.0000000  0.6508444  3
    293    291    290    294     1  0.0000000  1.2552000  3
    293    291    290    297     1  0.0000000  1.2552000  3
    293    291    303    315     1  0.0000000  0.6508444  3
    293    291    303    304     1  0.0000000  0.6508444  3
    293    291    303    305     1  0.0000000  0.6508444  3
    294    290    297    298     1  0.0000000  1.2552000  3
    294    290    297    299     1  0.0000000  1.2552000  3
    294    306    312    313     1  0.0000000  0.6508444  3
    294    306    312    314     1  0.0000000  0.6508444  3
    295    294    290    297     1  0.0000000  1.2552000  3
    295    294    306    312     1  0.0000000  0.6508444  3
    295    294    306    307     1  0.0000000  0.6508444  3
    295    294    306    308     1  0.0000000  0.6508444  3
    296    294    290    297     1  0.0000000  1.2552000  3
    296    294    306    312     1  0.0000000  0.6508444  3
    296    294    306    307     1  0.0000000  0.6508444  3
    296    294    306    308     1  0.0000000  0.6508444  3
    297    300    309    310     1  0.0000000  0.6508444  3
    297    300    309    311     1  0.0000000  0.6508444  3
    298    297    300    309     1  0.0000000  0.6508444  3
    298    297    300    301     1  0.0000000  0.6508444  3
    298    297    300    302     1  0.0000000  0.6508444  3
    299    297    300    309     1  0.0000000  0.6508444  3
    299    297    300    301     1  0.0000000  0.6508444  3
    299    297    300    302     1  0.0000000  0.6508444  3
    301    300    309    318     1  0.0000000  1.0460000  1
    301    300    309    318     1  0.0000000  0.0000000  3
    301    300    309    310     1  0.0000000  0.6508444  3
    301    300    309    311     1  0.0000000  0.6508444  3
    302    300    309    318     1  0.0000000  1.0460000  1
    302    300    309    318     1  0.0000000  0.0000000  3
    302    300    309    310     1  0.0000000  0.6508444  3
    302    300    309    311     1  0.0000000  0.6508444  3
    304    303    315    699     1  0.0000000  1.0460000  1
    304    303    315    699     1  0.0000000  0.0000000  3
    304    303    315    316     1  0.0000000  0.6508444  3
    304    303    315    317     1  0.0000000  0.6508444  3
    305    303    315    699     1  0.0000000  1.0460000  1
    305    303    315    699     1  0.0000000  0.0000000  3
    305    303    315    316     1  0.0000000  0.6508444  3
    305    303    315    317     1  0.0000000  0.6508444  3
    307    306    312    668     1  0.0000000  1.0460000  1
    307    306    312    668     1  0.0000000  0.0000000  3
    307    306    312    313     1  0.0000000  0.6508444  3
    307    306    312    314     1  0.0000000  0.6508444  3
    308    306    312    668     1  0.0000000  1.0460000  1
    308    306    312    668     1  0.0000000  0.0000000  3
    308    306    312    313     1  0.0000000  0.6508444  3
    308    306    312    314     1  0.0000000  0.6508444  3
    312    668    638    639     1  0.0000000  1.6038667  3
    312    668    638    640     1  0.0000000  1.6038667  3
    313    312    668    638     1  0.0000000  1.6038667  3
    314    312    668    638     1  0.0000000  1.6038667  3
    315    699    669    670     1  0.0000000  1.6038667  3
    315    699    669    671     1  0.0000000  1.6038667  3
    316    315    699    669     1  0.0000000  1.6038667  3
    317    315    699    669     1  0.0000000  1.6038667  3
    319    320    332    333     1  0.0000000  0.6508444  3
    319    320    332    334     1  0.0000000  0.6508444  3
    319    323    335    336     1  0.0000000  0.6508444  3
    319    323    335    337     1  0.0000000  0.6508444  3
    319    326    329    330     1  0.0000000  0.6508444  3
    319    326    329    331     1  0.0000000  0.6508444  3
    320    319    323    324     1  0.0000000  1.2552000  3
    320    319    323    325     1  0.0000000  1.2552000  3
    320    319    326    327     1  0.0000000  1.2552000  3
    320    319    326    328     1  0.0000000  1.2552000  3
    320    332    344    345     1  0.0000000  0.6508444  3
    320    332    344    346     1  0.0000000  0.6508444  3
    321    320    319    323     1  0.0000000  1.2552000  3
    321    320    319    326     1  0.0000000  1.2552000  3
    321    320    332    344     1  0.0000000  0.6508444  3
    321    320    332    333     1  0.0000000  0.6508444  3
    321    320    332    334     1  0.0000000  0.6508444  3
    322    320    319    323     1  0.0000000  1.2552000  3
    322    320    319    326     1  0.0000000  1.2552000  3
    322    320    332    344     1  0.0000000  0.6508444  3
    322    320    332    333     1  0.0000000  0.6508444  3
    322    320    332    334     1  0.0000000  0.6508444  3
    323    319    326    327     1  0.0000000  1.2552000  3
    323    319    326    328     1  0.0000000  1.2552000  3
    323    335    341    342     1  0.0000000  0.6508444  3
    323    335    341    343     1  0.0000000  0.6508444  3
    324    323    319    326     1  0.0000000  1.2552000  3
    324    323    335    341     1  0.0000000  0.6508444  3
    324    323    335    336     1  0.0000000  0.6508444  3
    324    323    335    337     1  0.0000000  0.6508444  3
    325    323    319    326     1  0.0000000  1.2552000  3
    325    323    335    341     1  0.0000000  0.6508444  3
    325    323    335    336     1  0.0000000  0.6508444  3
    325    323    335    337     1  0.0000000  0.6508444  3
    326    329    338    339     1  0.0000000  0.6508444  3
    326    329    338    340     1  0.0000000  0.6508444  3
    327    326    329    338     1  0.0000000  0.6508444  3
    327    326    329    330     1  0.0000000  0.6508444  3
    327    326    329    331     1  0.0000000  0.6508444  3
    328    326    329    338     1  0.0000000  0.6508444  3
    328    326    329    330     1  0.0000000  0.6508444  3
    328    326    329    331     1  0.0000000  0.6508444  3
    330    329    338    347     1  0.0000000  1.0460000  1
    330    329    338    347     1  0.0000000  0.0000000  3
    330    329    338    339     1  0.0000000  0.6508444  3
    330    329    338    340     1  0.0000000  0.6508444  3
    331    329    338    347     1  0.0000000  1.0460000  1
    331    329    338    347     1  0.0000000  0.0000000  3
    331    329    338    339     1  0.0000000  0.6508444  3
    331    329    338    340     1  0.0000000  0.6508444  3
    333    332    344    761     1  0.0000000  1.0460000  1
    333    332    344    761     1  0.0000000  0.0000000  3
    333    332    344    345     1  0.0000000  0.6508444  3
    333    332    344    346     1  0.0000000  0.6508444  3
    334    332    344    761     1  0.0000000  1.0460000  1
    334    332    344    761     1  0.0000000  0.0000000  3
    334    332    344    345     1  0.0000000  0.6508444  3
    334    332    344    346     1  0.0000000  0.6508444  3
    336    335    341    730     1  0.0000000  1.0460000  1
    336    335    341    730     1  0.0000000  0.0000000  3
    336    335    341    342     1  0.0000000  0.6508444  3
    336    335    341    343     1  0.0000000  0.6508444  3
    337    335    341    730     1  0.0000000  1.0460000  1
    337    335    341    730     1  0.0000000  0.0000000  3
    337    335    341    342     1  0.0000000  0.6508444  3
    337    335    341    343     1  0.0000000  0.6508444  3
    341    730    700    701     1  0.0000000  1.6038667  3
    341    730    700    702     1  0.0000000  1.6038667  3
    342    341    730    700     1  0.0000000  1.6038667  3
    343    341    730    700     1  0.0000000  1.6038667  3
    344    761    731    732     1  0.0000000  1.6038667  3
    344    761    731    733     1  0.0000000  1.6038667  3
    345    344    761    731     1  0.0000000  1.6038667  3
    346    344    761    731     1  0.0000000  1.6038667  3
    348    349    361    362     1  0.0000000  0.6508444  3
    348    349    361    363     1  0.0000000  0.6508444  3
    348    352    364    365     1  0.0000000  0.6508444  3
    348    352    364    366     1  0.0000000  0.6508444  3
    348    355    358    359     1  0.0000000  0.6508444  3
    348    355    358    360     1  0.0000000  0.6508444  3
    349    348    352    353     1  0.0000000  1.2552000  3
    349    348    352    354     1  0.0000000  1.2552000  3
    349    348    355    356     1  0.0000000  1.2552000  3
    349    348    355    357     1  0.0000000  1.2552000  3
    349    361    373    374     1  0.0000000  0.6508444  3
    349    361    373    375     1  0.0000000  0.6508444  3
    350    349    348    352     1  0.0000000  1.2552000  3
    350    349    348    355     1  0.0000000  1.2552000  3
    350    349    361    373     1  0.0000000  0.6508444  3
    350    349    361    362     1  0.0000000  0.6508444  3
    350    349    361    363     1  0.0000000  0.6508444  3
    351    349    348    352     1  0.0000000  1.2552000  3
    351    349    348    355     1  0.0000000  1.2552000  3
    351    349    361    373     1  0.0000000  0.6508444  3
    351    349    361    362     1  0.0000000  0.6508444  3
    351    349    361    363     1  0.0000000  0.6508444  3
    352    348    355    356     1  0.0000000  1.2552000  3
    352    348    355    357     1  0.0000000  1.2552000  3
    352    364    370    371     1  0.0000000  0.6508444  3
    352    364    370    372     1  0.0000000  0.6508444  3
    353    352    348    355     1  0.0000000  1.2552000  3
    353    352    364    370     1  0.0000000  0.6508444  3
    353    352    364    365     1  0.0000000  0.6508444  3
    353    352    364    366     1  0.0000000  0.6508444  3
    354    352    348    355     1  0.0000000  1.2552000  3
    354    352    364    370     1  0.0000000  0.6508444  3
    354    352    364    365     1  0.0000000  0.6508444  3
    354    352    364    366     1  0.0000000  0.6508444  3
    355    358    367    368     1  0.0000000  0.6508444  3
    355    358    367    369     1  0.0000000  0.6508444  3
    356    355    358    367     1  0.0000000  0.6508444  3
    356    355    358    359     1  0.0000000  0.6508444  3
    356    355    358    360     1  0.0000000  0.6508444  3
    357    355    358    367     1  0.0000000  0.6508444  3
    357    355    358    359     1  0.0000000  0.6508444  3
    357    355    358    360     1  0.0000000  0.6508444  3
    359    358    367    376     1  0.0000000  1.0460000  1
    359    358    367    376     1  0.0000000  0.0000000  3
    359    358    367    368     1  0.0000000  0.6508444  3
    359    358    367    369     1  0.0000000  0.6508444  3
    360    358    367    376     1  0.0000000  1.0460000  1
    360    358    367    376     1  0.0000000  0.0000000  3
    360    358    367    368     1  0.0000000  0.6508444  3
    360    358    367    369     1  0.0000000  0.6508444  3
    362    361    373    823     1  0.0000000  1.0460000  1
    362    361    373    823     1  0.0000000  0.0000000  3
    362    361    373    374     1  0.0000000  0.6508444  3
    362    361    373    375     1  0.0000000  0.6508444  3
    363    361    373    823     1  0.0000000  1.0460000  1
    363    361    373    823     1  0.0000000  0.0000000  3
    363    361    373    374     1  0.0000000  0.6508444  3
    363    361    373    375     1  0.0000000  0.6508444  3
    365    364    370    792     1  0.0000000  1.0460000  1
    365    364    370    792     1  0.0000000  0.0000000  3
    365    364    370    371     1  0.0000000  0.6508444  3
    365    364    370    372     1  0.0000000  0.6508444  3
    366    364    370    792     1  0.0000000  1.0460000  1
    366    364    370    792     1  0.0000000  0.0000000  3
    366    364    370    371     1  0.0000000  0.6508444  3
    366    364    370    372     1  0.0000000  0.6508444  3
    370    792    762    763     1  0.0000000  1.6038667  3
    370    792    762    764     1  0.0000000  1.6038667  3
    371    370    792    762     1  0.0000000  1.6038667  3
    372    370    792    762     1  0.0000000  1.6038667  3
    373    823    793    794     1  0.0000000  1.6038667  3
    373    823    793    795     1  0.0000000  1.6038667  3
    374    373    823    793     1  0.0000000  1.6038667  3
    375    373    823    793     1  0.0000000  1.6038667  3
    377    378    390    391     1  0.0000000  0.6508444  3
    377    378    390    392     1  0.0000000  0.6508444  3
    377    381    393    394     1  0.0000000  0.6508444  3
    377    381    393    395     1  0.0000000  0.6508444  3
    377    384    387    388     1  0.0000000  0.6508444  3
    377    384    387    389     1  0.0000000  0.6508444  3
    378    377    381    382     1  0.0000000  1.2552000  3
    378    377    381    383     1  0.0000000  1.2552000  3
    378    377    384    385     1  0.0000000  1.2552000  3
    378    377    384    386     1  0.0000000  1.2552000  3
    378    390    402    403     1  0.0000000  0.6508444  3
    378    390    402    404     1  0.0000000  0.6508444  3
    379    378    377    381     1  0.0000000  1.2552000  3
    379    378    377    384     1  0.0000000  1.2552000  3
    379    378    390    402     1  0.0000000  0.6508444  3
    379    378    390    391     1  0.0000000  0.6508444  3
    379    378    390    392     1  0.0000000  0.6508444  3
    380    378    377    381     1  0.0000000  1.2552000  3
    380    378    377    384     1  0.0000000  1.2552000  3
    380    378    390    402     1  0.0000000  0.6508444  3
    380    378    390    391     1  0.0000000  0.6508444  3
    380    378    390    392     1  0.0000000  0.6508444  3
    381    377    384    385     1  0.0000000  1.2552000  3
    381    377    384    386     1  0.0000000  1.2552000  3
    381    393    399    400     1  0.0000000  0.6508444  3
    381    393    399    401     1  0.0000000  0.6508444  3
    382    381    377    384     1  0.0000000  1.2552000  3
    382    381    393    399     1  0.0000000  0.6508444  3
    382    381    393    394     1  0.0000000  0.6508444  3
    382    381    393    395     1  0.0000000  0.6508444  3
    383    381    377    384     1  0.0000000  1.2552000  3
    383    381    393    399     1  0.0000000  0.6508444  3
    383    381    393    394     1  0.0000000  0.6508444  3
    383    381    393    395     1  0.0000000  0.6508444  3
    384    387    396    397     1  0.0000000  0.6508444  3
    384    387    396    398     1  0.0000000  0.6508444  3
    385    384    387    396     1  0.0000000  0.6508444  3
    385    384    387    388     1  0.0000000  0.6508444  3
    385    384    387    389     1  0.0000000  0.6508444  3
    386    384    387    396     1  0.0000000  0.6508444  3
    386    384    387    388     1  0.0000000  0.6508444  3
    386    384    387    389     1  0.0000000  0.6508444  3
    388    387    396    405     1  0.0000000  1.0460000  1
    388    387    396    405     1  0.0000000  0.0000000  3
    388    387    396    397     1  0.0000000  0.6508444  3
    388    387    396    398     1  0.0000000  0.6508444  3
    389    387    396    405     1  0.0000000  1.0460000  1
    389    387    396    405     1  0.0000000  0.0000000  3
    389    387    396    397     1  0.0000000  0.6508444  3
    389    387    396    398     1  0.0000000  0.6508444  3
    391    390    402    885     1  0.0000000  1.0460000  1
    391    390    402    885     1  0.0000000  0.0000000  3
    391    390    402    403     1  0.0000000  0.6508444  3
    391    390    402    404     1  0.0000000  0.6508444  3
    392    390    402    885     1  0.0000000  1.0460000  1
    392    390    402    885     1  0.0000000  0.0000000  3
    392    390    402    403     1  0.0000000  0.6508444  3
    392    390    402    404     1  0.0000000  0.6508444  3
    394    393    399    854     1  0.0000000  1.0460000  1
    394    393    399    854     1  0.0000000  0.0000000  3
    394    393    399    400     1  0.0000000  0.6508444  3
    394    393    399    401     1  0.0000000  0.6508444  3
    395    393    399    854     1  0.0000000  1.0460000  1
    395    393    399    854     1  0.0000000  0.0000000  3
    395    393    399    400     1  0.0000000  0.6508444  3
    395    393    399    401     1  0.0000000  0.6508444  3
    399    854    824    825     1  0.0000000  1.6038667  3
    399    854    824    826     1  0.0000000  1.6038667  3
    400    399    854    824     1  0.0000000  1.6038667  3
    401    399    854    824     1  0.0000000  1.6038667  3
    402    885    855    856     1  0.0000000  1.6038667  3
    402    885    855    857     1  0.0000000  1.6038667  3
    403    402    885    855     1  0.0000000  1.6038667  3
    404    402    885    855     1  0.0000000  1.6038667  3
    406    407    419    420     1  0.0000000  0.6508444  3
    406    407    419    421     1  0.0000000  0.6508444  3
    406    410    422    423     1  0.0000000  0.6508444  3
    406    410    422    424     1  0.0000000  0.6508444  3
    406    413    416    417     1  0.0000000  0.6508444  3
    406    413    416    418     1  0.0000000  0.6508444  3
    407    406    410    411     1  0.0000000  1.2552000  3
    407    406    410    412     1  0.0000000  1.2552000  3
    407    406    413    414     1  0.0000000  1.2552000  3
    407    406    413    415     1  0.0000000  1.2552000  3
    407    419    431    432     1  0.0000000  0.6508444  3
    407    419    431    433     1  0.0000000  0.6508444  3
    408    407    406    410     1  0.0000000  1.2552000  3
    408    407    406    413     1  0.0000000  1.2552000  3
    408    407    419    431     1  0.0000000  0.6508444  3
    408    407    419    420     1  0.0000000  0.6508444  3
    408    407    419    421     1  0.0000000  0.6508444  3
    409    407    406    410     1  0.0000000  1.2552000  3
    409    407    406    413     1  0.0000000  1.2552000  3
    409    407    419    431     1  0.0000000  0.6508444  3
    409    407    419    420     1  0.0000000  0.6508444  3
    409    407    419    421     1  0.0000000  0.6508444  3
    410    406    413    414     1  0.0000000  1.2552000  3
    410    406    413    415     1  0.0000000  1.2552000  3
    410    422    428    429     1  0.0000000  0.6508444  3
    410    422    428    430     1  0.0000000  0.6508444  3
    411    410    406    413     1  0.0000000  1.2552000  3
    411    410    422    428     1  0.0000000  0.6508444  3
    411    410    422    423     1  0.0000000  0.6508444  3
    411    410    422    424     1  0.0000000  0.6508444  3
    412    410    406    413     1  0.0000000  1.2552000  3
    412    410    422    428     1  0.0000000  0.6508444  3
    412    410    422    423     1  0.0000000  0.6508444  3
    412    410    422    424     1  0.0000000  0.6508444  3
    413    416    425    426     1  0.0000000  0.6508444  3
    413    416    425    427     1  0.0000000  0.6508444  3
    414    413    416    425     1  0.0000000  0.6508444  3
    414    413    416    417     1  0.0000000  0.6508444  3
    414    413    416    418     1  0.0000000  0.6508444  3
    415    413    416    425     1  0.0000000  0.6508444  3
    415    413    416    417     1  0.0000000  0.6508444  3
    415    413    416    418     1  0.0000000  0.6508444  3
    417    416    425    434     1  0.0000000  1.0460000  1
    417    416    425    434     1  0.0000000  0.0000000  3
    417    416    425    426     1  0.0000000  0.6508444  3
    417    416    425    427     1  0.0000000  0.6508444  3
    418    416    425    434     1  0.0000000  1.0460000  1
    418    416    425    434     1  0.0000000  0.0000000  3
    418    416    425    426     1  0.0000000  0.6508444  3
    418    416    425    427     1  0.0000000  0.6508444  3
    420    419    431    947     1  0.0000000  1.0460000  1
    420    419    431    947     1  0.0000000  0.0000000  3
    420    419    431    432     1  0.0000000  0.6508444  3
    420    419    431    433     1  0.0000000  0.6508444  3
    421    419    431    947     1  0.0000000  1.0460000  1
    421    419    431    947     1  0.0000000  0.0000000  3
    421    419    431    432     1  0.0000000  0.6508444  3
    421    419    431    433     1  0.0000000  0.6508444  3
    423    422    428    916     1  0.0000000  1.0460000  1
    423    422    428    916     1  0.0000000  0.0000000  3
    423    422    428    429     1  0.0000000  0.6508444  3
    423    422    428    430     1  0.0000000  0.6508444  3
    424    422    428    916     1  0.0000000  1.0460000  1
    424    422    428    916     1  0.0000000  0.0000000  3
    424    422    428    429     1  0.0000000  0.6508444  3
    424    422    428    430     1  0.0000000  0.6508444  3
    428    916    886    887     1  0.0000000  1.6038667  3
    428    916    886    888     1  0.0000000  1.6038667  3
    429    428    916    886     1  0.0000000  1.6038667  3
    430    428    916    886     1  0.0000000  1.6038667  3
    431    947    917    918     1  0.0000000  1.6038667  3
    431    947    917    919     1  0.0000000  1.6038667  3
    432    431    947    917     1  0.0000000  1.6038667  3
    433    431    947    917     1  0.0000000  1.6038667  3
    435    436    448    449     1  0.0000000  0.6508444  3
    435    436    448    450     1  0.0000000  0.6508444  3
    435    439    451    452     1  0.0000000  0.6508444  3
    435    439    451    453     1  0.0000000  0.6508444  3
    435    442    445    446     1  0.0000000  0.6508444  3
    435    442    445    447     1  0.0000000  0.6508444  3
    436    435    439    440     1  0.0000000  1.2552000  3
    436    435    439    441     1  0.0000000  1.2552000  3
    436    435    442    443     1  0.0000000  1.2552000  3
    436    435    442    444     1  0.0000000  1.2552000  3
    436    448    460    461     1  0.0000000  0.6508444  3
    436    448    460    462     1  0.0000000  0.6508444  3
    437    436    435    439     1  0.0000000  1.2552000  3
    437    436    435    442     1  0.0000000  1.2552000  3
    437    436    448    460     1  0.0000000  0.6508444  3
    437    436    448    449     1  0.0000000  0.6508444  3
    437    436    448    450     1  0.0000000  0.6508444  3
    438    436    435    439     1  0.0000000  1.2552000  3
    438    436    435    442     1  0.0000000  1.2552000  3
    438    436    448    460     1  0.0000000  0.6508444  3
    438    436    448    449     1  0.0000000  0.6508444  3
    438    436    448    450     1  0.0000000  0.6508444  3
    439    435    442    443     1  0.0000000  1.2552000  3
    439    435    442    444     1  0.0000000  1.2552000  3
    439    451    457    458     1  0.0000000  0.6508444  3
    439    451    457    459     1  0.0000000  0.6508444  3
    440    439    435    442     1  0.0000000  1.2552000  3
    440    439    451    457     1  0.0000000  0.6508444  3
    440    439    451    452     1  0.0000000  0.6508444  3
    440    439    451    453     1  0.0000000  0.6508444  3
    441    439    435    442     1  0.0000000  1.2552000  3
    441    439    451    457     1  0.0000000  0.6508444  3
    441    439    451    452     1  0.0000000  0.6508444  3
    441    439    451    453     1  0.0000000  0.6508444  3
    442    445    454    455     1  0.0000000  0.6508444  3
    442    445    454    456     1  0.0000000  0.6508444  3
    443    442    445    454     1  0.0000000  0.6508444  3
    443    442    445    446     1  0.0000000  0.6508444  3
    443    442    445    447     1  0.0000000  0.6508444  3
    444    442    445    454     1  0.0000000  0.6508444  3
    444    442    445    446     1  0.0000000  0.6508444  3
    444    442    445    447     1  0.0000000  0.6508444  3
    446    445    454    463     1  0.0000000  1.0460000  1
    446    445    454    463     1  0.0000000  0.0000000  3
    446    445    454    455     1  0.0000000  0.6508444  3
    446    445    454    456     1  0.0000000  0.6508444  3
    447    445    454    463     1  0.0000000  1.0460000  1
    447    445    454    463     1  0.0000000  0.0000000  3
    447    445    454    455     1  0.0000000  0.6508444  3
    447    445    454    456     1  0.0000000  0.6508444  3
    449    448    460   1009     1  0.0000000  1.0460000  1
    449    448    460   1009     1  0.0000000  0.0000000  3
    449    448    460    461     1  0.0000000  0.6508444  3
    449    448    460    462     1  0.0000000  0.6508444  3
    450    448    460   1009     1  0.0000000  1.0460000  1
    450    448    460   1009     1  0.0000000  0.0000000  3
    450    448    460    461     1  0.0000000  0.6508444  3
    450    448    460    462     1  0.0000000  0.6508444  3
    452    451    457    978     1  0.0000000  1.0460000  1
    452    451    457    978     1  0.0000000  0.0000000  3
    452    451    457    458     1  0.0000000  0.6508444  3
    452    451    457    459     1  0.0000000  0.6508444  3
    453    451    457    978     1  0.0000000  1.0460000  1
    453    451    457    978     1  0.0000000  0.0000000  3
    453    451    457    458     1  0.0000000  0.6508444  3
    453    451    457    459     1  0.0000000  0.6508444  3
    457    978    948    949     1  0.0000000  1.6038667  3
    457    978    948    950     1  0.0000000  1.6038667  3
    458    457    978    948     1  0.0000000  1.6038667  3
    459    457    978    948     1  0.0000000  1.6038667  3
    460   1009    979    980     1  0.0000000  1.6038667  3
    460   1009    979    981     1  0.0000000  1.6038667  3
    461    460   1009    979     1  0.0000000  1.6038667  3
    462    460   1009    979     1  0.0000000  1.6038667  3
    464    465    477    478     1  0.0000000  0.6508444  3
    464    465    477    479     1  0.0000000  0.6508444  3
    464    468    480    481     1  0.0000000  0.6508444  3
    464    468    480    482     1  0.0000000  0.6508444  3
    464    471    474    475     1  0.0000000  0.6508444  3
    464    471    474    476     1  0.0000000  0.6508444  3
    465    464    468    469     1  0.0000000  1.2552000  3
    465    464    468    470     1  0.0000000  1.2552000  3
    465    464    471    472     1  0.0000000  1.2552000  3
    465    464    471    473     1  0.0000000  1.2552000  3
    465    477    489    490     1  0.0000000  0.6508444  3
    465    477    489    491     1  0.0000000  0.6508444  3
    466    465    464    468     1  0.0000000  1.2552000  3
    466    465    464    471     1  0.0000000  1.2552000  3
    466    465    477    489     1  0.0000000  0.6508444  3
    466    465    477    478     1  0.0000000  0.6508444  3
    466    465    477    479     1  0.0000000  0.6508444  3
    467    465    464    468     1  0.0000000  1.2552000  3
    467    465    464    471     1  0.0000000  1.2552000  3
    467    465    477    489     1  0.0000000  0.6508444  3
    467    465    477    478     1  0.0000000  0.6508444  3
    467    465    477    479     1  0.0000000  0.6508444  3
    468    464    471    472     1  0.0000000  1.2552000  3
    468    464    471    473     1  0.0000000  1.2552000  3
    468    480    486    487     1  0.0000000  0.6508444  3
    468    480    486    488     1  0.0000000  0.6508444  3
    469    468    464    471     1  0.0000000  1.2552000  3
    469    468    480    486     1  0.0000000  0.6508444  3
    469    468    480    481     1  0.0000000  0.6508444  3
    469    468    480    482     1  0.0000000  0.6508444  3
    470    468    464    471     1  0.0000000  1.2552000  3
    470    468    480    486     1  0.0000000  0.6508444  3
    470    468    480    481     1  0.0000000  0.6508444  3
    470    468    480    482     1  0.0000000  0.6508444  3
    471    474    483    484     1  0.0000000  0.6508444  3
    471    474    483    485     1  0.0000000  0.6508444  3
    472    471    474    483     1  0.0000000  0.6508444  3
    472    471    474    475     1  0.0000000  0.6508444  3
    472    471    474    476     1  0.0000000  0.6508444  3
    473    471    474    483     1  0.0000000  0.6508444  3
    473    471    474    475     1  0.0000000  0.6508444  3
    473    471    474    476     1  0.0000000  0.6508444  3
    475    474    483    492     1  0.0000000  1.0460000  1
    475    474    483    492     1  0.0000000  0.0000000  3
    475    474    483    484     1  0.0000000  0.6508444  3
    475    474    483    485     1  0.0000000  0.6508444  3
    476    474    483    492     1  0.0000000  1.0460000  1
    476    474    483    492     1  0.0000000  0.0000000  3
    476    474    483    484     1  0.0000000  0.6508444  3
    476    474    483    485     1  0.0000000  0.6508444  3
    478    477    489   1071     1  0.0000000  1.0460000  1
    478    477    489   1071     1  0.0000000  0.0000000  3
    478    477    489    490     1  0.0000000  0.6508444  3
    478    477    489    491     1  0.0000000  0.6508444  3
    479    477    489   1071     1  0.0000000  1.0460000  1
    479    477    489   1071     1  0.0000000  0.0000000  3
    479    477    489    490     1  0.0000000  0.6508444  3
    479    477    489    491     1  0.0000000  0.6508444  3
    481    480    486   1040     1  0.0000000  1.0460000  1
    481    480    486   1040     1  0.0000000  0.0000000  3
    481    480    486    487     1  0.0000000  0.6508444  3
    481    480    486    488     1  0.0000000  0.6508444  3
    482    480    486   1040     1  0.0000000  1.0460000  1
    482    480    486   1040     1  0.0000000  0.0000000  3
    482    480    486    487     1  0.0000000  0.6508444  3
    482    480    486    488     1  0.0000000  0.6508444  3
    486   1040   1010   1011     1  0.0000000  1.6038667  3
    486   1040   1010   1012     1  0.0000000  1.6038667  3
    487    486   1040   1010     1  0.0000000  1.6038667  3
    488    486   1040   1010     1  0.0000000  1.6038667  3
    489   1071   1041   1042     1  0.0000000  1.6038667  3
    489   1071   1041   1043     1  0.0000000  1.6038667  3
    490    489   1071   1041     1  0.0000000  1.6038667  3
    491    489   1071   1041     1  0.0000000  1.6038667  3
    493    494    506    507     1  0.0000000  0.6508444  3
    493    494    506    508     1  0.0000000  0.6508444  3
    493    497    509    510     1  0.0000000  0.6508444  3
    493    497    509    511     1  0.0000000  0.6508444  3
    493    500    503    504     1  0.0000000  0.6508444  3
    493    500    503    505     1  0.0000000  0.6508444  3
    494    493    497    498     1  0.0000000  1.2552000  3
    494    493    497    499     1  0.0000000  1.2552000  3
    494    493    500    501     1  0.0000000  1.2552000  3
    494    493    500    502     1  0.0000000  1.2552000  3
    494    506    518    519     1  0.0000000  0.6508444  3
    494    506    518    520     1  0.0000000  0.6508444  3
    495    494    493    497     1  0.0000000  1.2552000  3
    495    494    493    500     1  0.0000000  1.2552000  3
    495    494    506    518     1  0.0000000  0.6508444  3
    495    494    506    507     1  0.0000000  0.6508444  3
    495    494    506    508     1  0.0000000  0.6508444  3
    496    494    493    497     1  0.0000000  1.2552000  3
    496    494    493    500     1  0.0000000  1.2552000  3
    496    494    506    518     1  0.0000000  0.6508444  3
    496    494    506    507     1  0.0000000  0.6508444  3
    496    494    506    508     1  0.0000000  0.6508444  3
    497    493    500    501     1  0.0000000  1.2552000  3
    497    493    500    502     1  0.0000000  1.2552000  3
    497    509    515    516     1  0.0000000  0.6508444  3
    497    509    515    517     1  0.0000000  0.6508444  3
    498    497    493    500     1  0.0000000  1.2552000  3
    498    497    509    515     1  0.0000000  0.6508444  3
    498    497    509    510     1  0.0000000  0.6508444  3
    498    497    509    511     1  0.0000000  0.6508444  3
    499    497    493    500     1  0.0000000  1.2552000  3
    499    497    509    515     1  0.0000000  0.6508444  3
    499    497    509    510     1  0.0000000  0.6508444  3
    499    497    509    511     1  0.0000000  0.6508444  3
    500    503    512    513     1  0.0000000  0.6508444  3
    500    503    512    514     1  0.0000000  0.6508444  3
    501    500    503    512     1  0.0000000  0.6508444  3
    501    500    503    504     1  0.0000000  0.6508444  3
    501    500    503    505     1  0.0000000  0.6508444  3
    502    500    503    512     1  0.0000000  0.6508444  3
    502    500    503    504     1  0.0000000  0.6508444  3
    502    500    503    505     1  0.0000000  0.6508444  3
    504    503    512    521     1  0.0000000  1.0460000  1
    504    503    512    521     1  0.0000000  0.0000000  3
    504    503    512    513     1  0.0000000  0.6508444  3
    504    503    512    514     1  0.0000000  0.6508444  3
    505    503    512    521     1  0.0000000  1.0460000  1
    505    503    512    521     1  0.0000000  0.0000000  3
    505    503    512    513     1  0.0000000  0.6508444  3
    505    503    512    514     1  0.0000000  0.6508444  3
    507    506    518   1133     1  0.0000000  1.0460000  1
    507    506    518   1133     1  0.0000000  0.0000000  3
    507    506    518    519     1  0.0000000  0.6508444  3
    507    506    518    520     1  0.0000000  0.6508444  3
    508    506    518   1133     1  0.0000000  1.0460000  1
    508    506    518   1133     1  0.0000000  0.0000000  3
    508    506    518    519     1  0.0000000  0.6508444  3
    508    506    518    520     1  0.0000000  0.6508444  3
    510    509    515   1102     1  0.0000000  1.0460000  1
    510    509    515   1102     1  0.0000000  0.0000000  3
    510    509    515    516     1  0.0000000  0.6508444  3
    510    509    515    517     1  0.0000000  0.6508444  3
    511    509    515   1102     1  0.0000000  1.0460000  1
    511    509    515   1102     1  0.0000000  0.0000000  3
    511    509    515    516     1  0.0000000  0.6508444  3
    511    509    515    517     1  0.0000000  0.6508444  3
    515   1102   1072   1073     1  0.0000000  1.6038667  3
    515   1102   1072   1074     1  0.0000000  1.6038667  3
    516    515   1102   1072     1  0.0000000  1.6038667  3
    517    515   1102   1072     1  0.0000000  1.6038667  3
    518   1133   1103   1104     1  0.0000000  1.6038667  3
    518   1133   1103   1105     1  0.0000000  1.6038667  3
    519    518   1133   1103     1  0.0000000  1.6038667  3
    520    518   1133   1103     1  0.0000000  1.6038667  3
    522    523    535    536     1  0.0000000  0.6508444  3
    522    523    535    537     1  0.0000000  0.6508444  3
    522    526    538    539     1  0.0000000  0.6508444  3
    522    526    538    540     1  0.0000000  0.6508444  3
    522    529    532    533     1  0.0000000  0.6508444  3
    522    529    532    534     1  0.0000000  0.6508444  3
    523    522    526    527     1  0.0000000  1.2552000  3
    523    522    526    528     1  0.0000000  1.2552000  3
    523    522    529    530     1  0.0000000  1.2552000  3
    523    522    529    531     1  0.0000000  1.2552000  3
    523    535    547    548     1  0.0000000  0.6508444  3
    523    535    547    549     1  0.0000000  0.6508444  3
    524    523    522    526     1  0.0000000  1.2552000  3
    524    523    522    529     1  0.0000000  1.2552000  3
    524    523    535    547     1  0.0000000  0.6508444  3
    524    523    535    536     1  0.0000000  0.6508444  3
    524    523    535    537     1  0.0000000  0.6508444  3
    525    523    522    526     1  0.0000000  1.2552000  3
    525    523    522    529     1  0.0000000  1.2552000  3
    525    523    535    547     1  0.0000000  0.6508444  3
    525    523    535    536     1  0.0000000  0.6508444  3
    525    523    535    537     1  0.0000000  0.6508444  3
    526    522    529    530     1  0.0000000  1.2552000  3
    526    522    529    531     1  0.0000000  1.2552000  3
    526    538    544    545     1  0.0000000  0.6508444  3
    526    538    544    546     1  0.0000000  0.6508444  3
    527    526    522    529     1  0.0000000  1.2552000  3
    527    526    538    544     1  0.0000000  0.6508444  3
    527    526    538    539     1  0.0000000  0.6508444  3
    527    526    538    540     1  0.0000000  0.6508444  3
    528    526    522    529     1  0.0000000  1.2552000  3
    528    526    538    544     1  0.0000000  0.6508444  3
    528    526    538    539     1  0.0000000  0.6508444  3
    528    526    538    540     1  0.0000000  0.6508444  3
    529    532    541    542     1  0.0000000  0.6508444  3
    529    532    541    543     1  0.0000000  0.6508444  3
    530    529    532    541     1  0.0000000  0.6508444  3
    530    529    532    533     1  0.0000000  0.6508444  3
    530    529    532    534     1  0.0000000  0.6508444  3
    531    529    532    541     1  0.0000000  0.6508444  3
    531    529    532    533     1  0.0000000  0.6508444  3
    531    529    532    534     1  0.0000000  0.6508444  3
    533    532    541    550     1  0.0000000  1.0460000  1
    533    532    541    550     1  0.0000000  0.0000000  3
    533    532    541    542     1  0.0000000  0.6508444  3
    533    532    541    543     1  0.0000000  0.6508444  3
    534    532    541    550     1  0.0000000  1.0460000  1
    534    532    541    550     1  0.0000000  0.0000000  3
    534    532    541    542     1  0.0000000  0.6508444  3
    534    532    541    543     1  0.0000000  0.6508444  3
    536    535    547   1195     1  0.0000000  1.0460000  1
    536    535    547   1195     1  0.0000000  0.0000000  3
    536    535    547    548     1  0.0000000  0.6508444  3
    536    535    547    549     1  0.0000000  0.6508444  3
    537    535    547   1195     1  0.0000000  1.0460000  1
    537    535    547   1195     1  0.0000000  0.0000000  3
    537    535    547    548     1  0.0000000  0.6508444  3
    537    535    547    549     1  0.0000000  0.6508444  3
    539    538    544   1164     1  0.0000000  1.0460000  1
    539    538    544   1164     1  0.0000000  0.0000000  3
    539    538    544    545     1  0.0000000  0.6508444  3
    539    538    544    546     1  0.0000000  0.6508444  3
    540    538    544   1164     1  0.0000000  1.0460000  1
    540    538    544   1164     1  0.0000000  0.0000000  3
    540    538    544    545     1  0.0000000  0.6508444  3
    540    538    544    546     1  0.0000000  0.6508444  3
    544   1164   1134   1135     1  0.0000000  1.6038667  3
    544   1164   1134   1136     1  0.0000000  1.6038667  3
    545    544   1164   1134     1  0.0000000  1.6038667  3
    546    544   1164   1134     1  0.0000000  1.6038667  3
    547   1195   1165   1166     1  0.0000000  1.6038667  3
    547   1195   1165   1167     1  0.0000000  1.6038667  3
    548    547   1195   1165     1  0.0000000  1.6038667  3
    549    547   1195   1165     1  0.0000000  1.6038667  3
    551    552    564    565     1  0.0000000  0.6508444  3
    551    552    564    566     1  0.0000000  0.6508444  3
    551    555    567    568     1  0.0000000  0.6508444  3
    551    555    567    569     1  0.0000000  0.6508444  3
    551    558    561    562     1  0.0000000  0.6508444  3
    551    558    561    563     1  0.0000000  0.6508444  3
    552    551    555    556     1  0.0000000  1.2552000  3
    552    551    555    557     1  0.0000000  1.2552000  3
    552    551    558    559     1  0.0000000  1.2552000  3
    552    551    558    560     1  0.0000000  1.2552000  3
    552    564    576    577     1  0.0000000  0.6508444  3
    552    564    576    578     1  0.0000000  0.6508444  3
    553    552    551    555     1  0.0000000  1.2552000  3
    553    552    551    558     1  0.0000000  1.2552000  3
    553    552    564    576     1  0.0000000  0.6508444  3
    553    552    564    565     1  0.0000000  0.6508444  3
    553    552    564    566     1  0.0000000  0.6508444  3
    554    552    551    555     1  0.0000000  1.2552000  3
    554    552    551    558     1  0.0000000  1.2552000  3
    554    552    564    576     1  0.0000000  0.6508444  3
    554    552    564    565     1  0.0000000  0.6508444  3
    554    552    564    566     1  0.0000000  0.6508444  3
    555    551    558    559     1  0.0000000  1.2552000  3
    555    551    558    560     1  0.0000000  1.2552000  3
    555    567    573    574     1  0.0000000  0.6508444  3
    555    567    573    575     1  0.0000000  0.6508444  3
    556    555    551    558     1  0.0000000  1.2552000  3
    556    555    567    573     1  0.0000000  0.6508444  3
    556    555    567    568     1  0.0000000  0.6508444  3
    556    555    567    569     1  0.0000000  0.6508444  3
    557    555    551    558     1  0.0000000  1.2552000  3
    557    555    567    573     1  0.0000000  0.6508444  3
    557    555    567    568     1  0.0000000  0.6508444  3
    557    555    567    569     1  0.0000000  0.6508444  3
    558    561    570    571     1  0.0000000  0.6508444  3
    558    561    570    572     1  0.0000000  0.6508444  3
    559    558    561    570     1  0.0000000  0.6508444  3
    559    558    561    562     1  0.0000000  0.6508444  3
    559    558    561    563     1  0.0000000  0.6508444  3
    560    558    561    570     1  0.0000000  0.6508444  3
    560    558    561    562     1  0.0000000  0.6508444  3
    560    558    561    563     1  0.0000000  0.6508444  3
    562    561    570    579     1  0.0000000  1.0460000  1
    562    561    570    579     1  0.0000000  0.0000000  3
    562    561    570    571     1  0.0000000  0.6508444  3
    562    561    570    572     1  0.0000000  0.6508444  3
    563    561    570    579     1  0.0000000  1.0460000  1
    563    561    570    579     1  0.0000000  0.0000000  3
    563    561    570    571     1  0.0000000  0.6508444  3
    563    561    570    572     1  0.0000000  0.6508444  3
    565    564    576   1257     1  0.0000000  1.0460000  1
    565    564    576   1257     1  0.0000000  0.0000000  3
    565    564    576    577     1  0.0000000  0.6508444  3
    565    564    576    578     1  0.0000000  0.6508444  3
    566    564    576   1257     1  0.0000000  1.0460000  1
    566    564    576   1257     1  0.0000000  0.0000000  3
    566    564    576    577     1  0.0000000  0.6508444  3
    566    564    576    578     1  0.0000000  0.6508444  3
    568    567    573   1226     1  0.0000000  1.0460000  1
    568    567    573   1226     1  0.0000000  0.0000000  3
    568    567    573    574     1  0.0000000  0.6508444  3
    568    567    573    575     1  0.0000000  0.6508444  3
    569    567    573   1226     1  0.0000000  1.0460000  1
    569    567    573   1226     1  0.0000000  0.0000000  3
    569    567    573    574     1  0.0000000  0.6508444  3
    569    567    573    575     1  0.0000000  0.6508444  3
    573   1226   1196   1197     1  0.0000000  1.6038667  3
    573   1226   1196   1198     1  0.0000000  1.6038667  3
    574    573   1226   1196     1  0.0000000  1.6038667  3
    575    573   1226   1196     1  0.0000000  1.6038667  3
    576   1257   1227   1228     1  0.0000000  1.6038667  3
    576   1257   1227   1229     1  0.0000000  1.6038667  3
    577    576   1257   1227     1  0.0000000  1.6038667  3
    578    576   1257   1227     1  0.0000000  1.6038667  3
    580    581    593    594     1  0.0000000  0.6508444  3
    580    581    593    595     1  0.0000000  0.6508444  3
    580    584    596    597     1  0.0000000  0.6508444  3
    580    584    596    598     1  0.0000000  0.6508444  3
    580    587    590    591     1  0.0000000  0.6508444  3
    580    587    590    592     1  0.0000000  0.6508444  3
    581    580    584    585     1  0.0000000  1.2552000  3
    581    580    584    586     1  0.0000000  1.2552000  3
    581    580    587    588     1  0.0000000  1.2552000  3
    581    580    587    589     1  0.0000000  1.2552000  3
    581    593    605    606     1  0.0000000  0.6508444  3
    581    593    605    607     1  0.0000000  0.6508444  3
    582    581    580    584     1  0.0000000  1.2552000  3
    582    581    580    587     1  0.0000000  1.2552000  3
    582    581    593    605     1  0.0000000  0.6508444  3
    582    581    593    594     1  0.0000000  0.6508444  3
    582    581    593    595     1  0.0000000  0.6508444  3
    583    581    580    584     1  0.0000000  1.2552000  3
    583    581    580    587     1  0.0000000  1.2552000  3
    583    581    593    605     1  0.0000000  0.6508444  3
    583    581    593    594     1  0.0000000  0.6508444  3
    583    581    593    595     1  0.0000000  0.6508444  3
    584    580    587    588     1  0.0000000  1.2552000  3
    584    580    587    589     1  0.0000000  1.2552000  3
    584    596    602    603     1  0.0000000  0.6508444  3
    584    596    602    604     1  0.0000000  0.6508444  3
    585    584    580    587     1  0.0000000  1.2552000  3
    585    584    596    602     1  0.0000000  0.6508444  3
    585    584    596    597     1  0.0000000  0.6508444  3
    585    584    596    598     1  0.0000000  0.6508444  3
    586    584    580    587     1  0.0000000  1.2552000  3
    586    584    596    602     1  0.0000000  0.6508444  3
    586    584    596    597     1  0.0000000  0.6508444  3
    586    584    596    598     1  0.0000000  0.6508444  3
    587    590    599    600     1  0.0000000  0.6508444  3
    587    590    599    601     1  0.0000000  0.6508444  3
    588    587    590    599     1  0.0000000  0.6508444  3
    588    587    590    591     1  0.0000000  0.6508444  3
    588    587    590    592     1  0.0000000  0.6508444  3
    589    587    590    599     1  0.0000000  0.6508444  3
    589    587    590    591     1  0.0000000  0.6508444  3
    589    587    590    592     1  0.0000000  0.6508444  3
    591    590    599    608     1  0.0000000  1.0460000  1
    591    590    599    608     1  0.0000000  0.0000000  3
    591    590    599    600     1  0.0000000  0.6508444  3
    591    590    599    601     1  0.0000000  0.6508444  3
    592    590    599    608     1  0.0000000  1.0460000  1
    592    590    599    608     1  0.0000000  0.0000000  3
    592    590    599    600     1  0.0000000  0.6508444  3
    592    590    599    601     1  0.0000000  0.6508444  3
    594    593    605   1319     1  0.0000000  1.0460000  1
    594    593    605   1319     1  0.0000000  0.0000000  3
    594    593    605    606     1  0.0000000  0.6508444  3
    594    593    605    607     1  0.0000000  0.6508444  3
    595    593    605   1319     1  0.0000000  1.0460000  1
    595    593    605   1319     1  0.0000000  0.0000000  3
    595    593    605    606     1  0.0000000  0.6508444  3
    595    593    605    607     1  0.0000000  0.6508444  3
    597    596    602   1288     1  0.0000000  1.0460000  1
    597    596    602   1288     1  0.0000000  0.0000000  3
    597    596    602    603     1  0.0000000  0.6508444  3
    597    596    602    604     1  0.0000000  0.6508444  3
    598    596    602   1288     1  0.0000000  1.0460000  1
    598    596    602   1288     1  0.0000000  0.0000000  3
    598    596    602    603     1  0.0000000  0.6508444  3
    598    596    602    604     1  0.0000000  0.6508444  3
    602   1288   1258   1259     1  0.0000000  1.6038667  3
    602   1288   1258   1260     1  0.0000000  1.6038667  3
    603    602   1288   1258     1  0.0000000  1.6038667  3
    604    602   1288   1258     1  0.0000000  1.6038667  3
    605   1319   1289   1290     1  0.0000000  1.6038667  3
    605   1319   1289   1291     1  0.0000000  1.6038667  3
    606    605   1319   1289     1  0.0000000  1.6038667  3
    607    605   1319   1289     1  0.0000000  1.6038667  3
    609    610    622    623     1  0.0000000  0.6508444  3
    609    610    622    624     1  0.0000000  0.6508444  3
    609    613    625    626     1  0.0000000  0.6508444  3
    609    613    625    627     1  0.0000000  0.6508444  3
    609    616    619    620     1  0.0000000  0.6508444  3
    609    616    619    621     1  0.0000000  0.6508444  3
    610    609    613    614     1  0.0000000  1.2552000  3
    610    609    613    615     1  0.0000000  1.2552000  3
    610    609    616    617     1  0.0000000  1.2552000  3
    610    609    616    618     1  0.0000000  1.2552000  3
    610    622    634    635     1  0.0000000  0.6508444  3
    610    622    634    636     1  0.0000000  0.6508444  3
    611    610    609    613     1  0.0000000  1.2552000  3
    611    610    609    616     1  0.0000000  1.2552000  3
    611    610    622    634     1  0.0000000  0.6508444  3
    611    610    622    623     1  0.0000000  0.6508444  3
    611    610    622    624     1  0.0000000  0.6508444  3
    612    610    609    613     1  0.0000000  1.2552000  3
    612    610    609    616     1  0.0000000  1.2552000  3
    612    610    622    634     1  0.0000000  0.6508444  3
    612    610    622    623     1  0.0000000  0.6508444  3
    612    610    622    624     1  0.0000000  0.6508444  3
    613    609    616    617     1  0.0000000  1.2552000  3
    613    609    616    618     1  0.0000000  1.2552000  3
    613    625    631    632     1  0.0000000  0.6508444  3
    613    625    631    633     1  0.0000000  0.6508444  3
    614    613    609    616     1  0.0000000  1.2552000  3
    614    613    625    631     1  0.0000000  0.6508444  3
    614    613    625    626     1  0.0000000  0.6508444  3
    614    613    625    627     1  0.0000000  0.6508444  3
    615    613    609    616     1  0.0000000  1.2552000  3
    615    613    625    631     1  0.0000000  0.6508444  3
    615    613    625    626     1  0.0000000  0.6508444  3
    615    613    625    627     1  0.0000000  0.6508444  3
    616    619    628    629     1  0.0000000  0.6508444  3
    616    619    628    630     1  0.0000000  0.6508444  3
    617    616    619    628     1  0.0000000  0.6508444  3
    617    616    619    620     1  0.0000000  0.6508444  3
    617    616    619    621     1  0.0000000  0.6508444  3
    618    616    619    628     1  0.0000000  0.6508444  3
    618    616    619    620     1  0.0000000  0.6508444  3
    618    616    619    621     1  0.0000000  0.6508444  3
    620    619    628    637     1  0.0000000  1.0460000  1
    620    619    628    637     1  0.0000000  0.0000000  3
    620    619    628    629     1  0.0000000  0.6508444  3
    620    619    628    630     1  0.0000000  0.6508444  3
    621    619    628    637     1  0.0000000  1.0460000  1
    621    619    628    637     1  0.0000000  0.0000000  3
    621    619    628    629     1  0.0000000  0.6508444  3
    621    619    628    630     1  0.0000000  0.6508444  3
    623    622    634   1381     1  0.0000000  1.0460000  1
    623    622    634   1381     1  0.0000000  0.0000000  3
    623    622    634    635     1  0.0000000  0.6508444  3
    623    622    634    636     1  0.0000000  0.6508444  3
    624    622    634   1381     1  0.0000000  1.0460000  1
    624    622    634   1381     1  0.0000000  0.0000000  3
    624    622    634    635     1  0.0000000  0.6508444  3
    624    622    634    636     1  0.0000000  0.6508444  3
    626    625    631   1350     1  0.0000000  1.0460000  1
    626    625    631   1350     1  0.0000000  0.0000000  3
    626    625    631    632     1  0.0000000  0.6508444  3
    626    625    631    633     1  0.0000000  0.6508444  3
    627    625    631   1350     1  0.0000000  1.0460000  1
    627    625    631   1350     1  0.0000000  0.0000000  3
    627    625    631    632     1  0.0000000  0.6508444  3
    627    625    631    633     1  0.0000000  0.6508444  3
    631   1350   1320   1321     1  0.0000000  1.6038667  3
    631   1350   1320   1322     1  0.0000000  1.6038667  3
    632    631   1350   1320     1  0.0000000  1.6038667  3
    633    631   1350   1320     1  0.0000000  1.6038667  3
    634   1381   1351   1352     1  0.0000000  1.6038667  3
    634   1381   1351   1353     1  0.0000000  1.6038667  3
    635    634   1381   1351     1  0.0000000  1.6038667  3
    636    634   1381   1351     1  0.0000000  1.6038667  3
    638    641    644    645     1  0.0000000  0.6508444  3
    638    641    644    646     1  0.0000000  0.6508444  3
    639    638    641    644     1  0.0000000  0.6508444  3
    639    638    641    642     1  0.0000000  0.6508444  3
    639    638    641    643     1  0.0000000  0.6508444  3
    640    638    641    644     1  0.0000000  0.6508444  3
    640    638    641    642     1  0.0000000  0.6508444  3
    640    638    641    643     1  0.0000000  0.6508444  3
    642    641    638    668     1  0.0000000  1.0460000  1
    642    641    638    668     1  0.0000000  0.0000000  3
    642    641    644    647     1  0.0000000  0.6508444  3
    642    641    644    645     1  0.0000000  0.6508444  3
    642    641    644    646     1  0.0000000  0.6508444  3
    643    641    638    668     1  0.0000000  1.0460000  1
    643    641    638    668     1  0.0000000  0.0000000  3
    643    641    644    647     1  0.0000000  0.6508444  3
    643    641    644    645     1  0.0000000  0.6508444  3
    643    641    644    646     1  0.0000000  0.6508444  3
    644    647    648    649     1  0.0000000  1.2552000  3
    644    647    648    650     1  0.0000000  1.2552000  3
    644    647    658    659     1  0.0000000  1.2552000  3
    644    647    658    660     1  0.0000000  1.2552000  3
    645    644    647    648     1  0.0000000  1.2552000  3
    645    644    647    658     1  0.0000000  1.2552000  3
    646    644    647    648     1  0.0000000  1.2552000  3
    646    644    647    658     1  0.0000000  1.2552000  3
    647    648    651    652     1  0.0000000  0.6508444  3
    647    648    651    653     1  0.0000000  0.6508444  3
    647    658    661    662     1  0.0000000  0.6508444  3
    647    658    661    663     1  0.0000000  0.6508444  3
    648    647    658    659     1  0.0000000  1.2552000  3
    648    647    658    660     1  0.0000000  1.2552000  3
    649    648    647    658     1  0.0000000  1.2552000  3
    649    648    651    654     1  0.0000000  0.6508444  3
    649    648    651    652     1  0.0000000  0.6508444  3
    649    648    651    653     1  0.0000000  0.6508444  3
    650    648    647    658     1  0.0000000  1.2552000  3
    650    648    651    654     1  0.0000000  0.6508444  3
    650    648    651    652     1  0.0000000  0.6508444  3
    650    648    651    653     1  0.0000000  0.6508444  3
    651    654    656    657     1  180.0000771  9.6232000  2
    652    651    654    655     1  0.0000000  3.3472000  1
    652    651    654    655     1  0.0000000  0.0000000  2
    652    651    654    655     1  180.0000771  0.3347200  3
    652    651    654    656     1  180.0000771  0.0000000  2
    653    651    654    655     1  0.0000000  3.3472000  1
    653    651    654    655     1  0.0000000  0.0000000  2
    653    651    654    655     1  180.0000771  0.3347200  3
    653    651    654    656     1  180.0000771  0.0000000  2
    655    654    656    657     1  0.0000000  7.9496000  1
    655    654    656    657     1  180.0000771  9.6232000  2
    659    658    661    664     1  0.0000000  0.6508444  3
    659    658    661    662     1  0.0000000  0.6508444  3
    659    658    661    663     1  0.0000000  0.6508444  3
    660    658    661    664     1  0.0000000  0.6508444  3
    660    658    661    662     1  0.0000000  0.6508444  3
    660    658    661    663     1  0.0000000  0.6508444  3
    661    664    666    667     1  180.0000771  9.6232000  2
    662    661    664    665     1  0.0000000  3.3472000  1
    662    661    664    665     1  0.0000000  0.0000000  2
    662    661    664    665     1  180.0000771  0.3347200  3
    662    661    664    666     1  180.0000771  0.0000000  2
    663    661    664    665     1  0.0000000  3.3472000  1
    663    661    664    665     1  0.0000000  0.0000000  2
    663    661    664    665     1  180.0000771  0.3347200  3
    663    661    664    666     1  180.0000771  0.0000000  2
    665    664    666    667     1  0.0000000  7.9496000  1
    665    664    666    667     1  180.0000771  9.6232000  2
    669    672    675    676     1  0.0000000  0.6508444  3
    669    672    675    677     1  0.0000000  0.6508444  3
    670    669    672    675     1  0.0000000  0.6508444  3
    670    669    672    673     1  0.0000000  0.6508444  3
    670    669    672    674     1  0.0000000  0.6508444  3
    671    669    672    675     1  0.0000000  0.6508444  3
    671    669    672    673     1  0.0000000  0.6508444  3
    671    669    672    674     1  0.0000000  0.6508444  3
    673    672    675    678     1  0.0000000  0.6508444  3
    673    672    675    676     1  0.0000000  0.6508444  3
    673    672    675    677     1  0.0000000  0.6508444  3
    673    672    669    699     1  0.0000000  1.0460000  1
    673    672    669    699     1  0.0000000  0.0000000  3
    674    672    675    678     1  0.0000000  0.6508444  3
    674    672    675    676     1  0.0000000  0.6508444  3
    674    672    675    677     1  0.0000000  0.6508444  3
    674    672    669    699     1  0.0000000  1.0460000  1
    674    672    669    699     1  0.0000000  0.0000000  3
    675    678    679    680     1  0.0000000  1.2552000  3
    675    678    679    681     1  0.0000000  1.2552000  3
    675    678    689    690     1  0.0000000  1.2552000  3
    675    678    689    691     1  0.0000000  1.2552000  3
    676    675    678    679     1  0.0000000  1.2552000  3
    676    675    678    689     1  0.0000000  1.2552000  3
    677    675    678    679     1  0.0000000  1.2552000  3
    677    675    678    689     1  0.0000000  1.2552000  3
    678    679    682    683     1  0.0000000  0.6508444  3
    678    679    682    684     1  0.0000000  0.6508444  3
    678    689    692    693     1  0.0000000  0.6508444  3
    678    689    692    694     1  0.0000000  0.6508444  3
    679    678    689    690     1  0.0000000  1.2552000  3
    679    678    689    691     1  0.0000000  1.2552000  3
    680    679    682    685     1  0.0000000  0.6508444  3
    680    679    682    683     1  0.0000000  0.6508444  3
    680    679    682    684     1  0.0000000  0.6508444  3
    680    679    678    689     1  0.0000000  1.2552000  3
    681    679    682    685     1  0.0000000  0.6508444  3
    681    679    682    683     1  0.0000000  0.6508444  3
    681    679    682    684     1  0.0000000  0.6508444  3
    681    679    678    689     1  0.0000000  1.2552000  3
    682    685    687    688     1  180.0000771  9.6232000  2
    683    682    685    686     1  0.0000000  3.3472000  1
    683    682    685    686     1  0.0000000  0.0000000  2
    683    682    685    686     1  180.0000771  0.3347200  3
    683    682    685    687     1  180.0000771  0.0000000  2
    684    682    685    686     1  0.0000000  3.3472000  1
    684    682    685    686     1  0.0000000  0.0000000  2
    684    682    685    686     1  180.0000771  0.3347200  3
    684    682    685    687     1  180.0000771  0.0000000  2
    686    685    687    688     1  0.0000000  7.9496000  1
    686    685    687    688     1  180.0000771  9.6232000  2
    690    689    692    695     1  0.0000000  0.6508444  3
    690    689    692    693     1  0.0000000  0.6508444  3
    690    689    692    694     1  0.0000000  0.6508444  3
    691    689    692    695     1  0.0000000  0.6508444  3
    691    689    692    693     1  0.0000000  0.6508444  3
    691    689    692    694     1  0.0000000  0.6508444  3
    692    695    697    698     1  180.0000771  9.6232000  2
    693    692    695    696     1  0.0000000  3.3472000  1
    693    692    695    696     1  0.0000000  0.0000000  2
    693    692    695    696     1  180.0000771  0.3347200  3
    693    692    695    697     1  180.0000771  0.0000000  2
    694    692    695    696     1  0.0000000  3.3472000  1
    694    692    695    696     1  0.0000000  0.0000000  2
    694    692    695    696     1  180.0000771  0.3347200  3
    694    692    695    697     1  180.0000771  0.0000000  2
    696    695    697    698     1  0.0000000  7.9496000  1
    696    695    697    698     1  180.0000771  9.6232000  2
    700    703    706    707     1  0.0000000  0.6508444  3
    700    703    706    708     1  0.0000000  0.6508444  3
    701    700    703    706     1  0.0000000  0.6508444  3
    701    700    703    704     1  0.0000000  0.6508444  3
    701    700    703    705     1  0.0000000  0.6508444  3
    702    700    703    706     1  0.0000000  0.6508444  3
    702    700    703    704     1  0.0000000  0.6508444  3
    702    700    703    705     1  0.0000000  0.6508444  3
    704    703    700    730     1  0.0000000  1.0460000  1
    704    703    700    730     1  0.0000000  0.0000000  3
    704    703    706    709     1  0.0000000  0.6508444  3
    704    703    706    707     1  0.0000000  0.6508444  3
    704    703    706    708     1  0.0000000  0.6508444  3
    705    703    700    730     1  0.0000000  1.0460000  1
    705    703    700    730     1  0.0000000  0.0000000  3
    705    703    706    709     1  0.0000000  0.6508444  3
    705    703    706    707     1  0.0000000  0.6508444  3
    705    703    706    708     1  0.0000000  0.6508444  3
    706    709    710    711     1  0.0000000  1.2552000  3
    706    709    710    712     1  0.0000000  1.2552000  3
    706    709    720    721     1  0.0000000  1.2552000  3
    706    709    720    722     1  0.0000000  1.2552000  3
    707    706    709    710     1  0.0000000  1.2552000  3
    707    706    709    720     1  0.0000000  1.2552000  3
    708    706    709    710     1  0.0000000  1.2552000  3
    708    706    709    720     1  0.0000000  1.2552000  3
    709    710    713    714     1  0.0000000  0.6508444  3
    709    710    713    715     1  0.0000000  0.6508444  3
    709    720    723    724     1  0.0000000  0.6508444  3
    709    720    723    725     1  0.0000000  0.6508444  3
    710    709    720    721     1  0.0000000  1.2552000  3
    710    709    720    722     1  0.0000000  1.2552000  3
    711    710    709    720     1  0.0000000  1.2552000  3
    711    710    713    716     1  0.0000000  0.6508444  3
    711    710    713    714     1  0.0000000  0.6508444  3
    711    710    713    715     1  0.0000000  0.6508444  3
    712    710    709    720     1  0.0000000  1.2552000  3
    712    710    713    716     1  0.0000000  0.6508444  3
    712    710    713    714     1  0.0000000  0.6508444  3
    712    710    713    715     1  0.0000000  0.6508444  3
    713    716    718    719     1  180.0000771  9.6232000  2
    714    713    716    717     1  0.0000000  3.3472000  1
    714    713    716    717     1  0.0000000  0.0000000  2
    714    713    716    717     1  180.0000771  0.3347200  3
    714    713    716    718     1  180.0000771  0.0000000  2
    715    713    716    717     1  0.0000000  3.3472000  1
    715    713    716    717     1  0.0000000  0.0000000  2
    715    713    716    717     1  180.0000771  0.3347200  3
    715    713    716    718     1  180.0000771  0.0000000  2
    717    716    718    719     1  0.0000000  7.9496000  1
    717    716    718    719     1  180.0000771  9.6232000  2
    721    720    723    726     1  0.0000000  0.6508444  3
    721    720    723    724     1  0.0000000  0.6508444  3
    721    720    723    725     1  0.0000000  0.6508444  3
    722    720    723    726     1  0.0000000  0.6508444  3
    722    720    723    724     1  0.0000000  0.6508444  3
    722    720    723    725     1  0.0000000  0.6508444  3
    723    726    728    729     1  180.0000771  9.6232000  2
    724    723    726    727     1  0.0000000  3.3472000  1
    724    723    726    727     1  0.0000000  0.0000000  2
    724    723    726    727     1  180.0000771  0.3347200  3
    724    723    726    728     1  180.0000771  0.0000000  2
    725    723    726    727     1  0.0000000  3.3472000  1
    725    723    726    727     1  0.0000000  0.0000000  2
    725    723    726    727     1  180.0000771  0.3347200  3
    725    723    726    728     1  180.0000771  0.0000000  2
    727    726    728    729     1  0.0000000  7.9496000  1
    727    726    728    729     1  180.0000771  9.6232000  2
    731    734    737    738     1  0.0000000  0.6508444  3
    731    734    737    739     1  0.0000000  0.6508444  3
    732    731    734    737     1  0.0000000  0.6508444  3
    732    731    734    735     1  0.0000000  0.6508444  3
    732    731    734    736     1  0.0000000  0.6508444  3
    733    731    734    737     1  0.0000000  0.6508444  3
    733    731    734    735     1  0.0000000  0.6508444  3
    733    731    734    736     1  0.0000000  0.6508444  3
    735    734    737    740     1  0.0000000  0.6508444  3
    735    734    737    738     1  0.0000000  0.6508444  3
    735    734    737    739     1  0.0000000  0.6508444  3
    735    734    731    761     1  0.0000000  1.0460000  1
    735    734    731    761     1  0.0000000  0.0000000  3
    736    734    737    740     1  0.0000000  0.6508444  3
    736    734    737    738     1  0.0000000  0.6508444  3
    736    734    737    739     1  0.0000000  0.6508444  3
    736    734    731    761     1  0.0000000  1.0460000  1
    736    734    731    761     1  0.0000000  0.0000000  3
    737    740    741    742     1  0.0000000  1.2552000  3
    737    740    741    743     1  0.0000000  1.2552000  3
    737    740    751    752     1  0.0000000  1.2552000  3
    737    740    751    753     1  0.0000000  1.2552000  3
    738    737    740    741     1  0.0000000  1.2552000  3
    738    737    740    751     1  0.0000000  1.2552000  3
    739    737    740    741     1  0.0000000  1.2552000  3
    739    737    740    751     1  0.0000000  1.2552000  3
    740    741    744    745     1  0.0000000  0.6508444  3
    740    741    744    746     1  0.0000000  0.6508444  3
    740    751    754    755     1  0.0000000  0.6508444  3
    740    751    754    756     1  0.0000000  0.6508444  3
    741    740    751    752     1  0.0000000  1.2552000  3
    741    740    751    753     1  0.0000000  1.2552000  3
    742    741    744    747     1  0.0000000  0.6508444  3
    742    741    744    745     1  0.0000000  0.6508444  3
    742    741    744    746     1  0.0000000  0.6508444  3
    742    741    740    751     1  0.0000000  1.2552000  3
    743    741    744    747     1  0.0000000  0.6508444  3
    743    741    744    745     1  0.0000000  0.6508444  3
    743    741    744    746     1  0.0000000  0.6508444  3
    743    741    740    751     1  0.0000000  1.2552000  3
    744    747    749    750     1  180.0000771  9.6232000  2
    745    744    747    748     1  0.0000000  3.3472000  1
    745    744    747    748     1  0.0000000  0.0000000  2
    745    744    747    748     1  180.0000771  0.3347200  3
    745    744    747    749     1  180.0000771  0.0000000  2
    746    744    747    748     1  0.0000000  3.3472000  1
    746    744    747    748     1  0.0000000  0.0000000  2
    746    744    747    748     1  180.0000771  0.3347200  3
    746    744    747    749     1  180.0000771  0.0000000  2
    748    747    749    750     1  0.0000000  7.9496000  1
    748    747    749    750     1  180.0000771  9.6232000  2
    752    751    754    757     1  0.0000000  0.6508444  3
    752    751    754    755     1  0.0000000  0.6508444  3
    752    751    754    756     1  0.0000000  0.6508444  3
    753    751    754    757     1  0.0000000  0.6508444  3
    753    751    754    755     1  0.0000000  0.6508444  3
    753    751    754    756     1  0.0000000  0.6508444  3
    754    757    759    760     1  180.0000771  9.6232000  2
    755    754    757    758     1  0.0000000  3.3472000  1
    755    754    757    758     1  0.0000000  0.0000000  2
    755    754    757    758     1  180.0000771  0.3347200  3
    755    754    757    759     1  180.0000771  0.0000000  2
    756    754    757    758     1  0.0000000  3.3472000  1
    756    754    757    758     1  0.0000000  0.0000000  2
    756    754    757    758     1  180.0000771  0.3347200  3
    756    754    757    759     1  180.0000771  0.0000000  2
    758    757    759    760     1  0.0000000  7.9496000  1
    758    757    759    760     1  180.0000771  9.6232000  2
    762    765    768    769     1  0.0000000  0.6508444  3
    762    765    768    770     1  0.0000000  0.6508444  3
    763    762    765    768     1  0.0000000  0.6508444  3
    763    762    765    766     1  0.0000000  0.6508444  3
    763    762    765    767     1  0.0000000  0.6508444  3
    764    762    765    768     1  0.0000000  0.6508444  3
    764    762    765    766     1  0.0000000  0.6508444  3
    764    762    765    767     1  0.0000000  0.6508444  3
    766    765    762    792     1  0.0000000  1.0460000  1
    766    765    762    792     1  0.0000000  0.0000000  3
    766    765    768    771     1  0.0000000  0.6508444  3
    766    765    768    769     1  0.0000000  0.6508444  3
    766    765    768    770     1  0.0000000  0.6508444  3
    767    765    762    792     1  0.0000000  1.0460000  1
    767    765    762    792     1  0.0000000  0.0000000  3
    767    765    768    771     1  0.0000000  0.6508444  3
    767    765    768    769     1  0.0000000  0.6508444  3
    767    765    768    770     1  0.0000000  0.6508444  3
    768    771    772    773     1  0.0000000  1.2552000  3
    768    771    772    774     1  0.0000000  1.2552000  3
    768    771    782    783     1  0.0000000  1.2552000  3
    768    771    782    784     1  0.0000000  1.2552000  3
    769    768    771    772     1  0.0000000  1.2552000  3
    769    768    771    782     1  0.0000000  1.2552000  3
    770    768    771    772     1  0.0000000  1.2552000  3
    770    768    771    782     1  0.0000000  1.2552000  3
    771    772    775    776     1  0.0000000  0.6508444  3
    771    772    775    777     1  0.0000000  0.6508444  3
    771    782    785    786     1  0.0000000  0.6508444  3
    771    782    785    787     1  0.0000000  0.6508444  3
    772    771    782    783     1  0.0000000  1.2552000  3
    772    771    782    784     1  0.0000000  1.2552000  3
    773    772    771    782     1  0.0000000  1.2552000  3
    773    772    775    778     1  0.0000000  0.6508444  3
    773    772    775    776     1  0.0000000  0.6508444  3
    773    772    775    777     1  0.0000000  0.6508444  3
    774    772    771    782     1  0.0000000  1.2552000  3
    774    772    775    778     1  0.0000000  0.6508444  3
    774    772    775    776     1  0.0000000  0.6508444  3
    774    772    775    777     1  0.0000000  0.6508444  3
    775    778    780    781     1  180.0000771  9.6232000  2
    776    775    778    779     1  0.0000000  3.3472000  1
    776    775    778    779     1  0.0000000  0.0000000  2
    776    775    778    779     1  180.0000771  0.3347200  3
    776    775    778    780     1  180.0000771  0.0000000  2
    777    775    778    779     1  0.0000000  3.3472000  1
    777    775    778    779     1  0.0000000  0.0000000  2
    777    775    778    779     1  180.0000771  0.3347200  3
    777    775    778    780     1  180.0000771  0.0000000  2
    779    778    780    781     1  0.0000000  7.9496000  1
    779    778    780    781     1  180.0000771  9.6232000  2
    783    782    785    788     1  0.0000000  0.6508444  3
    783    782    785    786     1  0.0000000  0.6508444  3
    783    782    785    787     1  0.0000000  0.6508444  3
    784    782    785    788     1  0.0000000  0.6508444  3
    784    782    785    786     1  0.0000000  0.6508444  3
    784    782    785    787     1  0.0000000  0.6508444  3
    785    788    790    791     1  180.0000771  9.6232000  2
    786    785    788    789     1  0.0000000  3.3472000  1
    786    785    788    789     1  0.0000000  0.0000000  2
    786    785    788    789     1  180.0000771  0.3347200  3
    786    785    788    790     1  180.0000771  0.0000000  2
    787    785    788    789     1  0.0000000  3.3472000  1
    787    785    788    789     1  0.0000000  0.0000000  2
    787    785    788    789     1  180.0000771  0.3347200  3
    787    785    788    790     1  180.0000771  0.0000000  2
    789    788    790    791     1  0.0000000  7.9496000  1
    789    788    790    791     1  180.0000771  9.6232000  2
    793    796    799    800     1  0.0000000  0.6508444  3
    793    796    799    801     1  0.0000000  0.6508444  3
    794    793    796    799     1  0.0000000  0.6508444  3
    794    793    796    797     1  0.0000000  0.6508444  3
    794    793    796    798     1  0.0000000  0.6508444  3
    795    793    796    799     1  0.0000000  0.6508444  3
    795    793    796    797     1  0.0000000  0.6508444  3
    795    793    796    798     1  0.0000000  0.6508444  3
    797    796    799    802     1  0.0000000  0.6508444  3
    797    796    799    800     1  0.0000000  0.6508444  3
    797    796    799    801     1  0.0000000  0.6508444  3
    797    796    793    823     1  0.0000000  1.0460000  1
    797    796    793    823     1  0.0000000  0.0000000  3
    798    796    799    802     1  0.0000000  0.6508444  3
    798    796    799    800     1  0.0000000  0.6508444  3
    798    796    799    801     1  0.0000000  0.6508444  3
    798    796    793    823     1  0.0000000  1.0460000  1
    798    796    793    823     1  0.0000000  0.0000000  3
    799    802    803    804     1  0.0000000  1.2552000  3
    799    802    803    805     1  0.0000000  1.2552000  3
    799    802    813    814     1  0.0000000  1.2552000  3
    799    802    813    815     1  0.0000000  1.2552000  3
    800    799    802    803     1  0.0000000  1.2552000  3
    800    799    802    813     1  0.0000000  1.2552000  3
    801    799    802    803     1  0.0000000  1.2552000  3
    801    799    802    813     1  0.0000000  1.2552000  3
    802    803    806    807     1  0.0000000  0.6508444  3
    802    803    806    808     1  0.0000000  0.6508444  3
    802    813    816    817     1  0.0000000  0.6508444  3
    802    813    816    818     1  0.0000000  0.6508444  3
    803    802    813    814     1  0.0000000  1.2552000  3
    803    802    813    815     1  0.0000000  1.2552000  3
    804    803    806    809     1  0.0000000  0.6508444  3
    804    803    806    807     1  0.0000000  0.6508444  3
    804    803    806    808     1  0.0000000  0.6508444  3
    804    803    802    813     1  0.0000000  1.2552000  3
    805    803    806    809     1  0.0000000  0.6508444  3
    805    803    806    807     1  0.0000000  0.6508444  3
    805    803    806    808     1  0.0000000  0.6508444  3
    805    803    802    813     1  0.0000000  1.2552000  3
    806    809    811    812     1  180.0000771  9.6232000  2
    807    806    809    810     1  0.0000000  3.3472000  1
    807    806    809    810     1  0.0000000  0.0000000  2
    807    806    809    810     1  180.0000771  0.3347200  3
    807    806    809    811     1  180.0000771  0.0000000  2
    808    806    809    810     1  0.0000000  3.3472000  1
    808    806    809    810     1  0.0000000  0.0000000  2
    808    806    809    810     1  180.0000771  0.3347200  3
    808    806    809    811     1  180.0000771  0.0000000  2
    810    809    811    812     1  0.0000000  7.9496000  1
    810    809    811    812     1  180.0000771  9.6232000  2
    814    813    816    819     1  0.0000000  0.6508444  3
    814    813    816    817     1  0.0000000  0.6508444  3
    814    813    816    818     1  0.0000000  0.6508444  3
    815    813    816    819     1  0.0000000  0.6508444  3
    815    813    816    817     1  0.0000000  0.6508444  3
    815    813    816    818     1  0.0000000  0.6508444  3
    816    819    821    822     1  180.0000771  9.6232000  2
    817    816    819    820     1  0.0000000  3.3472000  1
    817    816    819    820     1  0.0000000  0.0000000  2
    817    816    819    820     1  180.0000771  0.3347200  3
    817    816    819    821     1  180.0000771  0.0000000  2
    818    816    819    820     1  0.0000000  3.3472000  1
    818    816    819    820     1  0.0000000  0.0000000  2
    818    816    819    820     1  180.0000771  0.3347200  3
    818    816    819    821     1  180.0000771  0.0000000  2
    820    819    821    822     1  0.0000000  7.9496000  1
    820    819    821    822     1  180.0000771  9.6232000  2
    824    827    830    831     1  0.0000000  0.6508444  3
    824    827    830    832     1  0.0000000  0.6508444  3
    825    824    827    830     1  0.0000000  0.6508444  3
    825    824    827    828     1  0.0000000  0.6508444  3
    825    824    827    829     1  0.0000000  0.6508444  3
    826    824    827    830     1  0.0000000  0.6508444  3
    826    824    827    828     1  0.0000000  0.6508444  3
    826    824    827    829     1  0.0000000  0.6508444  3
    828    827    824    854     1  0.0000000  1.0460000  1
    828    827    824    854     1  0.0000000  0.0000000  3
    828    827    830    833     1  0.0000000  0.6508444  3
    828    827    830    831     1  0.0000000  0.6508444  3
    828    827    830    832     1  0.0000000  0.6508444  3
    829    827    824    854     1  0.0000000  1.0460000  1
    829    827    824    854     1  0.0000000  0.0000000  3
    829    827    830    833     1  0.0000000  0.6508444  3
    829    827    830    831     1  0.0000000  0.6508444  3
    829    827    830    832     1  0.0000000  0.6508444  3
    830    833    834    835     1  0.0000000  1.2552000  3
    830    833    834    836     1  0.0000000  1.2552000  3
    830    833    844    845     1  0.0000000  1.2552000  3
    830    833    844    846     1  0.0000000  1.2552000  3
    831    830    833    834     1  0.0000000  1.2552000  3
    831    830    833    844     1  0.0000000  1.2552000  3
    832    830    833    834     1  0.0000000  1.2552000  3
    832    830    833    844     1  0.0000000  1.2552000  3
    833    834    837    838     1  0.0000000  0.6508444  3
    833    834    837    839     1  0.0000000  0.6508444  3
    833    844    847    848     1  0.0000000  0.6508444  3
    833    844    847    849     1  0.0000000  0.6508444  3
    834    833    844    845     1  0.0000000  1.2552000  3
    834    833    844    846     1  0.0000000  1.2552000  3
    835    834    833    844     1  0.0000000  1.2552000  3
    835    834    837    840     1  0.0000000  0.6508444  3
    835    834    837    838     1  0.0000000  0.6508444  3
    835    834    837    839     1  0.0000000  0.6508444  3
    836    834    833    844     1  0.0000000  1.2552000  3
    836    834    837    840     1  0.0000000  0.6508444  3
    836    834    837    838     1  0.0000000  0.6508444  3
    836    834    837    839     1  0.0000000  0.6508444  3
    837    840    842    843     1  180.0000771  9.6232000  2
    838    837    840    841     1  0.0000000  3.3472000  1
    838    837    840    841     1  0.0000000  0.0000000  2
    838    837    840    841     1  180.0000771  0.3347200  3
    838    837    840    842     1  180.0000771  0.0000000  2
    839    837    840    841     1  0.0000000  3.3472000  1
    839    837    840    841     1  0.0000000  0.0000000  2
    839    837    840    841     1  180.0000771  0.3347200  3
    839    837    840    842     1  180.0000771  0.0000000  2
    841    840    842    843     1  0.0000000  7.9496000  1
    841    840    842    843     1  180.0000771  9.6232000  2
    845    844    847    850     1  0.0000000  0.6508444  3
    845    844    847    848     1  0.0000000  0.6508444  3
    845    844    847    849     1  0.0000000  0.6508444  3
    846    844    847    850     1  0.0000000  0.6508444  3
    846    844    847    848     1  0.0000000  0.6508444  3
    846    844    847    849     1  0.0000000  0.6508444  3
    847    850    852    853     1  180.0000771  9.6232000  2
    848    847    850    851     1  0.0000000  3.3472000  1
    848    847    850    851     1  0.0000000  0.0000000  2
    848    847    850    851     1  180.0000771  0.3347200  3
    848    847    850    852     1  180.0000771  0.0000000  2
    849    847    850    851     1  0.0000000  3.3472000  1
    849    847    850    851     1  0.0000000  0.0000000  2
    849    847    850    851     1  180.0000771  0.3347200  3
    849    847    850    852     1  180.0000771  0.0000000  2
    851    850    852    853     1  0.0000000  7.9496000  1
    851    850    852    853     1  180.0000771  9.6232000  2
    855    858    861    862     1  0.0000000  0.6508444  3
    855    858    861    863     1  0.0000000  0.6508444  3
    856    855    858    861     1  0.0000000  0.6508444  3
    856    855    858    859     1  0.0000000  0.6508444  3
    856    855    858    860     1  0.0000000  0.6508444  3
    857    855    858    861     1  0.0000000  0.6508444  3
    857    855    858    859     1  0.0000000  0.6508444  3
    857    855    858    860     1  0.0000000  0.6508444  3
    859    858    861    864     1  0.0000000  0.6508444  3
    859    858    861    862     1  0.0000000  0.6508444  3
    859    858    861    863     1  0.0000000  0.6508444  3
    859    858    855    885     1  0.0000000  1.0460000  1
    859    858    855    885     1  0.0000000  0.0000000  3
    860    858    861    864     1  0.0000000  0.6508444  3
    860    858    861    862     1  0.0000000  0.6508444  3
    860    858    861    863     1  0.0000000  0.6508444  3
    860    858    855    885     1  0.0000000  1.0460000  1
    860    858    855    885     1  0.0000000  0.0000000  3
    861    864    865    866     1  0.0000000  1.2552000  3
    861    864    865    867     1  0.0000000  1.2552000  3
    861    864    875    876     1  0.0000000  1.2552000  3
    861    864    875    877     1  0.0000000  1.2552000  3
    862    861    864    865     1  0.0000000  1.2552000  3
    862    861    864    875     1  0.0000000  1.2552000  3
    863    861    864    865     1  0.0000000  1.2552000  3
    863    861    864    875     1  0.0000000  1.2552000  3
    864    865    868    869     1  0.0000000  0.6508444  3
    864    865    868    870     1  0.0000000  0.6508444  3
    864    875    878    879     1  0.0000000  0.6508444  3
    864    875    878    880     1  0.0000000  0.6508444  3
    865    864    875    876     1  0.0000000  1.2552000  3
    865    864    875    877     1  0.0000000  1.2552000  3
    866    865    868    871     1  0.0000000  0.6508444  3
    866    865    868    869     1  0.0000000  0.6508444  3
    866    865    868    870     1  0.0000000  0.6508444  3
    866    865    864    875     1  0.0000000  1.2552000  3
    867    865    868    871     1  0.0000000  0.6508444  3
    867    865    868    869     1  0.0000000  0.6508444  3
    867    865    868    870     1  0.0000000  0.6508444  3
    867    865    864    875     1  0.0000000  1.2552000  3
    868    871    873    874     1  180.0000771  9.6232000  2
    869    868    871    872     1  0.0000000  3.3472000  1
    869    868    871    872     1  0.0000000  0.0000000  2
    869    868    871    872     1  180.0000771  0.3347200  3
    869    868    871    873     1  180.0000771  0.0000000  2
    870    868    871    872     1  0.0000000  3.3472000  1
    870    868    871    872     1  0.0000000  0.0000000  2
    870    868    871    872     1  180.0000771  0.3347200  3
    870    868    871    873     1  180.0000771  0.0000000  2
    872    871    873    874     1  0.0000000  7.9496000  1
    872    871    873    874     1  180.0000771  9.6232000  2
    876    875    878    881     1  0.0000000  0.6508444  3
    876    875    878    879     1  0.0000000  0.6508444  3
    876    875    878    880     1  0.0000000  0.6508444  3
    877    875    878    881     1  0.0000000  0.6508444  3
    877    875    878    879     1  0.0000000  0.6508444  3
    877    875    878    880     1  0.0000000  0.6508444  3
    878    881    883    884     1  180.0000771  9.6232000  2
    879    878    881    882     1  0.0000000  3.3472000  1
    879    878    881    882     1  0.0000000  0.0000000  2
    879    878    881    882     1  180.0000771  0.3347200  3
    879    878    881    883     1  180.0000771  0.0000000  2
    880    878    881    882     1  0.0000000  3.3472000  1
    880    878    881    882     1  0.0000000  0.0000000  2
    880    878    881    882     1  180.0000771  0.3347200  3
    880    878    881    883     1  180.0000771  0.0000000  2
    882    881    883    884     1  0.0000000  7.9496000  1
    882    881    883    884     1  180.0000771  9.6232000  2
    886    889    892    893     1  0.0000000  0.6508444  3
    886    889    892    894     1  0.0000000  0.6508444  3
    887    886    889    892     1  0.0000000  0.6508444  3
    887    886    889    890     1  0.0000000  0.6508444  3
    887    886    889    891     1  0.0000000  0.6508444  3
    888    886    889    892     1  0.0000000  0.6508444  3
    888    886    889    890     1  0.0000000  0.6508444  3
    888    886    889    891     1  0.0000000  0.6508444  3
    890    889    886    916     1  0.0000000  1.0460000  1
    890    889    886    916     1  0.0000000  0.0000000  3
    890    889    892    895     1  0.0000000  0.6508444  3
    890    889    892    893     1  0.0000000  0.6508444  3
    890    889    892    894     1  0.0000000  0.6508444  3
    891    889    886    916     1  0.0000000  1.0460000  1
    891    889    886    916     1  0.0000000  0.0000000  3
    891    889    892    895     1  0.0000000  0.6508444  3
    891    889    892    893     1  0.0000000  0.6508444  3
    891    889    892    894     1  0.0000000  0.6508444  3
    892    895    896    897     1  0.0000000  1.2552000  3
    892    895    896    898     1  0.0000000  1.2552000  3
    892    895    906    907     1  0.0000000  1.2552000  3
    892    895    906    908     1  0.0000000  1.2552000  3
    893    892    895    896     1  0.0000000  1.2552000  3
    893    892    895    906     1  0.0000000  1.2552000  3
    894    892    895    896     1  0.0000000  1.2552000  3
    894    892    895    906     1  0.0000000  1.2552000  3
    895    896    899    900     1  0.0000000  0.6508444  3
    895    896    899    901     1  0.0000000  0.6508444  3
    895    906    909    910     1  0.0000000  0.6508444  3
    895    906    909    911     1  0.0000000  0.6508444  3
    896    895    906    907     1  0.0000000  1.2552000  3
    896    895    906    908     1  0.0000000  1.2552000  3
    897    896    895    906     1  0.0000000  1.2552000  3
    897    896    899    902     1  0.0000000  0.6508444  3
    897    896    899    900     1  0.0000000  0.6508444  3
    897    896    899    901     1  0.0000000  0.6508444  3
    898    896    895    906     1  0.0000000  1.2552000  3
    898    896    899    902     1  0.0000000  0.6508444  3
    898    896    899    900     1  0.0000000  0.6508444  3
    898    896    899    901     1  0.0000000  0.6508444  3
    899    902    904    905     1  180.0000771  9.6232000  2
    900    899    902    903     1  0.0000000  3.3472000  1
    900    899    902    903     1  0.0000000  0.0000000  2
    900    899    902    903     1  180.0000771  0.3347200  3
    900    899    902    904     1  180.0000771  0.0000000  2
    901    899    902    903     1  0.0000000  3.3472000  1
    901    899    902    903     1  0.0000000  0.0000000  2
    901    899    902    903     1  180.0000771  0.3347200  3
    901    899    902    904     1  180.0000771  0.0000000  2
    903    902    904    905     1  0.0000000  7.9496000  1
    903    902    904    905     1  180.0000771  9.6232000  2
    907    906    909    912     1  0.0000000  0.6508444  3
    907    906    909    910     1  0.0000000  0.6508444  3
    907    906    909    911     1  0.0000000  0.6508444  3
    908    906    909    912     1  0.0000000  0.6508444  3
    908    906    909    910     1  0.0000000  0.6508444  3
    908    906    909    911     1  0.0000000  0.6508444  3
    909    912    914    915     1  180.0000771  9.6232000  2
    910    909    912    913     1  0.0000000  3.3472000  1
    910    909    912    913     1  0.0000000  0.0000000  2
    910    909    912    913     1  180.0000771  0.3347200  3
    910    909    912    914     1  180.0000771  0.0000000  2
    911    909    912    913     1  0.0000000  3.3472000  1
    911    909    912    913     1  0.0000000  0.0000000  2
    911    909    912    913     1  180.0000771  0.3347200  3
    911    909    912    914     1  180.0000771  0.0000000  2
    913    912    914    915     1  0.0000000  7.9496000  1
    913    912    914    915     1  180.0000771  9.6232000  2
    917    920    923    924     1  0.0000000  0.6508444  3
    917    920    923    925     1  0.0000000  0.6508444  3
    918    917    920    923     1  0.0000000  0.6508444  3
    918    917    920    921     1  0.0000000  0.6508444  3
    918    917    920    922     1  0.0000000  0.6508444  3
    919    917    920    923     1  0.0000000  0.6508444  3
    919    917    920    921     1  0.0000000  0.6508444  3
    919    917    920    922     1  0.0000000  0.6508444  3
    921    920    923    926     1  0.0000000  0.6508444  3
    921    920    923    924     1  0.0000000  0.6508444  3
    921    920    923    925     1  0.0000000  0.6508444  3
    921    920    917    947     1  0.0000000  1.0460000  1
    921    920    917    947     1  0.0000000  0.0000000  3
    922    920    923    926     1  0.0000000  0.6508444  3
    922    920    923    924     1  0.0000000  0.6508444  3
    922    920    923    925     1  0.0000000  0.6508444  3
    922    920    917    947     1  0.0000000  1.0460000  1
    922    920    917    947     1  0.0000000  0.0000000  3
    923    926    927    928     1  0.0000000  1.2552000  3
    923    926    927    929     1  0.0000000  1.2552000  3
    923    926    937    938     1  0.0000000  1.2552000  3
    923    926    937    939     1  0.0000000  1.2552000  3
    924    923    926    927     1  0.0000000  1.2552000  3
    924    923    926    937     1  0.0000000  1.2552000  3
    925    923    926    927     1  0.0000000  1.2552000  3
    925    923    926    937     1  0.0000000  1.2552000  3
    926    927    930    931     1  0.0000000  0.6508444  3
    926    927    930    932     1  0.0000000  0.6508444  3
    926    937    940    941     1  0.0000000  0.6508444  3
    926    937    940    942     1  0.0000000  0.6508444  3
    927    926    937    938     1  0.0000000  1.2552000  3
    927    926    937    939     1  0.0000000  1.2552000  3
    928    927    930    933     1  0.0000000  0.6508444  3
    928    927    930    931     1  0.0000000  0.6508444  3
    928    927    930    932     1  0.0000000  0.6508444  3
    928    927    926    937     1  0.0000000  1.2552000  3
    929    927    930    933     1  0.0000000  0.6508444  3
    929    927    930    931     1  0.0000000  0.6508444  3
    929    927    930    932     1  0.0000000  0.6508444  3
    929    927    926    937     1  0.0000000  1.2552000  3
    930    933    935    936     1  180.0000771  9.6232000  2
    931    930    933    934     1  0.0000000  3.3472000  1
    931    930    933    934     1  0.0000000  0.0000000  2
    931    930    933    934     1  180.0000771  0.3347200  3
    931    930    933    935     1  180.0000771  0.0000000  2
    932    930    933    934     1  0.0000000  3.3472000  1
    932    930    933    934     1  0.0000000  0.0000000  2
    932    930    933    934     1  180.0000771  0.3347200  3
    932    930    933    935     1  180.0000771  0.0000000  2
    934    933    935    936     1  0.0000000  7.9496000  1
    934    933    935    936     1  180.0000771  9.6232000  2
    938    937    940    943     1  0.0000000  0.6508444  3
    938    937    940    941     1  0.0000000  0.6508444  3
    938    937    940    942     1  0.0000000  0.6508444  3
    939    937    940    943     1  0.0000000  0.6508444  3
    939    937    940    941     1  0.0000000  0.6508444  3
    939    937    940    942     1  0.0000000  0.6508444  3
    940    943    945    946     1  180.0000771  9.6232000  2
    941    940    943    944     1  0.0000000  3.3472000  1
    941    940    943    944     1  0.0000000  0.0000000  2
    941    940    943    944     1  180.0000771  0.3347200  3
    941    940    943    945     1  180.0000771  0.0000000  2
    942    940    943    944     1  0.0000000  3.3472000  1
    942    940    943    944     1  0.0000000  0.0000000  2
    942    940    943    944     1  180.0000771  0.3347200  3
    942    940    943    945     1  180.0000771  0.0000000  2
    944    943    945    946     1  0.0000000  7.9496000  1
    944    943    945    946     1  180.0000771  9.6232000  2
    948    951    954    955     1  0.0000000  0.6508444  3
    948    951    954    956     1  0.0000000  0.6508444  3
    949    948    951    954     1  0.0000000  0.6508444  3
    949    948    951    952     1  0.0000000  0.6508444  3
    949    948    951    953     1  0.0000000  0.6508444  3
    950    948    951    954     1  0.0000000  0.6508444  3
    950    948    951    952     1  0.0000000  0.6508444  3
    950    948    951    953     1  0.0000000  0.6508444  3
    952    951    948    978     1  0.0000000  1.0460000  1
    952    951    948    978     1  0.0000000  0.0000000  3
    952    951    954    957     1  0.0000000  0.6508444  3
    952    951    954    955     1  0.0000000  0.6508444  3
    952    951    954    956     1  0.0000000  0.6508444  3
    953    951    948    978     1  0.0000000  1.0460000  1
    953    951    948    978     1  0.0000000  0.0000000  3
    953    951    954    957     1  0.0000000  0.6508444  3
    953    951    954    955     1  0.0000000  0.6508444  3
    953    951    954    956     1  0.0000000  0.6508444  3
    954    957    958    959     1  0.0000000  1.2552000  3
    954    957    958    960     1  0.0000000  1.2552000  3
    954    957    968    969     1  0.0000000  1.2552000  3
    954    957    968    970     1  0.0000000  1.2552000  3
    955    954    957    958     1  0.0000000  1.2552000  3
    955    954    957    968     1  0.0000000  1.2552000  3
    956    954    957    958     1  0.0000000  1.2552000  3
    956    954    957    968     1  0.0000000  1.2552000  3
    957    958    961    962     1  0.0000000  0.6508444  3
    957    958    961    963     1  0.0000000  0.6508444  3
    957    968    971    972     1  0.0000000  0.6508444  3
    957    968    971    973     1  0.0000000  0.6508444  3
    958    957    968    969     1  0.0000000  1.2552000  3
    958    957    968    970     1  0.0000000  1.2552000  3
    959    958    957    968     1  0.0000000  1.2552000  3
    959    958    961    964     1  0.0000000  0.6508444  3
    959    958    961    962     1  0.0000000  0.6508444  3
    959    958    961    963     1  0.0000000  0.6508444  3
    960    958    957    968     1  0.0000000  1.2552000  3
    960    958    961    964     1  0.0000000  0.6508444  3
    960    958    961    962     1  0.0000000  0.6508444  3
    960    958    961    963     1  0.0000000  0.6508444  3
    961    964    966    967     1  180.0000771  9.6232000  2
    962    961    964    965     1  0.0000000  3.3472000  1
    962    961    964    965     1  0.0000000  0.0000000  2
    962    961    964    965     1  180.0000771  0.3347200  3
    962    961    964    966     1  180.0000771  0.0000000  2
    963    961    964    965     1  0.0000000  3.3472000  1
    963    961    964    965     1  0.0000000  0.0000000  2
    963    961    964    965     1  180.0000771  0.3347200  3
    963    961    964    966     1  180.0000771  0.0000000  2
    965    964    966    967     1  0.0000000  7.9496000  1
    965    964    966    967     1  180.0000771  9.6232000  2
    969    968    971    974     1  0.0000000  0.6508444  3
    969    968    971    972     1  0.0000000  0.6508444  3
    969    968    971    973     1  0.0000000  0.6508444  3
    970    968    971    974     1  0.0000000  0.6508444  3
    970    968    971    972     1  0.0000000  0.6508444  3
    970    968    971    973     1  0.0000000  0.6508444  3
    971    974    976    977     1  180.0000771  9.6232000  2
    972    971    974    975     1  0.0000000  3.3472000  1
    972    971    974    975     1  0.0000000  0.0000000  2
    972    971    974    975     1  180.0000771  0.3347200  3
    972    971    974    976     1  180.0000771  0.0000000  2
    973    971    974    975     1  0.0000000  3.3472000  1
    973    971    974    975     1  0.0000000  0.0000000  2
    973    971    974    975     1  180.0000771  0.3347200  3
    973    971    974    976     1  180.0000771  0.0000000  2
    975    974    976    977     1  0.0000000  7.9496000  1
    975    974    976    977     1  180.0000771  9.6232000  2
    979    982    985    986     1  0.0000000  0.6508444  3
    979    982    985    987     1  0.0000000  0.6508444  3
    980    979    982    985     1  0.0000000  0.6508444  3
    980    979    982    983     1  0.0000000  0.6508444  3
    980    979    982    984     1  0.0000000  0.6508444  3
    981    979    982    985     1  0.0000000  0.6508444  3
    981    979    982    983     1  0.0000000  0.6508444  3
    981    979    982    984     1  0.0000000  0.6508444  3
    983    982    985    988     1  0.0000000  0.6508444  3
    983    982    985    986     1  0.0000000  0.6508444  3
    983    982    985    987     1  0.0000000  0.6508444  3
    983    982    979   1009     1  0.0000000  1.0460000  1
    983    982    979   1009     1  0.0000000  0.0000000  3
    984    982    985    988     1  0.0000000  0.6508444  3
    984    982    985    986     1  0.0000000  0.6508444  3
    984    982    985    987     1  0.0000000  0.6508444  3
    984    982    979   1009     1  0.0000000  1.0460000  1
    984    982    979   1009     1  0.0000000  0.0000000  3
    985    988    989    990     1  0.0000000  1.2552000  3
    985    988    989    991     1  0.0000000  1.2552000  3
    985    988    999   1000     1  0.0000000  1.2552000  3
    985    988    999   1001     1  0.0000000  1.2552000  3
    986    985    988    989     1  0.0000000  1.2552000  3
    986    985    988    999     1  0.0000000  1.2552000  3
    987    985    988    989     1  0.0000000  1.2552000  3
    987    985    988    999     1  0.0000000  1.2552000  3
    988    989    992    993     1  0.0000000  0.6508444  3
    988    989    992    994     1  0.0000000  0.6508444  3
    988    999   1002   1003     1  0.0000000  0.6508444  3
    988    999   1002   1004     1  0.0000000  0.6508444  3
    989    988    999   1000     1  0.0000000  1.2552000  3
    989    988    999   1001     1  0.0000000  1.2552000  3
    990    989    992    995     1  0.0000000  0.6508444  3
    990    989    992    993     1  0.0000000  0.6508444  3
    990    989    992    994     1  0.0000000  0.6508444  3
    990    989    988    999     1  0.0000000  1.2552000  3
    991    989    992    995     1  0.0000000  0.6508444  3
    991    989    992    993     1  0.0000000  0.6508444  3
    991    989    992    994     1  0.0000000  0.6508444  3
    991    989    988    999     1  0.0000000  1.2552000  3
    992    995    997    998     1  180.0000771  9.6232000  2
    993    992    995    996     1  0.0000000  3.3472000  1
    993    992    995    996     1  0.0000000  0.0000000  2
    993    992    995    996     1  180.0000771  0.3347200  3
    993    992    995    997     1  180.0000771  0.0000000  2
    994    992    995    996     1  0.0000000  3.3472000  1
    994    992    995    996     1  0.0000000  0.0000000  2
    994    992    995    996     1  180.0000771  0.3347200  3
    994    992    995    997     1  180.0000771  0.0000000  2
    996    995    997    998     1  0.0000000  7.9496000  1
    996    995    997    998     1  180.0000771  9.6232000  2
   1000    999   1002   1005     1  0.0000000  0.6508444  3
   1000    999   1002   1003     1  0.0000000  0.6508444  3
   1000    999   1002   1004     1  0.0000000  0.6508444  3
   1001    999   1002   1005     1  0.0000000  0.6508444  3
   1001    999   1002   1003     1  0.0000000  0.6508444  3
   1001    999   1002   1004     1  0.0000000  0.6508444  3
   1002   1005   1007   1008     1  180.0000771  9.6232000  2
   1003   1002   1005   1006     1  0.0000000  3.3472000  1
   1003   1002   1005   1006     1  0.0000000  0.0000000  2
   1003   1002   1005   1006     1  180.0000771  0.3347200  3
   1003   1002   1005   1007     1  180.0000771  0.0000000  2
   1004   1002   1005   1006     1  0.0000000  3.3472000  1
   1004   1002   1005   1006     1  0.0000000  0.0000000  2
   1004   1002   1005   1006     1  180.0000771  0.3347200  3
   1004   1002   1005   1007     1  180.0000771  0.0000000  2
   1006   1005   1007   1008     1  0.0000000  7.9496000  1
   1006   1005   1007   1008     1  180.0000771  9.6232000  2
   1010   1013   1016   1017     1  0.0000000  0.6508444  3
   1010   1013   1016   1018     1  0.0000000  0.6508444  3
   1011   1010   1013   1016     1  0.0000000  0.6508444  3
   1011   1010   1013   1014     1  0.0000000  0.6508444  3
   1011   1010   1013   1015     1  0.0000000  0.6508444  3
   1012   1010   1013   1016     1  0.0000000  0.6508444  3
   1012   1010   1013   1014     1  0.0000000  0.6508444  3
   1012   1010   1013   1015     1  0.0000000  0.6508444  3
   1014   1013   1010   1040     1  0.0000000  1.0460000  1
   1014   1013   1010   1040     1  0.0000000  0.0000000  3
   1014   1013   1016   1019     1  0.0000000  0.6508444  3
   1014   1013   1016   1017     1  0.0000000  0.6508444  3
   1014   1013   1016   1018     1  0.0000000  0.6508444  3
   1015   1013   1010   1040     1  0.0000000  1.0460000  1
   1015   1013   1010   1040     1  0.0000000  0.0000000  3
   1015   1013   1016   1019     1  0.0000000  0.6508444  3
   1015   1013   1016   1017     1  0.0000000  0.6508444  3
   1015   1013   1016   1018     1  0.0000000  0.6508444  3
   1016   1019   1020   1021     1  0.0000000  1.2552000  3
   1016   1019   1020   1022     1  0.0000000  1.2552000  3
   1016   1019   1030   1031     1  0.0000000  1.2552000  3
   1016   1019   1030   1032     1  0.0000000  1.2552000  3
   1017   1016   1019   1020     1  0.0000000  1.2552000  3
   1017   1016   1019   1030     1  0.0000000  1.2552000  3
   1018   1016   1019   1020     1  0.0000000  1.2552000  3
   1018   1016   1019   1030     1  0.0000000  1.2552000  3
   1019   1020   1023   1024     1  0.0000000  0.6508444  3
   1019   1020   1023   1025     1  0.0000000  0.6508444  3
   1019   1030   1033   1034     1  0.0000000  0.6508444  3
   1019   1030   1033   1035     1  0.0000000  0.6508444  3
   1020   1019   1030   1031     1  0.0000000  1.2552000  3
   1020   1019   1030   1032     1  0.0000000  1.2552000  3
   1021   1020   1019   1030     1  0.0000000  1.2552000  3
   1021   1020   1023   1026     1  0.0000000  0.6508444  3
   1021   1020   1023   1024     1  0.0000000  0.6508444  3
   1021   1020   1023   1025     1  0.0000000  0.6508444  3
   1022   1020   1019   1030     1  0.0000000  1.2552000  3
   1022   1020   1023   1026     1  0.0000000  0.6508444  3
   1022   1020   1023   1024     1  0.0000000  0.6508444  3
   1022   1020   1023   1025     1  0.0000000  0.6508444  3
   1023   1026   1028   1029     1  180.0000771  9.6232000  2
   1024   1023   1026   1027     1  0.0000000  3.3472000  1
   1024   1023   1026   1027     1  0.0000000  0.0000000  2
   1024   1023   1026   1027     1  180.0000771  0.3347200  3
   1024   1023   1026   1028     1  180.0000771  0.0000000  2
   1025   1023   1026   1027     1  0.0000000  3.3472000  1
   1025   1023   1026   1027     1  0.0000000  0.0000000  2
   1025   1023   1026   1027     1  180.0000771  0.3347200  3
   1025   1023   1026   1028     1  180.0000771  0.0000000  2
   1027   1026   1028   1029     1  0.0000000  7.9496000  1
   1027   1026   1028   1029     1  180.0000771  9.6232000  2
   1031   1030   1033   1036     1  0.0000000  0.6508444  3
   1031   1030   1033   1034     1  0.0000000  0.6508444  3
   1031   1030   1033   1035     1  0.0000000  0.6508444  3
   1032   1030   1033   1036     1  0.0000000  0.6508444  3
   1032   1030   1033   1034     1  0.0000000  0.6508444  3
   1032   1030   1033   1035     1  0.0000000  0.6508444  3
   1033   1036   1038   1039     1  180.0000771  9.6232000  2
   1034   1033   1036   1037     1  0.0000000  3.3472000  1
   1034   1033   1036   1037     1  0.0000000  0.0000000  2
   1034   1033   1036   1037     1  180.0000771  0.3347200  3
   1034   1033   1036   1038     1  180.0000771  0.0000000  2
   1035   1033   1036   1037     1  0.0000000  3.3472000  1
   1035   1033   1036   1037     1  0.0000000  0.0000000  2
   1035   1033   1036   1037     1  180.0000771  0.3347200  3
   1035   1033   1036   1038     1  180.0000771  0.0000000  2
   1037   1036   1038   1039     1  0.0000000  7.9496000  1
   1037   1036   1038   1039     1  180.0000771  9.6232000  2
   1041   1044   1047   1048     1  0.0000000  0.6508444  3
   1041   1044   1047   1049     1  0.0000000  0.6508444  3
   1042   1041   1044   1047     1  0.0000000  0.6508444  3
   1042   1041   1044   1045     1  0.0000000  0.6508444  3
   1042   1041   1044   1046     1  0.0000000  0.6508444  3
   1043   1041   1044   1047     1  0.0000000  0.6508444  3
   1043   1041   1044   1045     1  0.0000000  0.6508444  3
   1043   1041   1044   1046     1  0.0000000  0.6508444  3
   1045   1044   1047   1050     1  0.0000000  0.6508444  3
   1045   1044   1047   1048     1  0.0000000  0.6508444  3
   1045   1044   1047   1049     1  0.0000000  0.6508444  3
   1045   1044   1041   1071     1  0.0000000  1.0460000  1
   1045   1044   1041   1071     1  0.0000000  0.0000000  3
   1046   1044   1047   1050     1  0.0000000  0.6508444  3
   1046   1044   1047   1048     1  0.0000000  0.6508444  3
   1046   1044   1047   1049     1  0.0000000  0.6508444  3
   1046   1044   1041   1071     1  0.0000000  1.0460000  1
   1046   1044   1041   1071     1  0.0000000  0.0000000  3
   1047   1050   1051   1052     1  0.0000000  1.2552000  3
   1047   1050   1051   1053     1  0.0000000  1.2552000  3
   1047   1050   1061   1062     1  0.0000000  1.2552000  3
   1047   1050   1061   1063     1  0.0000000  1.2552000  3
   1048   1047   1050   1051     1  0.0000000  1.2552000  3
   1048   1047   1050   1061     1  0.0000000  1.2552000  3
   1049   1047   1050   1051     1  0.0000000  1.2552000  3
   1049   1047   1050   1061     1  0.0000000  1.2552000  3
   1050   1051   1054   1055     1  0.0000000  0.6508444  3
   1050   1051   1054   1056     1  0.0000000  0.6508444  3
   1050   1061   1064   1065     1  0.0000000  0.6508444  3
   1050   1061   1064   1066     1  0.0000000  0.6508444  3
   1051   1050   1061   1062     1  0.0000000  1.2552000  3
   1051   1050   1061   1063     1  0.0000000  1.2552000  3
   1052   1051   1054   1057     1  0.0000000  0.6508444  3
   1052   1051   1054   1055     1  0.0000000  0.6508444  3
   1052   1051   1054   1056     1  0.0000000  0.6508444  3
   1052   1051   1050   1061     1  0.0000000  1.2552000  3
   1053   1051   1054   1057     1  0.0000000  0.6508444  3
   1053   1051   1054   1055     1  0.0000000  0.6508444  3
   1053   1051   1054   1056     1  0.0000000  0.6508444  3
   1053   1051   1050   1061     1  0.0000000  1.2552000  3
   1054   1057   1059   1060     1  180.0000771  9.6232000  2
   1055   1054   1057   1058     1  0.0000000  3.3472000  1
   1055   1054   1057   1058     1  0.0000000  0.0000000  2
   1055   1054   1057   1058     1  180.0000771  0.3347200  3
   1055   1054   1057   1059     1  180.0000771  0.0000000  2
   1056   1054   1057   1058     1  0.0000000  3.3472000  1
   1056   1054   1057   1058     1  0.0000000  0.0000000  2
   1056   1054   1057   1058     1  180.0000771  0.3347200  3
   1056   1054   1057   1059     1  180.0000771  0.0000000  2
   1058   1057   1059   1060     1  0.0000000  7.9496000  1
   1058   1057   1059   1060     1  180.0000771  9.6232000  2
   1062   1061   1064   1067     1  0.0000000  0.6508444  3
   1062   1061   1064   1065     1  0.0000000  0.6508444  3
   1062   1061   1064   1066     1  0.0000000  0.6508444  3
   1063   1061   1064   1067     1  0.0000000  0.6508444  3
   1063   1061   1064   1065     1  0.0000000  0.6508444  3
   1063   1061   1064   1066     1  0.0000000  0.6508444  3
   1064   1067   1069   1070     1  180.0000771  9.6232000  2
   1065   1064   1067   1068     1  0.0000000  3.3472000  1
   1065   1064   1067   1068     1  0.0000000  0.0000000  2
   1065   1064   1067   1068     1  180.0000771  0.3347200  3
   1065   1064   1067   1069     1  180.0000771  0.0000000  2
   1066   1064   1067   1068     1  0.0000000  3.3472000  1
   1066   1064   1067   1068     1  0.0000000  0.0000000  2
   1066   1064   1067   1068     1  180.0000771  0.3347200  3
   1066   1064   1067   1069     1  180.0000771  0.0000000  2
   1068   1067   1069   1070     1  0.0000000  7.9496000  1
   1068   1067   1069   1070     1  180.0000771  9.6232000  2
   1072   1075   1078   1079     1  0.0000000  0.6508444  3
   1072   1075   1078   1080     1  0.0000000  0.6508444  3
   1073   1072   1075   1078     1  0.0000000  0.6508444  3
   1073   1072   1075   1076     1  0.0000000  0.6508444  3
   1073   1072   1075   1077     1  0.0000000  0.6508444  3
   1074   1072   1075   1078     1  0.0000000  0.6508444  3
   1074   1072   1075   1076     1  0.0000000  0.6508444  3
   1074   1072   1075   1077     1  0.0000000  0.6508444  3
   1076   1075   1072   1102     1  0.0000000  1.0460000  1
   1076   1075   1072   1102     1  0.0000000  0.0000000  3
   1076   1075   1078   1081     1  0.0000000  0.6508444  3
   1076   1075   1078   1079     1  0.0000000  0.6508444  3
   1076   1075   1078   1080     1  0.0000000  0.6508444  3
   1077   1075   1072   1102     1  0.0000000  1.0460000  1
   1077   1075   1072   1102     1  0.0000000  0.0000000  3
   1077   1075   1078   1081     1  0.0000000  0.6508444  3
   1077   1075   1078   1079     1  0.0000000  0.6508444  3
   1077   1075   1078   1080     1  0.0000000  0.6508444  3
   1078   1081   1082   1083     1  0.0000000  1.2552000  3
   1078   1081   1082   1084     1  0.0000000  1.2552000  3
   1078   1081   1092   1093     1  0.0000000  1.2552000  3
   1078   1081   1092   1094     1  0.0000000  1.2552000  3
   1079   1078   1081   1082     1  0.0000000  1.2552000  3
   1079   1078   1081   1092     1  0.0000000  1.2552000  3
   1080   1078   1081   1082     1  0.0000000  1.2552000  3
   1080   1078   1081   1092     1  0.0000000  1.2552000  3
   1081   1082   1085   1086     1  0.0000000  0.6508444  3
   1081   1082   1085   1087     1  0.0000000  0.6508444  3
   1081   1092   1095   1096     1  0.0000000  0.6508444  3
   1081   1092   1095   1097     1  0.0000000  0.6508444  3
   1082   1081   1092   1093     1  0.0000000  1.2552000  3
   1082   1081   1092   1094     1  0.0000000  1.2552000  3
   1083   1082   1081   1092     1  0.0000000  1.2552000  3
   1083   1082   1085   1088     1  0.0000000  0.6508444  3
   1083   1082   1085   1086     1  0.0000000  0.6508444  3
   1083   1082   1085   1087     1  0.0000000  0.6508444  3
   1084   1082   1081   1092     1  0.0000000  1.2552000  3
   1084   1082   1085   1088     1  0.0000000  0.6508444  3
   1084   1082   1085   1086     1  0.0000000  0.6508444  3
   1084   1082   1085   1087     1  0.0000000  0.6508444  3
   1085   1088   1090   1091     1  180.0000771  9.6232000  2
   1086   1085   1088   1089     1  0.0000000  3.3472000  1
   1086   1085   1088   1089     1  0.0000000  0.0000000  2
   1086   1085   1088   1089     1  180.0000771  0.3347200  3
   1086   1085   1088   1090     1  180.0000771  0.0000000  2
   1087   1085   1088   1089     1  0.0000000  3.3472000  1
   1087   1085   1088   1089     1  0.0000000  0.0000000  2
   1087   1085   1088   1089     1  180.0000771  0.3347200  3
   1087   1085   1088   1090     1  180.0000771  0.0000000  2
   1089   1088   1090   1091     1  0.0000000  7.9496000  1
   1089   1088   1090   1091     1  180.0000771  9.6232000  2
   1093   1092   1095   1098     1  0.0000000  0.6508444  3
   1093   1092   1095   1096     1  0.0000000  0.6508444  3
   1093   1092   1095   1097     1  0.0000000  0.6508444  3
   1094   1092   1095   1098     1  0.0000000  0.6508444  3
   1094   1092   1095   1096     1  0.0000000  0.6508444  3
   1094   1092   1095   1097     1  0.0000000  0.6508444  3
   1095   1098   1100   1101     1  180.0000771  9.6232000  2
   1096   1095   1098   1099     1  0.0000000  3.3472000  1
   1096   1095   1098   1099     1  0.0000000  0.0000000  2
   1096   1095   1098   1099     1  180.0000771  0.3347200  3
   1096   1095   1098   1100     1  180.0000771  0.0000000  2
   1097   1095   1098   1099     1  0.0000000  3.3472000  1
   1097   1095   1098   1099     1  0.0000000  0.0000000  2
   1097   1095   1098   1099     1  180.0000771  0.3347200  3
   1097   1095   1098   1100     1  180.0000771  0.0000000  2
   1099   1098   1100   1101     1  0.0000000  7.9496000  1
   1099   1098   1100   1101     1  180.0000771  9.6232000  2
   1103   1106   1109   1110     1  0.0000000  0.6508444  3
   1103   1106   1109   1111     1  0.0000000  0.6508444  3
   1104   1103   1106   1109     1  0.0000000  0.6508444  3
   1104   1103   1106   1107     1  0.0000000  0.6508444  3
   1104   1103   1106   1108     1  0.0000000  0.6508444  3
   1105   1103   1106   1109     1  0.0000000  0.6508444  3
   1105   1103   1106   1107     1  0.0000000  0.6508444  3
   1105   1103   1106   1108     1  0.0000000  0.6508444  3
   1107   1106   1109   1112     1  0.0000000  0.6508444  3
   1107   1106   1109   1110     1  0.0000000  0.6508444  3
   1107   1106   1109   1111     1  0.0000000  0.6508444  3
   1107   1106   1103   1133     1  0.0000000  1.0460000  1
   1107   1106   1103   1133     1  0.0000000  0.0000000  3
   1108   1106   1109   1112     1  0.0000000  0.6508444  3
   1108   1106   1109   1110     1  0.0000000  0.6508444  3
   1108   1106   1109   1111     1  0.0000000  0.6508444  3
   1108   1106   1103   1133     1  0.0000000  1.0460000  1
   1108   1106   1103   1133     1  0.0000000  0.0000000  3
   1109   1112   1113   1114     1  0.0000000  1.2552000  3
   1109   1112   1113   1115     1  0.0000000  1.2552000  3
   1109   1112   1123   1124     1  0.0000000  1.2552000  3
   1109   1112   1123   1125     1  0.0000000  1.2552000  3
   1110   1109   1112   1113     1  0.0000000  1.2552000  3
   1110   1109   1112   1123     1  0.0000000  1.2552000  3
   1111   1109   1112   1113     1  0.0000000  1.2552000  3
   1111   1109   1112   1123     1  0.0000000  1.2552000  3
   1112   1113   1116   1117     1  0.0000000  0.6508444  3
   1112   1113   1116   1118     1  0.0000000  0.6508444  3
   1112   1123   1126   1127     1  0.0000000  0.6508444  3
   1112   1123   1126   1128     1  0.0000000  0.6508444  3
   1113   1112   1123   1124     1  0.0000000  1.2552000  3
   1113   1112   1123   1125     1  0.0000000  1.2552000  3
   1114   1113   1116   1119     1  0.0000000  0.6508444  3
   1114   1113   1116   1117     1  0.0000000  0.6508444  3
   1114   1113   1116   1118     1  0.0000000  0.6508444  3
   1114   1113   1112   1123     1  0.0000000  1.2552000  3
   1115   1113   1116   1119     1  0.0000000  0.6508444  3
   1115   1113   1116   1117     1  0.0000000  0.6508444  3
   1115   1113   1116   1118     1  0.0000000  0.6508444  3
   1115   1113   1112   1123     1  0.0000000  1.2552000  3
   1116   1119   1121   1122     1  180.0000771  9.6232000  2
   1117   1116   1119   1120     1  0.0000000  3.3472000  1
   1117   1116   1119   1120     1  0.0000000  0.0000000  2
   1117   1116   1119   1120     1  180.0000771  0.3347200  3
   1117   1116   1119   1121     1  180.0000771  0.0000000  2
   1118   1116   1119   1120     1  0.0000000  3.3472000  1
   1118   1116   1119   1120     1  0.0000000  0.0000000  2
   1118   1116   1119   1120     1  180.0000771  0.3347200  3
   1118   1116   1119   1121     1  180.0000771  0.0000000  2
   1120   1119   1121   1122     1  0.0000000  7.9496000  1
   1120   1119   1121   1122     1  180.0000771  9.6232000  2
   1124   1123   1126   1129     1  0.0000000  0.6508444  3
   1124   1123   1126   1127     1  0.0000000  0.6508444  3
   1124   1123   1126   1128     1  0.0000000  0.6508444  3
   1125   1123   1126   1129     1  0.0000000  0.6508444  3
   1125   1123   1126   1127     1  0.0000000  0.6508444  3
   1125   1123   1126   1128     1  0.0000000  0.6508444  3
   1126   1129   1131   1132     1  180.0000771  9.6232000  2
   1127   1126   1129   1130     1  0.0000000  3.3472000  1
   1127   1126   1129   1130     1  0.0000000  0.0000000  2
   1127   1126   1129   1130     1  180.0000771  0.3347200  3
   1127   1126   1129   1131     1  180.0000771  0.0000000  2
   1128   1126   1129   1130     1  0.0000000  3.3472000  1
   1128   1126   1129   1130     1  0.0000000  0.0000000  2
   1128   1126   1129   1130     1  180.0000771  0.3347200  3
   1128   1126   1129   1131     1  180.0000771  0.0000000  2
   1130   1129   1131   1132     1  0.0000000  7.9496000  1
   1130   1129   1131   1132     1  180.0000771  9.6232000  2
   1134   1137   1140   1141     1  0.0000000  0.6508444  3
   1134   1137   1140   1142     1  0.0000000  0.6508444  3
   1135   1134   1137   1140     1  0.0000000  0.6508444  3
   1135   1134   1137   1138     1  0.0000000  0.6508444  3
   1135   1134   1137   1139     1  0.0000000  0.6508444  3
   1136   1134   1137   1140     1  0.0000000  0.6508444  3
   1136   1134   1137   1138     1  0.0000000  0.6508444  3
   1136   1134   1137   1139     1  0.0000000  0.6508444  3
   1138   1137   1134   1164     1  0.0000000  1.0460000  1
   1138   1137   1134   1164     1  0.0000000  0.0000000  3
   1138   1137   1140   1143     1  0.0000000  0.6508444  3
   1138   1137   1140   1141     1  0.0000000  0.6508444  3
   1138   1137   1140   1142     1  0.0000000  0.6508444  3
   1139   1137   1134   1164     1  0.0000000  1.0460000  1
   1139   1137   1134   1164     1  0.0000000  0.0000000  3
   1139   1137   1140   1143     1  0.0000000  0.6508444  3
   1139   1137   1140   1141     1  0.0000000  0.6508444  3
   1139   1137   1140   1142     1  0.0000000  0.6508444  3
   1140   1143   1144   1145     1  0.0000000  1.2552000  3
   1140   1143   1144   1146     1  0.0000000  1.2552000  3
   1140   1143   1154   1155     1  0.0000000  1.2552000  3
   1140   1143   1154   1156     1  0.0000000  1.2552000  3
   1141   1140   1143   1144     1  0.0000000  1.2552000  3
   1141   1140   1143   1154     1  0.0000000  1.2552000  3
   1142   1140   1143   1144     1  0.0000000  1.2552000  3
   1142   1140   1143   1154     1  0.0000000  1.2552000  3
   1143   1144   1147   1148     1  0.0000000  0.6508444  3
   1143   1144   1147   1149     1  0.0000000  0.6508444  3
   1143   1154   1157   1158     1  0.0000000  0.6508444  3
   1143   1154   1157   1159     1  0.0000000  0.6508444  3
   1144   1143   1154   1155     1  0.0000000  1.2552000  3
   1144   1143   1154   1156     1  0.0000000  1.2552000  3
   1145   1144   1143   1154     1  0.0000000  1.2552000  3
   1145   1144   1147   1150     1  0.0000000  0.6508444  3
   1145   1144   1147   1148     1  0.0000000  0.6508444  3
   1145   1144   1147   1149     1  0.0000000  0.6508444  3
   1146   1144   1143   1154     1  0.0000000  1.2552000  3
   1146   1144   1147   1150     1  0.0000000  0.6508444  3
   1146   1144   1147   1148     1  0.0000000  0.6508444  3
   1146   1144   1147   1149     1  0.0000000  0.6508444  3
   1147   1150   1152   1153     1  180.0000771  9.6232000  2
   1148   1147   1150   1151     1  0.0000000  3.3472000  1
   1148   1147   1150   1151     1  0.0000000  0.0000000  2
   1148   1147   1150   1151     1  180.0000771  0.3347200  3
   1148   1147   1150   1152     1  180.0000771  0.0000000  2
   1149   1147   1150   1151     1  0.0000000  3.3472000  1
   1149   1147   1150   1151     1  0.0000000  0.0000000  2
   1149   1147   1150   1151     1  180.0000771  0.3347200  3
   1149   1147   1150   1152     1  180.0000771  0.0000000  2
   1151   1150   1152   1153     1  0.0000000  7.9496000  1
   1151   1150   1152   1153     1  180.0000771  9.6232000  2
   1155   1154   1157   1160     1  0.0000000  0.6508444  3
   1155   1154   1157   1158     1  0.0000000  0.6508444  3
   1155   1154   1157   1159     1  0.0000000  0.6508444  3
   1156   1154   1157   1160     1  0.0000000  0.6508444  3
   1156   1154   1157   1158     1  0.0000000  0.6508444  3
   1156   1154   1157   1159     1  0.0000000  0.6508444  3
   1157   1160   1162   1163     1  180.0000771  9.6232000  2
   1158   1157   1160   1161     1  0.0000000  3.3472000  1
   1158   1157   1160   1161     1  0.0000000  0.0000000  2
   1158   1157   1160   1161     1  180.0000771  0.3347200  3
   1158   1157   1160   1162     1  180.0000771  0.0000000  2
   1159   1157   1160   1161     1  0.0000000  3.3472000  1
   1159   1157   1160   1161     1  0.0000000  0.0000000  2
   1159   1157   1160   1161     1  180.0000771  0.3347200  3
   1159   1157   1160   1162     1  180.0000771  0.0000000  2
   1161   1160   1162   1163     1  0.0000000  7.9496000  1
   1161   1160   1162   1163     1  180.0000771  9.6232000  2
   1165   1168   1171   1172     1  0.0000000  0.6508444  3
   1165   1168   1171   1173     1  0.0000000  0.6508444  3
   1166   1165   1168   1171     1  0.0000000  0.6508444  3
   1166   1165   1168   1169     1  0.0000000  0.6508444  3
   1166   1165   1168   1170     1  0.0000000  0.6508444  3
   1167   1165   1168   1171     1  0.0000000  0.6508444  3
   1167   1165   1168   1169     1  0.0000000  0.6508444  3
   1167   1165   1168   1170     1  0.0000000  0.6508444  3
   1169   1168   1171   1174     1  0.0000000  0.6508444  3
   1169   1168   1171   1172     1  0.0000000  0.6508444  3
   1169   1168   1171   1173     1  0.0000000  0.6508444  3
   1169   1168   1165   1195     1  0.0000000  1.0460000  1
   1169   1168   1165   1195     1  0.0000000  0.0000000  3
   1170   1168   1171   1174     1  0.0000000  0.6508444  3
   1170   1168   1171   1172     1  0.0000000  0.6508444  3
   1170   1168   1171   1173     1  0.0000000  0.6508444  3
   1170   1168   1165   1195     1  0.0000000  1.0460000  1
   1170   1168   1165   1195     1  0.0000000  0.0000000  3
   1171   1174   1175   1176     1  0.0000000  1.2552000  3
   1171   1174   1175   1177     1  0.0000000  1.2552000  3
   1171   1174   1185   1186     1  0.0000000  1.2552000  3
   1171   1174   1185   1187     1  0.0000000  1.2552000  3
   1172   1171   1174   1175     1  0.0000000  1.2552000  3
   1172   1171   1174   1185     1  0.0000000  1.2552000  3
   1173   1171   1174   1175     1  0.0000000  1.2552000  3
   1173   1171   1174   1185     1  0.0000000  1.2552000  3
   1174   1175   1178   1179     1  0.0000000  0.6508444  3
   1174   1175   1178   1180     1  0.0000000  0.6508444  3
   1174   1185   1188   1189     1  0.0000000  0.6508444  3
   1174   1185   1188   1190     1  0.0000000  0.6508444  3
   1175   1174   1185   1186     1  0.0000000  1.2552000  3
   1175   1174   1185   1187     1  0.0000000  1.2552000  3
   1176   1175   1178   1181     1  0.0000000  0.6508444  3
   1176   1175   1178   1179     1  0.0000000  0.6508444  3
   1176   1175   1178   1180     1  0.0000000  0.6508444  3
   1176   1175   1174   1185     1  0.0000000  1.2552000  3
   1177   1175   1178   1181     1  0.0000000  0.6508444  3
   1177   1175   1178   1179     1  0.0000000  0.6508444  3
   1177   1175   1178   1180     1  0.0000000  0.6508444  3
   1177   1175   1174   1185     1  0.0000000  1.2552000  3
   1178   1181   1183   1184     1  180.0000771  9.6232000  2
   1179   1178   1181   1182     1  0.0000000  3.3472000  1
   1179   1178   1181   1182     1  0.0000000  0.0000000  2
   1179   1178   1181   1182     1  180.0000771  0.3347200  3
   1179   1178   1181   1183     1  180.0000771  0.0000000  2
   1180   1178   1181   1182     1  0.0000000  3.3472000  1
   1180   1178   1181   1182     1  0.0000000  0.0000000  2
   1180   1178   1181   1182     1  180.0000771  0.3347200  3
   1180   1178   1181   1183     1  180.0000771  0.0000000  2
   1182   1181   1183   1184     1  0.0000000  7.9496000  1
   1182   1181   1183   1184     1  180.0000771  9.6232000  2
   1186   1185   1188   1191     1  0.0000000  0.6508444  3
   1186   1185   1188   1189     1  0.0000000  0.6508444  3
   1186   1185   1188   1190     1  0.0000000  0.6508444  3
   1187   1185   1188   1191     1  0.0000000  0.6508444  3
   1187   1185   1188   1189     1  0.0000000  0.6508444  3
   1187   1185   1188   1190     1  0.0000000  0.6508444  3
   1188   1191   1193   1194     1  180.0000771  9.6232000  2
   1189   1188   1191   1192     1  0.0000000  3.3472000  1
   1189   1188   1191   1192     1  0.0000000  0.0000000  2
   1189   1188   1191   1192     1  180.0000771  0.3347200  3
   1189   1188   1191   1193     1  180.0000771  0.0000000  2
   1190   1188   1191   1192     1  0.0000000  3.3472000  1
   1190   1188   1191   1192     1  0.0000000  0.0000000  2
   1190   1188   1191   1192     1  180.0000771  0.3347200  3
   1190   1188   1191   1193     1  180.0000771  0.0000000  2
   1192   1191   1193   1194     1  0.0000000  7.9496000  1
   1192   1191   1193   1194     1  180.0000771  9.6232000  2
   1196   1199   1202   1203     1  0.0000000  0.6508444  3
   1196   1199   1202   1204     1  0.0000000  0.6508444  3
   1197   1196   1199   1202     1  0.0000000  0.6508444  3
   1197   1196   1199   1200     1  0.0000000  0.6508444  3
   1197   1196   1199   1201     1  0.0000000  0.6508444  3
   1198   1196   1199   1202     1  0.0000000  0.6508444  3
   1198   1196   1199   1200     1  0.0000000  0.6508444  3
   1198   1196   1199   1201     1  0.0000000  0.6508444  3
   1200   1199   1196   1226     1  0.0000000  1.0460000  1
   1200   1199   1196   1226     1  0.0000000  0.0000000  3
   1200   1199   1202   1205     1  0.0000000  0.6508444  3
   1200   1199   1202   1203     1  0.0000000  0.6508444  3
   1200   1199   1202   1204     1  0.0000000  0.6508444  3
   1201   1199   1196   1226     1  0.0000000  1.0460000  1
   1201   1199   1196   1226     1  0.0000000  0.0000000  3
   1201   1199   1202   1205     1  0.0000000  0.6508444  3
   1201   1199   1202   1203     1  0.0000000  0.6508444  3
   1201   1199   1202   1204     1  0.0000000  0.6508444  3
   1202   1205   1206   1207     1  0.0000000  1.2552000  3
   1202   1205   1206   1208     1  0.0000000  1.2552000  3
   1202   1205   1216   1217     1  0.0000000  1.2552000  3
   1202   1205   1216   1218     1  0.0000000  1.2552000  3
   1203   1202   1205   1206     1  0.0000000  1.2552000  3
   1203   1202   1205   1216     1  0.0000000  1.2552000  3
   1204   1202   1205   1206     1  0.0000000  1.2552000  3
   1204   1202   1205   1216     1  0.0000000  1.2552000  3
   1205   1206   1209   1210     1  0.0000000  0.6508444  3
   1205   1206   1209   1211     1  0.0000000  0.6508444  3
   1205   1216   1219   1220     1  0.0000000  0.6508444  3
   1205   1216   1219   1221     1  0.0000000  0.6508444  3
   1206   1205   1216   1217     1  0.0000000  1.2552000  3
   1206   1205   1216   1218     1  0.0000000  1.2552000  3
   1207   1206   1205   1216     1  0.0000000  1.2552000  3
   1207   1206   1209   1212     1  0.0000000  0.6508444  3
   1207   1206   1209   1210     1  0.0000000  0.6508444  3
   1207   1206   1209   1211     1  0.0000000  0.6508444  3
   1208   1206   1205   1216     1  0.0000000  1.2552000  3
   1208   1206   1209   1212     1  0.0000000  0.6508444  3
   1208   1206   1209   1210     1  0.0000000  0.6508444  3
   1208   1206   1209   1211     1  0.0000000  0.6508444  3
   1209   1212   1214   1215     1  180.0000771  9.6232000  2
   1210   1209   1212   1213     1  0.0000000  3.3472000  1
   1210   1209   1212   1213     1  0.0000000  0.0000000  2
   1210   1209   1212   1213     1  180.0000771  0.3347200  3
   1210   1209   1212   1214     1  180.0000771  0.0000000  2
   1211   1209   1212   1213     1  0.0000000  3.3472000  1
   1211   1209   1212   1213     1  0.0000000  0.0000000  2
   1211   1209   1212   1213     1  180.0000771  0.3347200  3
   1211   1209   1212   1214     1  180.0000771  0.0000000  2
   1213   1212   1214   1215     1  0.0000000  7.9496000  1
   1213   1212   1214   1215     1  180.0000771  9.6232000  2
   1217   1216   1219   1222     1  0.0000000  0.6508444  3
   1217   1216   1219   1220     1  0.0000000  0.6508444  3
   1217   1216   1219   1221     1  0.0000000  0.6508444  3
   1218   1216   1219   1222     1  0.0000000  0.6508444  3
   1218   1216   1219   1220     1  0.0000000  0.6508444  3
   1218   1216   1219   1221     1  0.0000000  0.6508444  3
   1219   1222   1224   1225     1  180.0000771  9.6232000  2
   1220   1219   1222   1223     1  0.0000000  3.3472000  1
   1220   1219   1222   1223     1  0.0000000  0.0000000  2
   1220   1219   1222   1223     1  180.0000771  0.3347200  3
   1220   1219   1222   1224     1  180.0000771  0.0000000  2
   1221   1219   1222   1223     1  0.0000000  3.3472000  1
   1221   1219   1222   1223     1  0.0000000  0.0000000  2
   1221   1219   1222   1223     1  180.0000771  0.3347200  3
   1221   1219   1222   1224     1  180.0000771  0.0000000  2
   1223   1222   1224   1225     1  0.0000000  7.9496000  1
   1223   1222   1224   1225     1  180.0000771  9.6232000  2
   1227   1230   1233   1234     1  0.0000000  0.6508444  3
   1227   1230   1233   1235     1  0.0000000  0.6508444  3
   1228   1227   1230   1233     1  0.0000000  0.6508444  3
   1228   1227   1230   1231     1  0.0000000  0.6508444  3
   1228   1227   1230   1232     1  0.0000000  0.6508444  3
   1229   1227   1230   1233     1  0.0000000  0.6508444  3
   1229   1227   1230   1231     1  0.0000000  0.6508444  3
   1229   1227   1230   1232     1  0.0000000  0.6508444  3
   1231   1230   1233   1236     1  0.0000000  0.6508444  3
   1231   1230   1233   1234     1  0.0000000  0.6508444  3
   1231   1230   1233   1235     1  0.0000000  0.6508444  3
   1231   1230   1227   1257     1  0.0000000  1.0460000  1
   1231   1230   1227   1257     1  0.0000000  0.0000000  3
   1232   1230   1233   1236     1  0.0000000  0.6508444  3
   1232   1230   1233   1234     1  0.0000000  0.6508444  3
   1232   1230   1233   1235     1  0.0000000  0.6508444  3
   1232   1230   1227   1257     1  0.0000000  1.0460000  1
   1232   1230   1227   1257     1  0.0000000  0.0000000  3
   1233   1236   1237   1238     1  0.0000000  1.2552000  3
   1233   1236   1237   1239     1  0.0000000  1.2552000  3
   1233   1236   1247   1248     1  0.0000000  1.2552000  3
   1233   1236   1247   1249     1  0.0000000  1.2552000  3
   1234   1233   1236   1237     1  0.0000000  1.2552000  3
   1234   1233   1236   1247     1  0.0000000  1.2552000  3
   1235   1233   1236   1237     1  0.0000000  1.2552000  3
   1235   1233   1236   1247     1  0.0000000  1.2552000  3
   1236   1237   1240   1241     1  0.0000000  0.6508444  3
   1236   1237   1240   1242     1  0.0000000  0.6508444  3
   1236   1247   1250   1251     1  0.0000000  0.6508444  3
   1236   1247   1250   1252     1  0.0000000  0.6508444  3
   1237   1236   1247   1248     1  0.0000000  1.2552000  3
   1237   1236   1247   1249     1  0.0000000  1.2552000  3
   1238   1237   1240   1243     1  0.0000000  0.6508444  3
   1238   1237   1240   1241     1  0.0000000  0.6508444  3
   1238   1237   1240   1242     1  0.0000000  0.6508444  3
   1238   1237   1236   1247     1  0.0000000  1.2552000  3
   1239   1237   1240   1243     1  0.0000000  0.6508444  3
   1239   1237   1240   1241     1  0.0000000  0.6508444  3
   1239   1237   1240   1242     1  0.0000000  0.6508444  3
   1239   1237   1236   1247     1  0.0000000  1.2552000  3
   1240   1243   1245   1246     1  180.0000771  9.6232000  2
   1241   1240   1243   1244     1  0.0000000  3.3472000  1
   1241   1240   1243   1244     1  0.0000000  0.0000000  2
   1241   1240   1243   1244     1  180.0000771  0.3347200  3
   1241   1240   1243   1245     1  180.0000771  0.0000000  2
   1242   1240   1243   1244     1  0.0000000  3.3472000  1
   1242   1240   1243   1244     1  0.0000000  0.0000000  2
   1242   1240   1243   1244     1  180.0000771  0.3347200  3
   1242   1240   1243   1245     1  180.0000771  0.0000000  2
   1244   1243   1245   1246     1  0.0000000  7.9496000  1
   1244   1243   1245   1246     1  180.0000771  9.6232000  2
   1248   1247   1250   1253     1  0.0000000  0.6508444  3
   1248   1247   1250   1251     1  0.0000000  0.6508444  3
   1248   1247   1250   1252     1  0.0000000  0.6508444  3
   1249   1247   1250   1253     1  0.0000000  0.6508444  3
   1249   1247   1250   1251     1  0.0000000  0.6508444  3
   1249   1247   1250   1252     1  0.0000000  0.6508444  3
   1250   1253   1255   1256     1  180.0000771  9.6232000  2
   1251   1250   1253   1254     1  0.0000000  3.3472000  1
   1251   1250   1253   1254     1  0.0000000  0.0000000  2
   1251   1250   1253   1254     1  180.0000771  0.3347200  3
   1251   1250   1253   1255     1  180.0000771  0.0000000  2
   1252   1250   1253   1254     1  0.0000000  3.3472000  1
   1252   1250   1253   1254     1  0.0000000  0.0000000  2
   1252   1250   1253   1254     1  180.0000771  0.3347200  3
   1252   1250   1253   1255     1  180.0000771  0.0000000  2
   1254   1253   1255   1256     1  0.0000000  7.9496000  1
   1254   1253   1255   1256     1  180.0000771  9.6232000  2
   1258   1261   1264   1265     1  0.0000000  0.6508444  3
   1258   1261   1264   1266     1  0.0000000  0.6508444  3
   1259   1258   1261   1264     1  0.0000000  0.6508444  3
   1259   1258   1261   1262     1  0.0000000  0.6508444  3
   1259   1258   1261   1263     1  0.0000000  0.6508444  3
   1260   1258   1261   1264     1  0.0000000  0.6508444  3
   1260   1258   1261   1262     1  0.0000000  0.6508444  3
   1260   1258   1261   1263     1  0.0000000  0.6508444  3
   1262   1261   1258   1288     1  0.0000000  1.0460000  1
   1262   1261   1258   1288     1  0.0000000  0.0000000  3
   1262   1261   1264   1267     1  0.0000000  0.6508444  3
   1262   1261   1264   1265     1  0.0000000  0.6508444  3
   1262   1261   1264   1266     1  0.0000000  0.6508444  3
   1263   1261   1258   1288     1  0.0000000  1.0460000  1
   1263   1261   1258   1288     1  0.0000000  0.0000000  3
   1263   1261   1264   1267     1  0.0000000  0.6508444  3
   1263   1261   1264   1265     1  0.0000000  0.6508444  3
   1263   1261   1264   1266     1  0.0000000  0.6508444  3
   1264   1267   1268   1269     1  0.0000000  1.2552000  3
   1264   1267   1268   1270     1  0.0000000  1.2552000  3
   1264   1267   1278   1279     1  0.0000000  1.2552000  3
   1264   1267   1278   1280     1  0.0000000  1.2552000  3
   1265   1264   1267   1268     1  0.0000000  1.2552000  3
   1265   1264   1267   1278     1  0.0000000  1.2552000  3
   1266   1264   1267   1268     1  0.0000000  1.2552000  3
   1266   1264   1267   1278     1  0.0000000  1.2552000  3
   1267   1268   1271   1272     1  0.0000000  0.6508444  3
   1267   1268   1271   1273     1  0.0000000  0.6508444  3
   1267   1278   1281   1282     1  0.0000000  0.6508444  3
   1267   1278   1281   1283     1  0.0000000  0.6508444  3
   1268   1267   1278   1279     1  0.0000000  1.2552000  3
   1268   1267   1278   1280     1  0.0000000  1.2552000  3
   1269   1268   1267   1278     1  0.0000000  1.2552000  3
   1269   1268   1271   1274     1  0.0000000  0.6508444  3
   1269   1268   1271   1272     1  0.0000000  0.6508444  3
   1269   1268   1271   1273     1  0.0000000  0.6508444  3
   1270   1268   1267   1278     1  0.0000000  1.2552000  3
   1270   1268   1271   1274     1  0.0000000  0.6508444  3
   1270   1268   1271   1272     1  0.0000000  0.6508444  3
   1270   1268   1271   1273     1  0.0000000  0.6508444  3
   1271   1274   1276   1277     1  180.0000771  9.6232000  2
   1272   1271   1274   1275     1  0.0000000  3.3472000  1
   1272   1271   1274   1275     1  0.0000000  0.0000000  2
   1272   1271   1274   1275     1  180.0000771  0.3347200  3
   1272   1271   1274   1276     1  180.0000771  0.0000000  2
   1273   1271   1274   1275     1  0.0000000  3.3472000  1
   1273   1271   1274   1275     1  0.0000000  0.0000000  2
   1273   1271   1274   1275     1  180.0000771  0.3347200  3
   1273   1271   1274   1276     1  180.0000771  0.0000000  2
   1275   1274   1276   1277     1  0.0000000  7.9496000  1
   1275   1274   1276   1277     1  180.0000771  9.6232000  2
   1279   1278   1281   1284     1  0.0000000  0.6508444  3
   1279   1278   1281   1282     1  0.0000000  0.6508444  3
   1279   1278   1281   1283     1  0.0000000  0.6508444  3
   1280   1278   1281   1284     1  0.0000000  0.6508444  3
   1280   1278   1281   1282     1  0.0000000  0.6508444  3
   1280   1278   1281   1283     1  0.0000000  0.6508444  3
   1281   1284   1286   1287     1  180.0000771  9.6232000  2
   1282   1281   1284   1285     1  0.0000000  3.3472000  1
   1282   1281   1284   1285     1  0.0000000  0.0000000  2
   1282   1281   1284   1285     1  180.0000771  0.3347200  3
   1282   1281   1284   1286     1  180.0000771  0.0000000  2
   1283   1281   1284   1285     1  0.0000000  3.3472000  1
   1283   1281   1284   1285     1  0.0000000  0.0000000  2
   1283   1281   1284   1285     1  180.0000771  0.3347200  3
   1283   1281   1284   1286     1  180.0000771  0.0000000  2
   1285   1284   1286   1287     1  0.0000000  7.9496000  1
   1285   1284   1286   1287     1  180.0000771  9.6232000  2
   1289   1292   1295   1296     1  0.0000000  0.6508444  3
   1289   1292   1295   1297     1  0.0000000  0.6508444  3
   1290   1289   1292   1295     1  0.0000000  0.6508444  3
   1290   1289   1292   1293     1  0.0000000  0.6508444  3
   1290   1289   1292   1294     1  0.0000000  0.6508444  3
   1291   1289   1292   1295     1  0.0000000  0.6508444  3
   1291   1289   1292   1293     1  0.0000000  0.6508444  3
   1291   1289   1292   1294     1  0.0000000  0.6508444  3
   1293   1292   1295   1298     1  0.0000000  0.6508444  3
   1293   1292   1295   1296     1  0.0000000  0.6508444  3
   1293   1292   1295   1297     1  0.0000000  0.6508444  3
   1293   1292   1289   1319     1  0.0000000  1.0460000  1
   1293   1292   1289   1319     1  0.0000000  0.0000000  3
   1294   1292   1295   1298     1  0.0000000  0.6508444  3
   1294   1292   1295   1296     1  0.0000000  0.6508444  3
   1294   1292   1295   1297     1  0.0000000  0.6508444  3
   1294   1292   1289   1319     1  0.0000000  1.0460000  1
   1294   1292   1289   1319     1  0.0000000  0.0000000  3
   1295   1298   1299   1300     1  0.0000000  1.2552000  3
   1295   1298   1299   1301     1  0.0000000  1.2552000  3
   1295   1298   1309   1310     1  0.0000000  1.2552000  3
   1295   1298   1309   1311     1  0.0000000  1.2552000  3
   1296   1295   1298   1299     1  0.0000000  1.2552000  3
   1296   1295   1298   1309     1  0.0000000  1.2552000  3
   1297   1295   1298   1299     1  0.0000000  1.2552000  3
   1297   1295   1298   1309     1  0.0000000  1.2552000  3
   1298   1299   1302   1303     1  0.0000000  0.6508444  3
   1298   1299   1302   1304     1  0.0000000  0.6508444  3
   1298   1309   1312   1313     1  0.0000000  0.6508444  3
   1298   1309   1312   1314     1  0.0000000  0.6508444  3
   1299   1298   1309   1310     1  0.0000000  1.2552000  3
   1299   1298   1309   1311     1  0.0000000  1.2552000  3
   1300   1299   1302   1305     1  0.0000000  0.6508444  3
   1300   1299   1302   1303     1  0.0000000  0.6508444  3
   1300   1299   1302   1304     1  0.0000000  0.6508444  3
   1300   1299   1298   1309     1  0.0000000  1.2552000  3
   1301   1299   1302   1305     1  0.0000000  0.6508444  3
   1301   1299   1302   1303     1  0.0000000  0.6508444  3
   1301   1299   1302   1304     1  0.0000000  0.6508444  3
   1301   1299   1298   1309     1  0.0000000  1.2552000  3
   1302   1305   1307   1308     1  180.0000771  9.6232000  2
   1303   1302   1305   1306     1  0.0000000  3.3472000  1
   1303   1302   1305   1306     1  0.0000000  0.0000000  2
   1303   1302   1305   1306     1  180.0000771  0.3347200  3
   1303   1302   1305   1307     1  180.0000771  0.0000000  2
   1304   1302   1305   1306     1  0.0000000  3.3472000  1
   1304   1302   1305   1306     1  0.0000000  0.0000000  2
   1304   1302   1305   1306     1  180.0000771  0.3347200  3
   1304   1302   1305   1307     1  180.0000771  0.0000000  2
   1306   1305   1307   1308     1  0.0000000  7.9496000  1
   1306   1305   1307   1308     1  180.0000771  9.6232000  2
   1310   1309   1312   1315     1  0.0000000  0.6508444  3
   1310   1309   1312   1313     1  0.0000000  0.6508444  3
   1310   1309   1312   1314     1  0.0000000  0.6508444  3
   1311   1309   1312   1315     1  0.0000000  0.6508444  3
   1311   1309   1312   1313     1  0.0000000  0.6508444  3
   1311   1309   1312   1314     1  0.0000000  0.6508444  3
   1312   1315   1317   1318     1  180.0000771  9.6232000  2
   1313   1312   1315   1316     1  0.0000000  3.3472000  1
   1313   1312   1315   1316     1  0.0000000  0.0000000  2
   1313   1312   1315   1316     1  180.0000771  0.3347200  3
   1313   1312   1315   1317     1  180.0000771  0.0000000  2
   1314   1312   1315   1316     1  0.0000000  3.3472000  1
   1314   1312   1315   1316     1  0.0000000  0.0000000  2
   1314   1312   1315   1316     1  180.0000771  0.3347200  3
   1314   1312   1315   1317     1  180.0000771  0.0000000  2
   1316   1315   1317   1318     1  0.0000000  7.9496000  1
   1316   1315   1317   1318     1  180.0000771  9.6232000  2
   1320   1323   1326   1327     1  0.0000000  0.6508444  3
   1320   1323   1326   1328     1  0.0000000  0.6508444  3
   1321   1320   1323   1326     1  0.0000000  0.6508444  3
   1321   1320   1323   1324     1  0.0000000  0.6508444  3
   1321   1320   1323   1325     1  0.0000000  0.6508444  3
   1322   1320   1323   1326     1  0.0000000  0.6508444  3
   1322   1320   1323   1324     1  0.0000000  0.6508444  3
   1322   1320   1323   1325     1  0.0000000  0.6508444  3
   1324   1323   1320   1350     1  0.0000000  1.0460000  1
   1324   1323   1320   1350     1  0.0000000  0.0000000  3
   1324   1323   1326   1329     1  0.0000000  0.6508444  3
   1324   1323   1326   1327     1  0.0000000  0.6508444  3
   1324   1323   1326   1328     1  0.0000000  0.6508444  3
   1325   1323   1320   1350     1  0.0000000  1.0460000  1
   1325   1323   1320   1350     1  0.0000000  0.0000000  3
   1325   1323   1326   1329     1  0.0000000  0.6508444  3
   1325   1323   1326   1327     1  0.0000000  0.6508444  3
   1325   1323   1326   1328     1  0.0000000  0.6508444  3
   1326   1329   1330   1331     1  0.0000000  1.2552000  3
   1326   1329   1330   1332     1  0.0000000  1.2552000  3
   1326   1329   1340   1341     1  0.0000000  1.2552000  3
   1326   1329   1340   1342     1  0.0000000  1.2552000  3
   1327   1326   1329   1330     1  0.0000000  1.2552000  3
   1327   1326   1329   1340     1  0.0000000  1.2552000  3
   1328   1326   1329   1330     1  0.0000000  1.2552000  3
   1328   1326   1329   1340     1  0.0000000  1.2552000  3
   1329   1330   1333   1334     1  0.0000000  0.6508444  3
   1329   1330   1333   1335     1  0.0000000  0.6508444  3
   1329   1340   1343   1344     1  0.0000000  0.6508444  3
   1329   1340   1343   1345     1  0.0000000  0.6508444  3
   1330   1329   1340   1341     1  0.0000000  1.2552000  3
   1330   1329   1340   1342     1  0.0000000  1.2552000  3
   1331   1330   1329   1340     1  0.0000000  1.2552000  3
   1331   1330   1333   1336     1  0.0000000  0.6508444  3
   1331   1330   1333   1334     1  0.0000000  0.6508444  3
   1331   1330   1333   1335     1  0.0000000  0.6508444  3
   1332   1330   1329   1340     1  0.0000000  1.2552000  3
   1332   1330   1333   1336     1  0.0000000  0.6508444  3
   1332   1330   1333   1334     1  0.0000000  0.6508444  3
   1332   1330   1333   1335     1  0.0000000  0.6508444  3
   1333   1336   1338   1339     1  180.0000771  9.6232000  2
   1334   1333   1336   1337     1  0.0000000  3.3472000  1
   1334   1333   1336   1337     1  0.0000000  0.0000000  2
   1334   1333   1336   1337     1  180.0000771  0.3347200  3
   1334   1333   1336   1338     1  180.0000771  0.0000000  2
   1335   1333   1336   1337     1  0.0000000  3.3472000  1
   1335   1333   1336   1337     1  0.0000000  0.0000000  2
   1335   1333   1336   1337     1  180.0000771  0.3347200  3
   1335   1333   1336   1338     1  180.0000771  0.0000000  2
   1337   1336   1338   1339     1  0.0000000  7.9496000  1
   1337   1336   1338   1339     1  180.0000771  9.6232000  2
   1341   1340   1343   1346     1  0.0000000  0.6508444  3
   1341   1340   1343   1344     1  0.0000000  0.6508444  3
   1341   1340   1343   1345     1  0.0000000  0.6508444  3
   1342   1340   1343   1346     1  0.0000000  0.6508444  3
   1342   1340   1343   1344     1  0.0000000  0.6508444  3
   1342   1340   1343   1345     1  0.0000000  0.6508444  3
   1343   1346   1348   1349     1  180.0000771  9.6232000  2
   1344   1343   1346   1347     1  0.0000000  3.3472000  1
   1344   1343   1346   1347     1  0.0000000  0.0000000  2
   1344   1343   1346   1347     1  180.0000771  0.3347200  3
   1344   1343   1346   1348     1  180.0000771  0.0000000  2
   1345   1343   1346   1347     1  0.0000000  3.3472000  1
   1345   1343   1346   1347     1  0.0000000  0.0000000  2
   1345   1343   1346   1347     1  180.0000771  0.3347200  3
   1345   1343   1346   1348     1  180.0000771  0.0000000  2
   1347   1346   1348   1349     1  0.0000000  7.9496000  1
   1347   1346   1348   1349     1  180.0000771  9.6232000  2
   1351   1354   1357   1358     1  0.0000000  0.6508444  3
   1351   1354   1357   1359     1  0.0000000  0.6508444  3
   1352   1351   1354   1357     1  0.0000000  0.6508444  3
   1352   1351   1354   1355     1  0.0000000  0.6508444  3
   1352   1351   1354   1356     1  0.0000000  0.6508444  3
   1353   1351   1354   1357     1  0.0000000  0.6508444  3
   1353   1351   1354   1355     1  0.0000000  0.6508444  3
   1353   1351   1354   1356     1  0.0000000  0.6508444  3
   1355   1354   1357   1360     1  0.0000000  0.6508444  3
   1355   1354   1357   1358     1  0.0000000  0.6508444  3
   1355   1354   1357   1359     1  0.0000000  0.6508444  3
   1355   1354   1351   1381     1  0.0000000  1.0460000  1
   1355   1354   1351   1381     1  0.0000000  0.0000000  3
   1356   1354   1357   1360     1  0.0000000  0.6508444  3
   1356   1354   1357   1358     1  0.0000000  0.6508444  3
   1356   1354   1357   1359     1  0.0000000  0.6508444  3
   1356   1354   1351   1381     1  0.0000000  1.0460000  1
   1356   1354   1351   1381     1  0.0000000  0.0000000  3
   1357   1360   1361   1362     1  0.0000000  1.2552000  3
   1357   1360   1361   1363     1  0.0000000  1.2552000  3
   1357   1360   1371   1372     1  0.0000000  1.2552000  3
   1357   1360   1371   1373     1  0.0000000  1.2552000  3
   1358   1357   1360   1361     1  0.0000000  1.2552000  3
   1358   1357   1360   1371     1  0.0000000  1.2552000  3
   1359   1357   1360   1361     1  0.0000000  1.2552000  3
   1359   1357   1360   1371     1  0.0000000  1.2552000  3
   1360   1361   1364   1365     1  0.0000000  0.6508444  3
   1360   1361   1364   1366     1  0.0000000  0.6508444  3
   1360   1371   1374   1375     1  0.0000000  0.6508444  3
   1360   1371   1374   1376     1  0.0000000  0.6508444  3
   1361   1360   1371   1372     1  0.0000000  1.2552000  3
   1361   1360   1371   1373     1  0.0000000  1.2552000  3
   1362   1361   1364   1367     1  0.0000000  0.6508444  3
   1362   1361   1364   1365     1  0.0000000  0.6508444  3
   1362   1361   1364   1366     1  0.0000000  0.6508444  3
   1362   1361   1360   1371     1  0.0000000  1.2552000  3
   1363   1361   1364   1367     1  0.0000000  0.6508444  3
   1363   1361   1364   1365     1  0.0000000  0.6508444  3
   1363   1361   1364   1366     1  0.0000000  0.6508444  3
   1363   1361   1360   1371     1  0.0000000  1.2552000  3
   1364   1367   1369   1370     1  180.0000771  9.6232000  2
   1365   1364   1367   1368     1  0.0000000  3.3472000  1
   1365   1364   1367   1368     1  0.0000000  0.0000000  2
   1365   1364   1367   1368     1  180.0000771  0.3347200  3
   1365   1364   1367   1369     1  180.0000771  0.0000000  2
   1366   1364   1367   1368     1  0.0000000  3.3472000  1
   1366   1364   1367   1368     1  0.0000000  0.0000000  2
   1366   1364   1367   1368     1  180.0000771  0.3347200  3
   1366   1364   1367   1369     1  180.0000771  0.0000000  2
   1368   1367   1369   1370     1  0.0000000  7.9496000  1
   1368   1367   1369   1370     1  180.0000771  9.6232000  2
   1372   1371   1374   1377     1  0.0000000  0.6508444  3
   1372   1371   1374   1375     1  0.0000000  0.6508444  3
   1372   1371   1374   1376     1  0.0000000  0.6508444  3
   1373   1371   1374   1377     1  0.0000000  0.6508444  3
   1373   1371   1374   1375     1  0.0000000  0.6508444  3
   1373   1371   1374   1376     1  0.0000000  0.6508444  3
   1374   1377   1379   1380     1  180.0000771  9.6232000  2
   1375   1374   1377   1378     1  0.0000000  3.3472000  1
   1375   1374   1377   1378     1  0.0000000  0.0000000  2
   1375   1374   1377   1378     1  180.0000771  0.3347200  3
   1375   1374   1377   1379     1  180.0000771  0.0000000  2
   1376   1374   1377   1378     1  0.0000000  3.3472000  1
   1376   1374   1377   1378     1  0.0000000  0.0000000  2
   1376   1374   1377   1378     1  180.0000771  0.3347200  3
   1376   1374   1377   1379     1  180.0000771  0.0000000  2
   1378   1377   1379   1380     1  0.0000000  7.9496000  1
   1378   1377   1379   1380     1  180.0000771  9.6232000  2

;[ system ]
;; Name
;Generic title
;
;[ molecules ]
;; Compound       #mols
;system1              1
