G3.5ncore-PETIM in water
56975
    1aaa     N1    1   7.352   6.929   2.820 -0.2224  0.2801 -0.2692
    1aaa     C1    2   7.259   7.000   2.720  0.5662  0.1805  0.1219
    1aaa     H1    3   7.180   7.049   2.778 -1.4544 -2.3414 -0.4181
    1aaa     H2    4   7.305   7.077   2.657  2.1917  0.4061  1.5466
    1aaa     C2    5   7.293   6.822   2.906 -0.6016  0.3665  0.0950
    1aaa     H3    6   7.216   6.768   2.849 -0.0916  1.8937 -2.1286
    1aaa     H4    7   7.372   6.752   2.933  0.0286  0.3869 -1.6677
    1aaa     C3    8   7.456   7.011   2.879  0.2014  0.1726 -0.3634
    1aaa     H5    9   7.485   7.079   2.797 -0.5206  1.9714  0.8414
    1aaa     H6   10   7.412   7.074   2.957  2.9475  1.3000  0.3421
    1aaa     C4   11   7.576   6.935   2.944 -0.8391 -0.3951  0.1747
    1aaa     H7   12   7.537   6.914   3.045 -3.2280 -0.3137 -0.6913
    1aaa     H8   13   7.590   6.837   2.896 -2.3258  0.4745 -2.0754
    1aaa     C5   14   7.199   6.898   2.620 -0.3034  0.8336 -0.2643
    1aaa     H9   15   7.278   6.825   2.600  0.1057  1.5556 -1.3217
    1aaa    H10   16   7.116   6.842   2.665  1.0017 -1.0702 -0.2132
    1aaa     C6   17   7.214   6.863   3.036 -0.2319  0.2239  0.2947
    1aaa    H11   18   7.274   6.866   3.128 -0.0840 -1.3319  0.2540
    1aaa    H12   19   7.164   6.960   3.029  0.1611  0.4199  0.1799
    1aaa     C7   20   7.099   6.768   3.065 -0.2228  0.2573  0.5915
    1aaa    H13   21   7.056   6.792   3.163  2.3596  1.1635  1.5417
    1aaa    H14   22   7.015   6.774   2.996 -0.2775 -0.7176  0.5695
    1aaa     C8   23   7.707   7.012   2.948  0.3483 -0.2838 -0.0749
    1aaa    H15   24   7.779   6.958   3.011  1.1253 -0.3089 -0.9764
    1aaa    H16   25   7.744   7.010   2.845 -0.5701 -0.0722 -0.4159
    1aaa     C9   26   7.139   6.968   2.494 -0.2214  0.2911  0.3353
    1aaa    H17   27   7.223   7.014   2.440  0.5399 -0.3438  0.9620
    1aaa    H18   28   7.087   6.891   2.437  0.7524 -2.7363  3.3714
    2bbb     N1   29   7.049   6.387   2.702  0.0965  0.0079 -0.0661
    2bbb     C1   30   6.908   6.423   2.672 -0.1895  0.6504  0.2260
    2bbb     H1   31   6.910   6.531   2.652 -1.2066  1.1667  2.6628
    2bbb     H2   32   6.835   6.403   2.752  0.3528 -4.1009 -0.3316
    2bbb     C2   33   7.147   6.377   2.590  1.1601  0.7529  0.6617
    2bbb     H3   34   7.121   6.303   2.513  0.3205  2.3405 -0.6082
    2bbb     H4   35   7.246   6.353   2.628  0.5781 -0.9203  1.1531
    2bbb     C3   36   7.105   6.445   2.825 -0.0496 -0.3208 -0.3891
    2bbb     H5   37   7.159   6.536   2.798  1.1220 -1.7659 -3.1382
    2bbb     H6   38   7.174   6.369   2.865 -0.0324 -1.3715 -2.3281
    2bbb     C4   39   6.996   6.476   2.937 -0.0737 -0.1016 -0.3022
    2bbb     H7   40   6.940   6.384   2.955  1.6096 -1.4962 -1.9306
    2bbb     H8   41   6.940   6.562   2.899 -0.3579 -0.2362 -0.1864
    2bbb     C5   42   6.842   6.353   2.551 -0.5099 -0.1542 -0.4990
    2bbb     H9   43   6.833   6.244   2.562  0.9913 -0.3118 -0.7067
    2bbb    H10   44   6.913   6.351   2.468  1.2019 -1.1136  0.9440
    2bbb     C6   45   7.170   6.515   2.525  0.3822  0.5053 -0.7441
    2bbb    H11   46   7.179   6.585   2.609 -2.3126 -0.2352  0.2207
    2bbb    H12   47   7.082   6.534   2.463 -0.4836 -3.2691 -0.8300
    2bbb     C7   48   7.065   6.523   3.071  0.4640 -0.1823  0.0867
    2bbb    H13   49   7.125   6.437   3.103  1.5595  0.1692 -0.9728
    2bbb    H14   50   6.990   6.549   3.146  0.7270  0.5115  0.1100
    2bbb     C8   51   7.289   6.513   2.430 -0.0050  0.6112 -0.3226
    2bbb    H15   52   7.280   6.425   2.366  1.2084 -0.2586  0.6872
    2bbb    H16   53   7.382   6.501   2.486  0.0780  1.0644 -0.3551
    2bbb     C9   54   6.703   6.409   2.516  0.3225 -0.5033 -0.1172
    2bbb    H17   55   6.650   6.363   2.600 -0.9882  2.1285  0.5480
    2bbb    H18   56   6.657   6.377   2.421  0.4108  2.2430 -1.1194
    2bbb     O1   57   7.150   6.630   3.053  0.0298  0.3058 -0.4996
    3bbb     N1   58   7.451   7.493   3.032  0.9917  0.0908 -0.1666
    3bbb     C1   59   7.534   7.614   3.059  0.0996  0.6721 -0.0156
    3bbb     H1   60   7.581   7.660   2.971  0.8469 -0.4261 -0.2077
    3bbb     H2   61   7.622   7.578   3.114 -1.7553 -1.3018  1.7208
    3bbb     C2   62   7.344   7.522   2.928 -0.4013 -0.6677  0.3730
    3bbb     H3   63   7.283   7.606   2.964 -0.7296 -1.4607  1.6816
    3bbb     H4   64   7.278   7.435   2.918 -1.1702 -0.1393  0.8410
    3bbb     C3   65   7.526   7.379   3.009  0.0182 -0.5057  0.3285
    3bbb     H5   66   7.596   7.400   2.927 -1.3626  3.5209  0.0561
    3bbb     H6   67   7.458   7.298   2.979  0.4449 -0.8982  0.4030
    3bbb     C4   68   7.601   7.325   3.129 -0.4343 -0.3194  0.5696
    3bbb     H7   69   7.542   7.345   3.219 -1.9880 -1.0933 -0.2678
    3bbb     H8   70   7.695   7.378   3.149 -0.0263 -0.8837  0.2039
    3bbb     C5   71   7.467   7.716   3.145 -0.0594  0.0132 -0.4228
    3bbb     H9   72   7.485   7.694   3.251  0.2779  3.4274  0.2959
    3bbb    H10   73   7.362   7.721   3.113  0.2153  2.1121 -1.0532
    3bbb     C6   74   7.404   7.548   2.778  0.2171 -0.7432 -0.0374
    3bbb    H11   75   7.457   7.455   2.757  1.2389 -0.3616  0.8403
    3bbb    H12   76   7.483   7.624   2.781  0.7786 -1.3059 -0.6741
    3bbb     C7   77   7.630   7.171   3.120 -0.8839 -0.4005 -0.0092
    3bbb    H13   78   7.544   7.109   3.150 -0.7516 -0.3850  0.3976
    3bbb    H14   79   7.720   7.153   3.180 -2.1326 -0.4786  1.8891
    3bbb     C8   80   7.291   7.576   2.682  0.0203 -0.3194 -0.3354
    3bbb    H15   81   7.215   7.496   2.681 -0.4309  0.0238  2.7809
    3bbb    H16   82   7.333   7.587   2.581  2.8751  0.1361  0.8534
    3bbb     C9   83   7.519   7.865   3.125  0.5636  0.5437 -0.1155
    3bbb    H17   84   7.625   7.871   3.153 -0.0846 -0.8573  2.8622
    3bbb    H18   85   7.465   7.934   3.191  1.5023  0.9370  0.2584
    3bbb     O1   86   7.683   7.147   2.985  0.3222 -1.0935  0.2283
    4bbb     N1   87   6.877   7.432   2.684 -0.4984 -0.4000  0.5708
    4bbb     C1   88   6.794   7.521   2.590 -0.2411  0.6877  0.4153
    4bbb     H1   89   6.703   7.465   2.567 -0.4828  1.4925 -0.6206
    4bbb     H2   90   6.850   7.554   2.502  0.3399 -0.0294  0.5129
    4bbb     C2   91   6.798   7.362   2.790 -0.4903 -1.0360  0.8058
    4bbb     H3   92   6.735   7.293   2.733 -1.3442  0.4502 -0.0875
    4bbb     H4   93   6.719   7.423   2.836 -0.0575  1.3651 -1.4991
    4bbb     C3   94   6.966   7.345   2.601 -0.0775 -0.4159 -0.2815
    4bbb     H5   95   7.026   7.280   2.665 -0.4683 -1.1307 -0.6337
    4bbb     H6   96   7.030   7.408   2.539  0.0587  0.7070  0.9653
    4bbb     C4   97   6.888   7.254   2.501  0.1254 -0.6196  0.1535
    4bbb     H7   98   6.838   7.312   2.423  0.2112 -1.3325 -0.4392
    4bbb     H8   99   6.818   7.186   2.551 -1.6845  0.6602 -0.5986
    4bbb     C5  100   6.739   7.644   2.672  0.0918  0.3729  0.5765
    4bbb     H9  101   6.831   7.691   2.707 -0.3414  0.5770  1.4692
    4bbb    H10  102   6.676   7.613   2.757  0.4806 -0.7095  0.4764
    4bbb     C6  103   6.882   7.289   2.904 -0.0430 -0.5064  0.6376
    4bbb    H11  104   6.976   7.250   2.864  0.5563  2.3439 -0.8691
    4bbb    H12  105   6.823   7.209   2.950  1.0282 -0.7412  1.6320
    4bbb     C7  106   6.986   7.154   2.436 -0.2533  0.0704 -0.2105
    4bbb    H13  107   7.067   7.208   2.385  2.1081 -1.0694  2.2192
    4bbb    H14  108   6.931   7.089   2.366 -2.0123  0.8554  0.4162
    4bbb     C8  109   6.924   7.389   3.014  0.5928  0.1469  0.5450
    4bbb    H15  110   6.991   7.464   2.969 -0.5193  0.8230  0.0143
    4bbb    H16  111   6.986   7.333   3.086  1.1549 -0.6459 -0.5337
    4bbb     C9  112   6.668   7.743   2.571 -0.2174 -0.1414 -0.5797
    4bbb    H17  113   6.564   7.718   2.548 -0.9306  0.6319  1.6426
    4bbb    H18  114   6.719   7.735   2.475  0.8386 -0.9049  0.0317
    4bbb     O1  115   7.051   7.073   2.532 -0.1863  0.6244 -0.1067
    5bbb     N1  116   7.518   6.968   2.055  0.4107  0.0972  0.3245
    5bbb     C1  117   7.636   6.980   1.964 -0.3330  0.5448  0.0283
    5bbb     H1  118   7.622   7.070   1.903  0.3248  0.4917 -0.2089
    5bbb     H2  119   7.622   6.908   1.882 -0.6502  0.1196  0.4504
    5bbb     C2  120   7.401   7.052   2.005 -0.5004 -0.2861  0.0849
    5bbb     H3  121   7.304   7.006   2.031 -0.6937 -0.1392 -0.3832
    5bbb     H4  122   7.411   7.075   1.899 -0.6888  1.3672  0.4134
    5bbb     C3  123   7.486   6.828   2.092 -0.1535 -0.6543 -0.0239
    5bbb     H5  124   7.578   6.772   2.115  2.1809  1.9058 -2.5768
    5bbb     H6  125   7.432   6.780   2.009 -2.2445 -2.9399  2.5876
    5bbb     C4  126   7.395   6.806   2.214 -0.7908 -0.3791  0.0638
    5bbb     H7  127   7.295   6.845   2.192 -0.2992  0.4517 -0.7087
    5bbb     H8  128   7.426   6.857   2.306 -1.3741 -0.2425  0.1869
    5bbb     C5  129   7.771   6.963   2.032  0.1973 -0.4956 -0.1841
    5bbb     H9  130   7.787   6.860   2.064 -0.1778  0.4554  3.3439
    5bbb    H10  131   7.777   7.024   2.123 -0.1664  2.3357 -1.9638
    5bbb     C6  132   7.405   7.192   2.082 -0.6310  0.5507  0.0628
    5bbb    H11  133   7.325   7.253   2.038 -1.0113  0.9990  1.3581
    5bbb    H12  134   7.491   7.259   2.071 -1.7042  2.0906  0.7819
    5bbb     C7  135   7.382   6.658   2.252 -0.7360 -0.6236  0.1417
    5bbb    H13  136   7.480   6.621   2.283 -0.3312  0.3365  0.0462
    5bbb    H14  137   7.345   6.601   2.166 -1.4746 -1.2786  0.8824
    5bbb     C8  138   7.367   7.181   2.226  0.1827  0.4433 -0.3467
    5bbb    H15  139   7.439   7.112   2.272  0.0529 -0.3675 -1.3374
    5bbb    H16  140   7.268   7.134   2.238  0.4411 -0.3722 -1.3140
    5bbb     C9  141   7.878   7.005   1.931  0.4129  0.1929 -0.8332
    5bbb    H17  142   7.850   6.946   1.843 -0.4600 -1.1716  0.3498
    5bbb    H18  143   7.972   6.962   1.967  0.1615  0.0501 -0.3486
    5bbb     O1  144   7.283   6.644   2.360 -0.6779 -0.0257  0.0908
    6bbb     N1  145   6.528   6.894   2.756 -0.4567 -0.0621 -0.4333
    6bbb     C1  146   6.647   6.984   2.762 -0.2657 -0.1381  0.7320
    6bbb     H1  147   6.602   7.080   2.792 -0.1532  0.8839 -2.2049
    6bbb     H2  148   6.703   7.002   2.669  1.4113  0.7697  1.9044
    6bbb     C2  149   6.401   6.955   2.714  0.2461  0.0249 -0.9801
    6bbb     H3  150   6.398   6.944   2.605 -0.0821 -2.6194 -0.7526
    6bbb     H4  151   6.389   7.057   2.751 -0.2079 -0.8635  1.4478
    6bbb     C3  152   6.556   6.761   2.690  0.0409  0.2563  0.2671
    6bbb     H5  153   6.468   6.698   2.705  0.5362 -0.3891  0.4697
    6bbb     H6  154   6.631   6.700   2.741  0.2146 -1.0752 -1.5174
    6bbb     C4  155   6.588   6.762   2.537  0.6917  0.6159  0.6030
    6bbb     H7  156   6.685   6.808   2.515  1.7837 -1.1173  1.6401
    6bbb     H8  157   6.519   6.829   2.485 -0.3770  0.9557  2.3916
    6bbb     C5  158   6.762   6.931   2.854  0.0366  0.2225  1.1952
    6bbb     H9  159   6.855   6.990   2.845  1.9292 -2.7727  0.4216
    6bbb    H10  160   6.793   6.834   2.813  0.5107  0.2954  1.3764
    6bbb     C6  161   6.276   6.881   2.778 -0.3042 -0.0361 -0.6587
    6bbb    H11  162   6.250   6.790   2.723  0.9859 -0.0356 -1.3043
    6bbb    H12  163   6.187   6.943   2.766 -0.8011 -0.1204  2.2431
    6bbb     C7  164   6.586   6.624   2.478  0.1327 -0.5056  0.3883
    6bbb    H13  165   6.590   6.649   2.372 -0.6737  1.1398  0.7299
    6bbb    H14  166   6.499   6.560   2.502 -0.1715  0.1269  1.0058
    6bbb     C8  167   6.297   6.842   2.923  0.5356 -0.3099 -0.1829
    6bbb    H15  168   6.323   6.934   2.976  0.3689 -0.5116  0.2505
    6bbb    H16  169   6.379   6.771   2.939  2.8202  2.7502  2.2925
    6bbb     C9  170   6.705   6.914   3.001 -0.9091  0.2194  0.4352
    6bbb    H17  171   6.604   6.872   2.993 -0.9772 -0.2713  3.3236
    6bbb    H18  172   6.702   7.009   3.055  0.7117 -0.1616  1.2430
    6bbb     O1  173   6.710   6.553   2.520 -0.4264 -0.0161  0.5503
    7bbb     N1  174   7.000   7.957   2.945  0.2787  0.1015  0.5147
    7bbb     C1  175   6.896   8.051   2.899 -0.0575 -0.1030  0.6773
    7bbb     H1  176   6.806   8.002   2.937 -2.2270  3.1261 -0.0758
    7bbb     H2  177   6.891   8.064   2.790  1.1361  0.8433  0.7261
    7bbb     C2  178   6.997   7.934   3.087  0.3907 -0.0808  0.0434
    7bbb     H3  179   6.916   7.868   3.122  3.4918 -4.1325 -0.0392
    7bbb     H4  180   6.986   8.024   3.149  0.9925 -0.4962  0.7626
    7bbb     C3  181   6.999   7.838   2.863  0.0974  0.4004  0.4327
    7bbb     H5  182   6.904   7.784   2.856  0.5058 -0.1029 -1.9652
    7bbb     H6  183   7.064   7.760   2.905 -1.9849 -0.9561  1.2274
    7bbb     C4  184   7.054   7.871   2.719 -0.0245  0.1873  0.1917
    7bbb     H7  185   7.125   7.954   2.721 -1.2809  1.2452  1.5820
    7bbb     H8  186   6.976   7.919   2.658  0.2540  0.5313  0.1099
    7bbb     C5  187   6.910   8.197   2.956  1.0972  0.9629  0.3767
    7bbb     H9  188   7.012   8.229   2.934  0.1281  3.0597 -1.1673
    7bbb    H10  189   6.892   8.201   3.064 -0.4711  2.1209  0.0763
    7bbb     C6  190   7.130   7.877   3.147 -1.1342 -0.4515 -0.0489
    7bbb    H11  191   7.210   7.947   3.121 -0.8708 -1.3073 -1.5731
    7bbb    H12  192   7.154   7.777   3.109 -1.4632 -0.1576 -1.0321
    7bbb     C7  193   7.113   7.745   2.657 -0.6939 -1.0420  0.1009
    7bbb    H13  194   7.131   7.766   2.551 -0.5364 -0.4988  0.2296
    7bbb    H14  195   7.042   7.662   2.663 -0.6515 -1.1130 -0.4198
    7bbb     C8  196   7.127   7.865   3.306 -0.3916 -0.4796 -0.4931
    7bbb    H15  197   7.225   7.827   3.337 -0.1780  0.0493 -0.5189
    7bbb    H16  198   7.055   7.785   3.328 -1.2440 -0.6136 -3.5687
    7bbb     C9  199   6.810   8.292   2.871 -0.6044 -0.2992 -0.4739
    7bbb    H17  200   6.811   8.394   2.912 -1.1148 -1.1718  1.7975
    7bbb    H18  201   6.704   8.264   2.878 -0.8552  0.7939  0.2735
    7bbb     O1  202   7.232   7.698   2.727  0.1863  0.1715 -0.1405
    8bbb     N1  203   7.471   7.981   2.558  0.1344  0.2186  0.1914
    8bbb     C1  204   7.336   8.035   2.537  0.4858 -0.2590 -0.2998
    8bbb     H1  205   7.308   8.119   2.602 -0.5338 -1.8268  1.3374
    8bbb     H2  206   7.262   7.958   2.560  0.6753 -0.7079 -1.1801
    8bbb     C2  207   7.518   7.896   2.449  0.3134  0.4448 -0.4949
    8bbb     H3  208   7.625   7.874   2.457  0.6923  2.4007  0.0962
    8bbb     H4  209   7.515   7.960   2.361 -0.9009  2.4469  0.9705
    8bbb     C3  210   7.494   7.925   2.689  0.2906  0.2327  0.6337
    8bbb     H5  211   7.593   7.877   2.698 -0.4590 -1.4535  0.0963
    8bbb     H6  212   7.418   7.848   2.708 -1.9196  1.6027 -2.3911
    8bbb     C4  213   7.502   8.042   2.783 -0.2237 -0.1256 -0.9244
    8bbb     H7  214   7.401   8.076   2.810  0.3576 -0.5539  1.9737
    8bbb     H8  215   7.553   8.122   2.728 -0.0878 -0.4994 -1.3421
    8bbb     C5  216   7.287   8.095   2.401 -0.2423  0.6011  0.6719
    8bbb     H9  217   7.302   8.030   2.314  0.2179 -0.1596  1.3046
    8bbb    H10  218   7.328   8.193   2.374 -3.4996  2.1480  1.1423
    8bbb     C6  219   7.445   7.763   2.429  0.3232  0.0453  0.8629
    8bbb    H11  220   7.340   7.794   2.435  0.7021  1.0758  2.4728
    8bbb    H12  221   7.469   7.701   2.516  0.3641 -0.5980  0.3927
    8bbb     C7  222   7.565   8.005   2.923  0.5041 -0.3776 -0.4768
    8bbb    H13  223   7.565   8.098   2.982  1.7200 -0.3681 -0.4890
    8bbb    H14  224   7.670   7.975   2.918  1.2024  1.5011  2.1900
    8bbb     C8  225   7.454   7.700   2.287 -0.2813  0.5634 -0.8227
    8bbb    H15  226   7.418   7.764   2.205  1.7097  0.4883 -1.7731
    8bbb    H16  227   7.382   7.618   2.279  2.3805 -1.8418 -0.8679
    8bbb     C9  228   7.138   8.114   2.397  0.1238 -0.3965 -0.0398
    8bbb    H17  229   7.109   8.205   2.344  1.5509 -0.5741 -1.1761
    8bbb    H18  230   7.101   8.140   2.496  0.1636 -0.5045  0.0033
    8bbb     O1  231   7.487   7.909   2.985  0.0697 -0.5135 -1.0076
    9bbb     N1  232   6.531   7.804   3.131  0.5620  0.0607  0.3890
    9bbb     C1  233   6.410   7.802   3.049 -0.2608  0.0923  0.1886
    9bbb     H1  234   6.339   7.878   3.083  0.4573  1.8703 -2.1420
    9bbb     H2  235   6.360   7.704   3.050  0.8078 -0.5300 -2.1996
    9bbb     C2  236   6.611   7.929   3.129  0.4451 -0.6563 -0.2044
    9bbb     H3  237   6.640   7.946   3.024  1.9754  2.3687  0.6366
    9bbb     H4  238   6.699   7.927   3.194  2.4634  2.1109 -2.6980
    9bbb     C3  239   6.611   7.678   3.112 -1.1522  0.2312 -0.4232
    9bbb     H5  240   6.659   7.672   3.013 -1.9617 -0.1574 -0.7975
    9bbb     H6  241   6.538   7.596   3.111  0.6863 -1.4393  0.9247
    9bbb     C4  242   6.724   7.640   3.213  0.4217 -0.4708  0.0737
    9bbb     H7  243   6.689   7.570   3.289  0.0562  1.8825  2.1312
    9bbb     H8  244   6.763   7.725   3.270  0.8584  0.9082 -2.1916
    9bbb     C5  245   6.419   7.844   2.897 -0.2439  0.2137 -0.0085
    9bbb     H9  246   6.507   7.807   2.844 -1.1581 -0.0842 -1.3459
    9bbb    H10  247   6.434   7.951   2.884  0.9088  0.1172  0.4855
    9bbb     C6  248   6.534   8.044   3.194  0.3091 -0.4378 -0.9312
    9bbb    H11  249   6.497   8.012   3.292  1.5978 -0.7561 -0.5388
    9bbb    H12  250   6.443   8.054   3.134 -0.9175  0.1157  0.9910
    9bbb     C7  251   6.846   7.572   3.151 -0.1312  0.3858 -0.4272
    9bbb    H13  252   6.923   7.529   3.218 -2.0413 -2.2951  0.1282
    9bbb    H14  253   6.895   7.650   3.092  0.7611  1.4363  1.6284
    9bbb     C8  254   6.610   8.177   3.203 -0.8206 -0.1119  0.3760
    9bbb    H15  255   6.674   8.192   3.115  1.8014  0.9790  2.4146
    9bbb    H16  256   6.680   8.180   3.288  0.8105 -1.5685 -0.8816
    9bbb     C9  257   6.298   7.804   2.815  0.3434 -0.6137 -0.0354
    9bbb    H17  258   6.297   7.700   2.782 -0.2433 -0.6050 -0.0625
    9bbb    H18  259   6.304   7.868   2.726 -1.0227  1.1649  1.1125
    9bbb     O1  260   6.812   7.464   3.073  0.2877  0.3556 -0.4097
   10bbb     N1  261   6.498   8.078   2.320  0.5374  0.1309 -0.9509
   10bbb     C1  262   6.474   7.935   2.295  0.2813  0.2487  0.5799
   10bbb     H1  263   6.543   7.882   2.361  1.3224  1.3650  0.4027
   10bbb     H2  264   6.510   7.908   2.195  1.6444  0.5494  0.9831
   10bbb     C2  265   6.455   8.169   2.208 -0.1482  0.6975 -0.3279
   10bbb     H3  266   6.456   8.274   2.239 -5.0336  0.4013  1.3758
   10bbb     H4  267   6.353   8.154   2.169  0.2103  0.0886 -1.0536
   10bbb     C3  268   6.476   8.133   2.455  0.2805  0.5920 -0.1788
   10bbb     H5  269   6.374   8.169   2.469  0.2313  0.8528 -1.1814
   10bbb     H6  270   6.531   8.228   2.463 -0.3080  0.9097  0.1511
   10bbb     C4  271   6.518   8.042   2.574  0.2183 -0.2302 -0.6658
   10bbb     H7  272   6.456   7.951   2.578  0.1469 -0.1932 -0.8821
   10bbb     H8  273   6.503   8.103   2.664 -0.7379 -0.4848 -0.6445
   10bbb     C5  274   6.328   7.876   2.297  0.1857  0.1959  0.1257
   10bbb     H9  275   6.282   7.936   2.217  0.6386 -0.6475 -0.7862
   10bbb    H10  276   6.278   7.889   2.393  1.7984  0.8858  0.8915
   10bbb     C6  277   6.534   8.145   2.079  0.4371 -0.0632 -0.2987
   10bbb    H11  278   6.491   8.211   2.003  0.6646 -0.2118 -0.5608
   10bbb    H12  279   6.518   8.043   2.039 -1.9261  1.1455 -2.5888
   10bbb     C7  280   6.664   8.000   2.575 -0.6796  0.1796  0.4212
   10bbb    H13  281   6.726   8.076   2.623  1.5961  0.2341 -2.5233
   10bbb    H14  282   6.692   7.981   2.471 -0.0233 -0.4869  0.7128
   10bbb     C8  283   6.684   8.176   2.108  0.1070  0.0958 -0.6465
   10bbb    H15  284   6.714   8.126   2.201  0.5531  0.9114 -0.3500
   10bbb    H16  285   6.681   8.285   2.120 -0.6773  0.0022  0.0756
   10bbb     C9  286   6.337   7.729   2.257  0.3729 -0.4284  0.0298
   10bbb    H17  287   6.394   7.726   2.164 -2.5498  0.2310 -1.8314
   10bbb    H18  288   6.233   7.703   2.234  0.7366 -1.0680 -0.9209
   10bbb     O1  289   6.681   7.874   2.648 -0.2032  0.5223 -0.2610
   11bbb     N1  290   7.711   7.175   2.537  0.7327 -0.0251  0.2066
   11bbb     C1  291   7.687   7.037   2.547  0.1556  0.8340 -0.3282
   11bbb     H1  292   7.579   7.017   2.554  0.2831 -0.4609 -1.6510
   11bbb     H2  293   7.752   6.995   2.625 -1.0017 -1.6651 -0.6698
   11bbb     C2  294   7.743   7.236   2.669  0.3124 -0.2770 -0.2726
   11bbb     H3  295   7.817   7.179   2.727  2.9007  2.3569 -0.8474
   11bbb     H4  296   7.652   7.244   2.730  0.6273 -1.2667  0.3535
   11bbb     C3  297   7.614   7.250   2.448 -0.3194  0.1472  0.3391
   11bbb     H5  298   7.614   7.197   2.352 -0.5424 -1.4482  1.2115
   11bbb     H6  299   7.657   7.349   2.429 -0.1738 -0.1747 -1.0341
   11bbb     C4  300   7.471   7.255   2.504 -0.1147  0.3579  0.0282
   11bbb     H7  301   7.471   7.270   2.613 -2.4975 -0.7431  0.2078
   11bbb     H8  302   7.434   7.152   2.493 -1.5890  0.6611  1.8972
   11bbb     C5  303   7.749   6.949   2.431 -0.3898 -0.7026 -0.9983
   11bbb     H9  304   7.858   6.947   2.440 -0.4796 -0.1226  0.4007
   11bbb    H10  305   7.704   6.983   2.338 -0.1361  1.6549 -0.2917
   11bbb     C6  306   7.804   7.373   2.650 -0.1300 -0.2557 -0.6350
   11bbb    H11  307   7.725   7.442   2.618  1.2129  0.8563 -1.6381
   11bbb    H12  308   7.882   7.367   2.573  0.9277 -2.0436  0.5344
   11bbb     C7  309   7.368   7.341   2.427 -0.8012 -0.7493 -0.4476
   11bbb    H13  310   7.400   7.443   2.454  3.4445 -1.8529 -0.9521
   11bbb    H14  311   7.274   7.315   2.476  0.5228 -0.6329  2.2122
   11bbb     C8  312   7.872   7.413   2.785  0.6041  0.9258 -0.0492
   11bbb    H15  313   7.956   7.344   2.794 -0.3835 -0.2969 -0.1240
   11bbb    H16  314   7.805   7.411   2.872 -2.8822  1.0135 -2.6019
   11bbb     C9  315   7.690   6.804   2.447 -0.4601 -0.1271 -0.2642
   11bbb    H17  316   7.704   6.743   2.357 -0.8870 -1.2384  0.4171
   11bbb    H18  317   7.581   6.801   2.454 -0.4177 -1.7445 -0.0952
   11bbb     O1  318   7.369   7.318   2.285  0.5281  0.6363  0.5035
   12bbb     N1  319   7.945   7.572   1.713 -0.7237  0.3708  0.0466
   12bbb     C1  320   8.073   7.573   1.625 -0.1849  0.4953 -0.4402
   12bbb     H1  321   8.154   7.533   1.688  0.5149  0.0811 -1.6069
   12bbb     H2  322   8.095   7.672   1.586 -1.2722  1.2183  0.7291
   12bbb     C2  323   7.958   7.654   1.835 -0.5650 -0.3449 -0.9363
   12bbb     H3  324   8.018   7.607   1.914  0.1715 -0.1524 -1.3756
   12bbb     H4  325   7.857   7.676   1.874  0.5344  0.2391  1.6566
   12bbb     C3  326   7.890   7.434   1.737 -0.5138 -0.4458  1.1432
   12bbb     H5  327   7.847   7.398   1.643  0.1888 -0.7381  0.9270
   12bbb     H6  328   7.799   7.441   1.797 -0.4485 -1.7030  1.3806
   12bbb     C4  329   7.997   7.335   1.792 -0.6863 -0.0561  0.1533
   12bbb     H7  330   8.035   7.370   1.889 -0.7518  0.5945 -0.0568
   12bbb     H8  331   8.083   7.342   1.724 -1.2317 -0.3247 -0.5749
   12bbb     C5  332   8.064   7.491   1.496 -0.0900  0.3185  0.0487
   12bbb     H9  333   8.051   7.384   1.517  0.7607 -0.0396 -1.1780
   12bbb    H10  334   8.167   7.495   1.457 -0.9017  1.4952 -2.0388
   12bbb     C6  335   8.026   7.795   1.808 -0.0134 -0.2608 -0.2112
   12bbb    H11  336   7.997   7.842   1.713  0.4167  1.1948  0.3497
   12bbb    H12  337   8.135   7.784   1.811  0.0620  0.7708  1.8281
   12bbb     C7  338   7.960   7.184   1.796  0.1763  0.5699  0.2873
   12bbb    H13  339   8.053   7.126   1.793  0.2761  0.7659 -0.7655
   12bbb    H14  340   7.906   7.158   1.704  0.2658 -0.5332  0.5498
   12bbb     C8  341   7.987   7.897   1.922  0.1609  0.2819  0.5045
   12bbb    H15  342   8.024   7.861   2.019  0.5066 -1.5036 -0.2684
   12bbb    H16  343   7.877   7.899   1.924  0.0901  0.6550 -2.4820
   12bbb     C9  344   7.975   7.554   1.389 -0.8654  0.3486 -0.2222
   12bbb    H17  345   8.022   7.651   1.370  1.6330 -0.5902  0.9593
   12bbb    H18  346   7.875   7.573   1.428 -0.1786 -0.5993  2.0637
   12bbb     O1  347   7.885   7.150   1.910  0.1763  0.3188 -0.1346
   13bbb     N1  348   5.964   7.080   3.260 -0.0970 -0.1473  0.3520
   13bbb     C1  349   6.042   7.196   3.230 -0.8681 -0.7219 -0.3534
   13bbb     H1  350   6.048   7.212   3.122 -0.7326 -1.5062 -0.4670
   13bbb     H2  351   6.146   7.190   3.264 -1.0942  0.7076  0.6543
   13bbb     C2  352   5.966   7.055   3.404  0.1858  0.0333  0.0897
   13bbb     H3  353   5.917   7.138   3.456 -0.9476  0.1325 -1.1139
   13bbb     H4  354   6.069   7.058   3.442  0.3474  0.1120 -0.3529
   13bbb     C3  355   6.005   6.962   3.177  0.6507 -0.3196  0.4892
   13bbb     H5  356   6.005   6.993   3.072  0.3867 -0.2016  0.5260
   13bbb     H6  357   5.933   6.880   3.187  1.5776 -1.1432  0.5450
   13bbb     C4  358   6.136   6.894   3.200 -0.4770 -0.5506  0.0800
   13bbb     H7  359   6.125   6.852   3.301 -1.1792 -1.9579 -0.5638
   13bbb     H8  360   6.218   6.966   3.192  0.6120 -1.5958  1.4894
   13bbb     C5  361   5.987   7.331   3.292 -0.6811 -0.3690 -0.1669
   13bbb     H9  362   6.031   7.339   3.392 -1.0481 -0.9018  0.0400
   13bbb    H10  363   5.878   7.324   3.301 -0.6374 -2.5562 -1.0696
   13bbb     C6  364   5.898   6.927   3.456 -0.3203  0.2224 -0.1827
   13bbb    H11  365   5.934   6.835   3.408 -0.6696 -0.2275  0.4122
   13bbb    H12  366   5.793   6.932   3.422  0.1844  0.0784 -1.8340
   13bbb     C7  367   6.157   6.774   3.107  0.7967  0.0733  0.2061
   13bbb    H13  368   6.075   6.703   3.123 -0.5747  1.7830  1.0538
   13bbb    H14  369   6.251   6.724   3.132 -0.3566 -2.4106 -0.2724
   13bbb     C8  370   5.897   6.906   3.606 -0.0159  0.0759 -0.3980
   13bbb    H15  371   5.856   6.995   3.657 -0.8843 -1.0999  0.9849
   13bbb    H16  372   6.000   6.910   3.644 -0.1290  2.7259 -0.2204
   13bbb     C9  373   6.038   7.453   3.200 -0.5379  0.3555 -0.2113
   13bbb    H17  374   5.990   7.440   3.102 -1.1583  0.0246  0.1295
   13bbb    H18  375   6.144   7.426   3.197 -1.0356 -1.4591 -3.3471
   13bbb     O1  376   6.163   6.807   2.967  0.7926 -0.1407 -0.6945
   14bbb     N1  377   6.590   6.409   3.157  0.2970  0.8119 -1.1469
   14bbb     C1  378   6.467   6.435   3.077  0.0137  0.5400 -0.4328
   14bbb     H1  379   6.424   6.531   3.108 -2.5311 -1.0073  1.0162
   14bbb     H2  380   6.383   6.373   3.111 -0.7899  2.3254  0.8425
   14bbb     C2  381   6.661   6.280   3.146 -0.1500 -0.0797  1.1194
   14bbb     H3  382   6.727   6.272   3.234  2.6979  0.5253 -0.8825
   14bbb     H4  383   6.730   6.286   3.060 -0.3059 -0.1769  0.9895
   14bbb     C3  384   6.692   6.522   3.142  0.5524 -0.0648  0.3166
   14bbb     H5  385   6.739   6.532   3.044  0.2710  0.5400  0.2406
   14bbb     H6  386   6.780   6.499   3.204  0.1137 -1.5596  0.4085
   14bbb     C4  387   6.640   6.661   3.196 -0.1754  0.0421  0.4411
   14bbb     H7  388   6.597   6.648   3.296  0.9051  0.7458  1.0054
   14bbb     H8  389   6.555   6.694   3.135  0.1111  1.1878  0.6504
   14bbb     C5  390   6.485   6.429   2.920 -0.0092  0.7151 -0.4327
   14bbb     H9  391   6.522   6.327   2.899 -0.3917  0.6599 -0.8401
   14bbb    H10  392   6.561   6.497   2.880 -0.7459  0.7241 -1.8267
   14bbb     C6  393   6.574   6.155   3.130 -0.3980 -0.0520  0.1921
   14bbb    H11  394   6.518   6.150   3.036 -1.1806  1.3952  0.5656
   14bbb    H12  395   6.500   6.170   3.210  0.4759  0.7378  0.8669
   14bbb     C7  396   6.747   6.778   3.204 -0.1276  1.1343 -0.3627
   14bbb    H13  397   6.830   6.742   3.266 -2.2427  1.8651  2.9926
   14bbb    H14  398   6.705   6.860   3.264 -2.0246 -0.1534  0.1275
   14bbb     C8  399   6.650   6.024   3.159  0.1671  0.5325  0.1364
   14bbb    H15  400   6.587   5.934   3.164  1.8703 -0.7255 -0.3886
   14bbb    H16  401   6.694   6.022   3.259  0.8142 -0.9018 -0.1543
   14bbb     C9  402   6.352   6.465   2.851  0.0833 -0.8828 -0.2540
   14bbb    H17  403   6.382   6.470   2.746 -0.6411 -0.0033 -0.4211
   14bbb    H18  404   6.317   6.566   2.873 -1.8724 -1.3408 -1.1157
   14bbb     O1  405   6.788   6.812   3.070 -0.1726 -0.2703 -0.3078
   15bbb     N1  406   7.130   8.470   3.393 -0.3681 -0.4189  0.2971
   15bbb     C1  407   7.002   8.482   3.474 -0.3795  0.4421 -0.0609
   15bbb     H1  408   6.996   8.428   3.569 -2.7611  0.3653 -0.2341
   15bbb     H2  409   6.922   8.434   3.416 -0.0918  0.1604 -0.2290
   15bbb     C2  410   7.249   8.506   3.475  0.1313 -0.4562 -0.3686
   15bbb     H3  411   7.246   8.458   3.574 -1.0555  0.7109  0.1719
   15bbb     H4  412   7.233   8.612   3.497  1.7281 -0.0753 -0.9875
   15bbb     C3  413   7.144   8.344   3.319 -0.1527  0.2107 -0.4113
   15bbb     H5  414   7.234   8.332   3.257  0.0435 -2.1032  0.2609
   15bbb     H6  415   7.062   8.323   3.250 -1.6657  1.9111  0.8250
   15bbb     C4  416   7.159   8.223   3.418 -0.2875 -0.2657  0.3821
   15bbb     H7  417   7.069   8.205   3.479 -1.1882 -0.5170 -1.0117
   15bbb     H8  418   7.238   8.258   3.486 -0.4975 -1.0041  1.0215
   15bbb     C5  419   6.946   8.624   3.505 -0.1127 -0.3948  0.3430
   15bbb     H9  420   7.030   8.687   3.538  0.4365 -0.7277 -0.4080
   15bbb    H10  421   6.876   8.618   3.589  1.9902 -0.3581  2.1585
   15bbb     C6  422   7.391   8.483   3.418  0.2685  0.6654  0.4756
   15bbb    H11  423   7.391   8.381   3.378 -0.5374  1.2896 -1.1417
   15bbb    H12  424   7.464   8.480   3.500  0.3363  3.1212  0.5368
   15bbb     C7  425   7.208   8.085   3.365 -0.3709  0.1396 -0.1821
   15bbb    H13  426   7.279   8.041   3.437  1.3698  1.7056 -0.9114
   15bbb    H14  427   7.268   8.101   3.275  1.1831 -2.6589  0.2729
   15bbb     C8  428   7.430   8.587   3.312  0.0427  0.5160  0.6664
   15bbb    H15  429   7.416   8.688   3.354 -2.5525  0.8285 -0.8428
   15bbb    H16  430   7.360   8.578   3.228  0.0966  0.2371  0.6531
   15bbb     C9  431   6.880   8.698   3.390  0.3315  0.9012 -0.1223
   15bbb    H17  432   6.771   8.686   3.381  0.4184 -0.0411  0.0278
   15bbb    H18  433   6.928   8.653   3.302  0.5842 -0.6769  0.8059
   15bbb     O1  434   7.099   7.992   3.359 -0.0442 -0.2555 -0.2063
   16bbb     N1  435   6.998   8.444   2.351  0.7503  0.1827  0.8797
   16bbb     C1  436   7.121   8.523   2.347  0.3983  0.1326 -0.2042
   16bbb     H1  437   7.197   8.464   2.400  0.0100 -0.3081 -0.1368
   16bbb     H2  438   7.108   8.627   2.378 -1.9235  0.5042 -2.2744
   16bbb     C2  439   6.906   8.459   2.235  0.0888 -0.3313  0.1092
   16bbb     H3  440   6.834   8.377   2.240  0.1125 -0.3674 -0.1320
   16bbb     H4  441   6.968   8.435   2.147  0.0942  0.6520 -0.1656
   16bbb     C3  442   6.933   8.446   2.483  0.7128  0.1642 -0.0594
   16bbb     H5  443   6.901   8.548   2.508  0.4701 -0.3971  2.0458
   16bbb     H6  444   7.003   8.411   2.561  0.7266 -1.2490 -0.6958
   16bbb     C4  445   6.806   8.357   2.499 -0.0753  0.4220 -0.2597
   16bbb     H7  446   6.828   8.253   2.471 -1.7606 -0.4662  1.6082
   16bbb     H8  447   6.736   8.399   2.426 -0.1995 -0.3157 -0.5731
   16bbb     C5  448   7.195   8.531   2.203 -0.5031  0.0361 -0.4539
   16bbb     H9  449   7.279   8.601   2.215 -0.3709  0.1743 -1.9848
   16bbb    H10  450   7.128   8.569   2.125  0.4869 -0.5714 -1.6192
   16bbb     C6  451   6.814   8.591   2.225  0.0300 -0.5182  0.3624
   16bbb    H11  452   6.887   8.672   2.220 -0.8643  0.2965  0.3019
   16bbb    H12  453   6.759   8.604   2.319  1.3726 -3.2901  1.5749
   16bbb     C7  454   6.755   8.360   2.644  0.4228 -0.5847  0.2920
   16bbb    H13  455   6.654   8.318   2.658  0.7927 -1.7431 -0.4698
   16bbb    H14  456   6.739   8.464   2.675  2.8451 -0.5170  1.3682
   16bbb     C8  457   6.708   8.587   2.108  0.2162  0.9458  0.3135
   16bbb    H15  458   6.659   8.684   2.094 -0.5093  0.4699 -0.5188
   16bbb    H16  459   6.623   8.525   2.142  0.8236  0.4838  1.0055
   16bbb     C9  460   7.258   8.398   2.157 -0.0836  0.1363  0.3423
   16bbb    H17  461   7.176   8.327   2.168 -0.8064  0.4608 -2.6957
   16bbb    H18  462   7.328   8.375   2.238 -0.0762 -0.8201  0.0678
   16bbb     O1  463   6.852   8.302   2.734 -0.0559  0.3437  0.3822
   17bbb     N1  464   7.987   7.497   2.207  0.5957  0.9030 -0.6265
   17bbb     C1  465   8.102   7.560   2.278  0.1402 -0.2871 -0.7367
   17bbb     H1  466   8.091   7.546   2.386 -0.0476  2.0331 -0.4290
   17bbb     H2  467   8.081   7.667   2.268 -1.2027 -0.3227  1.3345
   17bbb     C2  468   8.010   7.358   2.154  0.1896  0.0524  0.2423
   17bbb     H3  469   8.112   7.353   2.115 -0.6251 -0.9879 -1.7920
   17bbb     H4  470   7.944   7.345   2.067  0.6694 -1.0851  0.0492
   17bbb     C3  471   7.852   7.534   2.260  0.2130  0.0744 -0.3709
   17bbb     H5  472   7.867   7.638   2.290  1.0185  0.2171 -1.2416
   17bbb     H6  473   7.822   7.471   2.344 -0.2702  1.4035  0.4713
   17bbb     C4  474   7.749   7.531   2.146 -0.5508  0.3970 -0.3163
   17bbb     H7  475   7.755   7.434   2.096 -0.7383 -0.2123  0.8150
   17bbb     H8  476   7.783   7.606   2.074  0.5007  1.8221  1.6115
   17bbb     C5  477   8.245   7.537   2.232  0.6685  0.4150  0.5926
   17bbb     H9  478   8.276   7.432   2.245 -0.9313 -0.5583 -2.7753
   17bbb    H10  479   8.313   7.596   2.294 -0.7042 -0.8996  3.4598
   17bbb     C6  480   7.982   7.236   2.246  0.0878  0.3737  0.2341
   17bbb    H11  481   7.981   7.138   2.197  0.6820  0.6214 -0.2814
   17bbb    H12  482   7.883   7.248   2.291 -0.2954 -3.0089  0.4364
   17bbb     C7  483   7.598   7.553   2.176 -0.0002  0.3237  0.0393
   17bbb    H13  484   7.551   7.462   2.216  0.3971  0.4622  0.8292
   17bbb    H14  485   7.550   7.574   2.080  0.6004 -1.9266 -0.7806
   17bbb     C8  486   8.080   7.225   2.366 -1.0602 -0.0644  0.7765
   17bbb    H15  487   8.024   7.161   2.435 -0.5481  0.7412  1.9526
   17bbb    H16  488   8.073   7.324   2.412 -0.4489 -1.1064  3.2043
   17bbb     C9  489   8.258   7.570   2.082 -0.6387  0.0400  0.2130
   17bbb    H17  490   8.179   7.643   2.057 -0.2991  0.0189 -0.9229
   17bbb    H18  491   8.224   7.489   2.017  0.4080 -1.7245  1.8156
   17bbb     O1  492   7.587   7.664   2.270 -0.2109  0.7448 -0.2862
   18bbb     N1  493   6.944   7.625   2.183  0.1350 -0.3191  0.2189
   18bbb     C1  494   7.038   7.512   2.215  0.1630  0.6877  0.0162
   18bbb     H1  495   6.979   7.441   2.274 -0.0257  0.8556  0.0324
   18bbb     H2  496   7.133   7.543   2.260  0.8016 -1.0225 -0.1036
   18bbb     C2  497   6.801   7.585   2.153 -0.4207  0.3203 -0.4659
   18bbb     H3  498   6.739   7.646   2.221 -1.9033  0.8076 -2.2259
   18bbb     H4  499   6.791   7.477   2.167  1.3413  0.1525 -0.3507
   18bbb     C3  500   6.959   7.733   2.280  0.0173  0.3068 -0.5070
   18bbb     H5  501   7.066   7.750   2.295  0.0958  0.1882 -0.9235
   18bbb     H6  502   6.931   7.686   2.375 -0.5347 -1.0134 -1.3065
   18bbb     C4  503   6.891   7.865   2.256  0.2425 -0.0765  0.0409
   18bbb     H7  504   6.782   7.851   2.267  0.4106 -1.3505  0.0775
   18bbb     H8  505   6.907   7.891   2.151 -1.9684 -0.3571 -0.4028
   18bbb     C5  506   7.073   7.422   2.096 -0.2241 -0.4268 -0.2594
   18bbb     H9  507   6.984   7.370   2.058 -0.4196  0.1761 -0.6331
   18bbb    H10  508   7.130   7.339   2.138 -1.0647 -1.1557 -0.5316
   18bbb     C6  509   6.773   7.603   2.001  1.2094  0.4608 -0.9706
   18bbb    H11  510   6.846   7.547   1.941  1.1325  0.8123 -1.3977
   18bbb    H12  511   6.783   7.710   1.978 -1.1589  1.2423  1.3315
   18bbb     C7  512   6.940   7.971   2.355 -0.0409  0.3404  0.0114
   18bbb    H13  513   6.908   7.941   2.456  3.5166 -1.5708  0.6415
   18bbb    H14  514   6.893   8.069   2.335 -2.5888 -0.8759 -0.2142
   18bbb     C8  515   6.626   7.563   1.978  0.3359 -0.3215  0.0201
   18bbb    H15  516   6.566   7.654   1.988 -0.1085 -0.6096 -0.0178
   18bbb    H16  517   6.587   7.501   2.060 -0.1116 -1.3642 -0.9571
   18bbb     C9  518   7.156   7.487   1.985 -0.0874  0.3020  0.5661
   18bbb    H17  519   7.249   7.526   2.029  0.9895 -0.8288 -0.6398
   18bbb    H18  520   7.093   7.566   1.944 -0.7036 -0.4615  0.0278
   18bbb     O1  521   7.083   7.986   2.345 -0.2445  0.0244  0.0030
   19bbb     N1  522   6.431   8.391   3.625  0.0839  0.1805  0.9279
   19bbb     C1  523   6.291   8.346   3.669 -0.2785  0.7852 -0.6378
   19bbb     H1  524   6.287   8.358   3.778 -1.0486  0.1238 -0.5886
   19bbb     H2  525   6.270   8.240   3.652 -1.7845  0.7802  1.0678
   19bbb     C2  526   6.538   8.346   3.713 -0.3086 -0.3378 -0.4521
   19bbb     H3  527   6.515   8.376   3.816  0.0336  2.4198 -1.1161
   19bbb     H4  528   6.633   8.390   3.680  0.1755 -0.2450  1.0263
   19bbb     C3  529   6.440   8.375   3.483  0.1873 -0.4777  0.3627
   19bbb     H5  530   6.372   8.444   3.433  0.5347 -0.3270  0.0977
   19bbb     H6  531   6.403   8.277   3.448  2.7150 -1.2518 -0.2649
   19bbb     C4  532   6.583   8.412   3.416  0.1371  0.5897 -0.5830
   19bbb     H7  533   6.654   8.336   3.452 -1.3542 -0.1733  0.8425
   19bbb     H8  534   6.613   8.511   3.452  0.1797 -0.0733  1.2813
   19bbb     C5  535   6.171   8.423   3.604 -0.3810 -0.0900 -0.4411
   19bbb     H9  536   6.154   8.418   3.496  1.9321  1.6814 -0.9252
   19bbb    H10  537   6.204   8.527   3.603  1.4244 -0.6451  0.1085
   19bbb     C6  538   6.565   8.199   3.709 -0.3092  0.3560  0.0795
   19bbb    H11  539   6.615   8.188   3.612 -0.5137  2.4176 -0.2780
   19bbb    H12  540   6.472   8.141   3.701 -0.9085  1.2755  0.3325
   19bbb     C7  541   6.569   8.408   3.261 -1.1091  0.3150 -0.3645
   19bbb    H13  542   6.661   8.424   3.205 -0.0958  2.0595  1.7164
   19bbb    H14  543   6.495   8.482   3.227 -1.1147 -0.9280 -3.1985
   19bbb     C8  544   6.659   8.149   3.829  0.4513  1.0825  0.4007
   19bbb    H15  545   6.631   8.192   3.926 -1.8959  1.9102 -0.6004
   19bbb    H16  546   6.762   8.170   3.799 -0.5414  1.8106 -2.7461
   19bbb     C9  547   6.038   8.403   3.678  0.3601 -0.3429  0.3803
   19bbb    H17  548   6.022   8.302   3.719 -0.2920 -0.0095  0.9435
   19bbb    H18  549   5.951   8.413   3.612  1.2985  1.0785 -0.6529
   19bbb     O1  550   6.508   8.274   3.225 -0.5616 -0.3169 -0.3015
   20bbb     N1  551   5.731   8.059   2.859 -0.0933 -0.5151  0.2832
   20bbb     C1  552   5.598   8.051   2.792 -0.3130  0.9579 -0.1162
   20bbb     H1  553   5.542   7.965   2.831 -0.1359  0.5202 -0.8193
   20bbb     H2  554   5.609   8.028   2.686  0.6986  0.8698  0.0061
   20bbb     C2  555   5.726   8.081   3.008  0.0966 -0.3065  0.6018
   20bbb     H3  556   5.675   8.177   3.021  0.2694  0.1350 -1.7323
   20bbb     H4  557   5.827   8.096   3.047  0.8512  2.4361 -2.1372
   20bbb     C3  558   5.818   7.948   2.822  0.5253  0.1685  0.0874
   20bbb     H5  559   5.808   7.938   2.714 -1.0460 -0.9142  0.3178
   20bbb     H6  560   5.778   7.857   2.869 -0.7212  1.0652  0.7982
   20bbb     C4  561   5.970   7.949   2.865 -0.2366 -0.2255 -0.4887
   20bbb     H7  562   5.977   7.950   2.974 -1.5442 -1.6344 -0.3724
   20bbb     H8  563   6.018   8.045   2.842  2.5248 -1.1780  1.1497
   20bbb     C5  564   5.510   8.181   2.812 -0.5781 -0.0430 -1.0018
   20bbb     H9  565   5.571   8.266   2.781 -1.4132  0.9031 -0.1055
   20bbb    H10  566   5.488   8.203   2.917 -1.3977  0.3242 -1.2480
   20bbb     C6  567   5.675   7.967   3.104 -0.2715 -0.1778  0.3139
   20bbb    H11  568   5.729   7.873   3.087 -0.6036  0.0600 -2.2856
   20bbb    H12  569   5.576   7.942   3.065  0.2731 -0.5666 -0.8482
   20bbb     C7  570   6.056   7.830   2.814 -0.6078 -0.3787 -0.3869
   20bbb    H13  571   6.070   7.836   2.706  0.4774  1.8418 -0.1462
   20bbb    H14  572   6.011   7.731   2.829  0.8975 -1.4501 -2.6990
   20bbb     C8  573   5.690   7.999   3.251  0.3167 -0.8477  0.1378
   20bbb    H15  574   5.614   8.074   3.275 -0.0852 -0.9002 -0.9492
   20bbb    H16  575   5.785   8.052   3.265 -0.0733  0.3190 -1.4158
   20bbb     C9  576   5.373   8.191   2.738 -0.9976  1.0228  0.0166
   20bbb    H17  577   5.392   8.227   2.637 -0.1841 -0.6332 -0.4286
   20bbb    H18  578   5.314   8.272   2.784 -1.9206  0.1420  0.4172
   20bbb     O1  579   6.176   7.831   2.884 -0.8620 -0.0839  0.6965
   21bbb     N1  580   7.045   7.938   1.740  0.8276 -1.2169  0.1005
   21bbb     C1  581   7.191   7.951   1.767  0.8823 -0.3043  0.6898
   21bbb     H1  582   7.206   8.054   1.804 -0.6540 -0.2115  1.0827
   21bbb     H2  583   7.250   7.930   1.677 -3.3506  0.5698 -2.4504
   21bbb     C2  584   7.001   7.807   1.676  1.5007 -0.1146 -0.1898
   21bbb     H3  585   6.892   7.812   1.664  1.6054  2.0801 -0.3616
   21bbb     H4  586   7.013   7.720   1.742  0.8060  0.3655  0.5695
   21bbb     C3  587   6.954   7.980   1.849 -0.0763 -0.2072 -0.8382
   21bbb     H5  588   6.972   7.918   1.939 -0.7404  0.6630 -0.1008
   21bbb     H6  589   6.849   7.957   1.828  0.9110 -3.6757 -2.4062
   21bbb     C4  590   6.966   8.130   1.886  0.2490  0.4006 -0.0243
   21bbb     H7  591   6.923   8.189   1.804 -0.3018  2.5273  1.7595
   21bbb     H8  592   7.066   8.174   1.893 -0.1408  1.0205  2.1283
   21bbb     C5  593   7.243   7.850   1.870 -0.5594 -0.5820  0.0562
   21bbb     H9  594   7.241   7.748   1.830  1.2022 -1.4849  2.1672
   21bbb    H10  595   7.178   7.854   1.959  0.2872 -0.9683  0.7020
   21bbb     C6  596   7.063   7.774   1.536  0.6770  0.3381  0.3880
   21bbb    H11  597   7.024   7.679   1.498 -0.4897  1.2557 -0.7508
   21bbb    H12  598   7.172   7.768   1.541  0.6607 -1.7047 -1.0799
   21bbb     C7  599   6.897   8.165   2.004  0.4897 -0.0539 -0.3576
   21bbb    H13  600   6.905   8.274   2.011 -0.1878  0.1674 -2.5998
   21bbb    H14  601   6.942   8.108   2.087  2.3251  0.3509 -1.0512
   21bbb     C8  602   7.049   7.887   1.426 -0.4252  0.3042 -0.5470
   21bbb    H15  603   7.101   7.979   1.457 -1.2191  0.5706  0.0147
   21bbb    H16  604   6.942   7.912   1.430  0.3591  3.6708  3.4531
   21bbb     C9  605   7.379   7.889   1.925  0.9054 -0.4359 -0.1348
   21bbb    H17  606   7.414   7.805   1.986  1.5463  0.9716  1.4658
   21bbb    H18  607   7.372   7.977   1.991  2.9705 -2.3600  2.7900
   21bbb     O1  608   6.758   8.130   2.000 -0.2067  0.2887  0.4964
   22bbb     N1  609   6.269   7.453   2.708 -0.4859  0.4823  0.3600
   22bbb     C1  610   6.378   7.408   2.795  0.1291  0.4884  0.1576
   22bbb     H1  611   6.425   7.497   2.839  1.3233  0.1107 -0.3464
   22bbb     H2  612   6.454   7.353   2.738  0.1296  0.2073  0.4275
   22bbb     C2  613   6.170   7.350   2.678 -0.5786 -0.0818  0.1103
   22bbb     H3  614   6.125   7.306   2.768 -2.0636 -2.1700 -1.6218
   22bbb     H4  615   6.220   7.267   2.626 -1.8472 -0.2480 -0.8564
   22bbb     C3  616   6.319   7.528   2.598  0.0836 -0.4839  0.2536
   22bbb     H5  617   6.398   7.601   2.623 -1.8144  1.7409 -0.1135
   22bbb     H6  618   6.236   7.586   2.557  1.1568  0.5816 -0.4701
   22bbb     C4  619   6.384   7.442   2.493  0.0097 -0.7386 -0.1413
   22bbb     H7  620   6.348   7.338   2.483  1.4039 -1.1511 -0.9777
   22bbb     H8  621   6.491   7.434   2.513  0.4679  2.7516 -0.9870
   22bbb     C5  622   6.336   7.317   2.919 -0.3802 -1.3157 -0.5198
   22bbb     H9  623   6.287   7.228   2.878 -1.3389 -0.4520 -1.2686
   22bbb    H10  624   6.259   7.367   2.978 -1.4017 -1.9617 -1.2839
   22bbb     C6  625   6.060   7.409   2.582  0.0282  0.9030  0.0490
   22bbb    H11  626   5.995   7.329   2.544  0.4128  2.3942 -4.0171
   22bbb    H12  627   6.098   7.446   2.486 -0.0492  2.3545  0.5547
   22bbb     C7  628   6.364   7.511   2.350 -0.0055  0.5221  0.1601
   22bbb    H13  629   6.261   7.497   2.315  0.0156 -0.6354  0.5402
   22bbb    H14  630   6.434   7.457   2.286  0.2693  0.7242  0.2897
   22bbb     C8  631   5.967   7.521   2.651  0.5697  0.0198  0.1360
   22bbb    H15  632   5.944   7.491   2.754  1.4307  1.0632  0.6410
   22bbb    H16  633   6.032   7.606   2.674 -0.8659  0.5734  2.1913
   22bbb     C9  634   6.451   7.249   3.010 -0.2600  0.6560  0.0079
   22bbb    H17  635   6.509   7.335   3.046  3.3848 -2.0571  0.8506
   22bbb    H18  636   6.507   7.187   2.940  0.5994  1.4512 -0.0079
   22bbb     O1  637   6.391   7.649   2.358  0.0347 -0.2542 -0.4917
   23ccc     C1  638   7.830   7.665   2.782 -0.8529  0.4916 -0.1323
   23ccc     H1  639   7.742   7.646   2.719  0.8122  0.4407 -2.5010
   23ccc     H2  640   7.804   7.684   2.886  0.2776  0.8560  0.0887
   23ccc     C2  641   7.899   7.798   2.735  0.0510  0.1557 -0.2797
   23ccc     H3  642   7.986   7.818   2.799 -0.8418  0.1411  0.9569
   23ccc     H4  643   7.842   7.892   2.739 -0.2166  0.0659 -1.7831
   23ccc     C3  644   7.943   7.796   2.585 -0.5908  0.4969 -0.1097
   23ccc     H5  645   7.858   7.831   2.525 -0.1335 -0.4326 -1.3296
   23ccc     H6  646   7.959   7.692   2.554  0.9797  0.6930  0.0201
   23ccc     N1  647   8.053   7.883   2.559 -0.2465  0.3104 -0.5788
   23ccc     C4  648   8.186   7.827   2.584 -0.3147 -0.6711  0.2041
   23ccc     H7  649   8.180   7.718   2.584 -1.7119 -0.6029 -0.6068
   23ccc     H8  650   8.223   7.859   2.682  0.2918  0.6575 -0.4412
   23ccc     C5  651   8.282   7.888   2.478  0.4769  0.4444  0.1660
   23ccc     H9  652   8.226   7.908   2.385 -0.6824 -2.8051  0.0662
   23ccc    H10  653   8.314   7.986   2.514 -0.5201  1.1709 -0.8937
   23ccc     C6  654   8.409   7.801   2.450 -0.0515  0.3949  0.0150
   23ccc     O1  655   8.432   7.694   2.503  0.0143  0.5603  0.2360
   23ccc     O2  656   8.506   7.849   2.372  0.0294  0.0506 -0.2690
   23ccc    H11  657   8.475   7.940   2.357  1.6547  0.2983 -2.5748
   23ccc     C7  658   8.027   8.025   2.595  0.0443  0.1146  1.1734
   23ccc    H12  659   8.034   8.034   2.704 -1.0108  3.5660  1.0010
   23ccc    H13  660   8.111   8.079   2.548 -0.9701  0.4030 -0.3166
   23ccc     C8  661   7.894   8.097   2.544  0.2338  0.4630 -0.3001
   23ccc    H14  662   7.901   8.200   2.583  0.7759  0.4550 -0.3650
   23ccc    H15  663   7.800   8.058   2.583  1.0497 -2.4319 -1.1286
   23ccc     C9  664   7.884   8.097   2.389  0.6078  0.0993  0.0135
   23ccc     O3  665   7.894   7.996   2.328 -0.3962  0.1662  0.1066
   23ccc     O4  666   7.812   8.198   2.337  0.4503 -0.2538 -0.0796
   23ccc    H16  667   7.790   8.261   2.409 -0.7051  0.3458 -0.9519
   23ccc     O5  668   7.927   7.553   2.766  0.0734 -0.0354 -0.2633
   24ccc     C1  669   7.713   6.597   2.574  0.2729 -0.4633 -0.1303
   24ccc     H1  670   7.603   6.590   2.580  0.2382  0.2577  0.2258
   24ccc     H2  671   7.738   6.533   2.489 -0.9516 -2.0763  0.6945
   24ccc     C2  672   7.784   6.540   2.705  0.7126  0.1594  0.7776
   24ccc     H3  673   7.756   6.610   2.785 -1.4760  0.6826 -0.4047
   24ccc     H4  674   7.893   6.547   2.688  0.7735  0.7478  1.4139
   24ccc     C3  675   7.729   6.401   2.748 -0.2114 -0.0315 -0.9784
   24ccc     H5  676   7.783   6.365   2.836 -0.9837 -2.1281 -1.3198
   24ccc     H6  677   7.761   6.326   2.674  2.0768  0.2245 -0.2779
   24ccc     N1  678   7.578   6.406   2.763 -0.3216 -0.0969  0.0110
   24ccc     C4  679   7.525   6.475   2.884  0.0339  0.7745  0.4322
   24ccc     H7  680   7.416   6.475   2.877  0.0580 -2.7130 -1.3498
   24ccc     H8  681   7.571   6.574   2.889  0.2643  0.5887  2.4517
   24ccc     C5  682   7.571   6.400   3.010 -0.1444  0.1764  0.2459
   24ccc     H9  683   7.669   6.443   3.031  0.0406  0.7498 -1.7071
   24ccc    H10  684   7.583   6.295   2.982 -1.7796 -0.3218  1.3170
   24ccc     C6  685   7.483   6.419   3.129  0.1125  0.3115  0.2055
   24ccc     O1  686   7.507   6.511   3.206  0.7645  0.7098  0.3582
   24ccc     O2  687   7.363   6.357   3.127  0.1230 -0.0029  0.4267
   24ccc    H11  688   7.377   6.275   3.077  1.8306 -0.5662  1.7955
   24ccc     C7  689   7.514   6.275   2.734 -0.2770  0.8809  0.1442
   24ccc    H12  690   7.554   6.196   2.799  1.2666  0.6807 -1.0327
   24ccc    H13  691   7.404   6.276   2.739 -0.3085  2.3884 -0.5516
   24ccc     C8  692   7.549   6.225   2.593  0.6019  0.6937 -0.1965
   24ccc    H14  693   7.651   6.183   2.597  0.1389 -0.2906  2.5023
   24ccc    H15  694   7.558   6.307   2.522 -1.9311  0.9136 -0.2928
   24ccc     C9  695   7.451   6.117   2.554 -0.4128  0.4373  1.1448
   24ccc     O3  696   7.450   6.007   2.609 -0.5784 -0.4169 -0.3300
   24ccc     O4  697   7.387   6.134   2.437 -0.3568 -0.6962 -0.2248
   24ccc    H16  698   7.414   6.221   2.403  1.6143 -1.6209 -1.1267
   24ccc     O5  699   7.753   6.738   2.559  0.3667 -0.2857 -0.2803
   25ccc     C1  700   8.040   8.127   1.990  0.4932  0.3606  0.4756
   25ccc     H1  701   7.932   8.136   2.005 -0.1740 -2.6750 -2.1073
   25ccc     H2  702   8.084   8.096   2.086 -1.1063 -0.0787  1.0748
   25ccc     C2  703   8.091   8.269   1.937 -0.2155  0.6549  0.0568
   25ccc     H3  704   8.027   8.297   1.852  0.2305 -0.2492 -0.5955
   25ccc     H4  705   8.195   8.268   1.903  0.4578  0.7735  2.0757
   25ccc     C3  706   8.076   8.380   2.038 -0.1856  0.2785 -0.0048
   25ccc     H5  707   7.970   8.404   2.051 -0.1023  0.7322 -0.1730
   25ccc     H6  708   8.126   8.472   2.006 -0.4751  1.1362  1.9696
   25ccc     N1  709   8.123   8.351   2.175 -0.4333 -0.5571  0.3862
   25ccc     C4  710   8.265   8.330   2.187 -0.0779 -0.5122  0.1993
   25ccc     H7  711   8.304   8.431   2.169 -0.2688 -0.5418 -0.3861
   25ccc     H8  712   8.304   8.256   2.117 -0.7777  0.5676 -1.3762
   25ccc     C5  713   8.304   8.273   2.323  0.2478  0.4165  0.2676
   25ccc     H9  714   8.302   8.343   2.407  2.1881  0.4692  0.2815
   25ccc    H10  715   8.231   8.199   2.356 -0.7505  1.1747 -0.2174
   25ccc     C6  716   8.437   8.204   2.322  0.6936 -0.3006  0.2294
   25ccc     O1  717   8.445   8.084   2.297 -0.6761 -0.3899 -0.5994
   25ccc     O2  718   8.516   8.245   2.423 -0.3622 -0.9399  0.4086
   25ccc    H11  719   8.490   8.338   2.431 -0.6630 -0.8975 -0.8711
   25ccc     C7  720   8.069   8.447   2.274  0.0389  0.6408  0.2299
   25ccc    H12  721   7.960   8.434   2.270  0.1313 -1.4061  2.8796
   25ccc    H13  722   8.102   8.420   2.375  0.0808  1.7354  0.5151
   25ccc     C8  723   8.089   8.602   2.247 -0.0048 -0.4271  0.5192
   25ccc    H14  724   8.196   8.625   2.245 -0.2209  0.7127  1.4031
   25ccc    H15  725   8.046   8.625   2.149  2.7408 -0.0783 -0.6444
   25ccc     C9  726   8.017   8.686   2.348 -0.2750 -0.2331 -0.8256
   25ccc     O3  727   7.926   8.642   2.418 -0.2848 -0.0300 -0.7381
   25ccc     O4  728   8.005   8.812   2.302  0.2097  0.5891 -0.4273
   25ccc    H16  729   8.090   8.821   2.255  1.4943  1.5601  2.0060
   25ccc     O5  730   8.056   8.025   1.890 -0.6211  0.3696 -0.2804
   26ccc     C1  731   7.889   7.517   1.156 -0.7965  0.6752  0.4128
   26ccc     H1  732   7.783   7.492   1.168 -0.7517  0.3673  0.1546
   26ccc     H2  733   7.897   7.626   1.149  0.4762  0.5610 -0.0276
   26ccc     C2  734   7.940   7.448   1.030  0.3809  0.3353 -0.2332
   26ccc     H3  735   8.049   7.458   1.029  0.3761  0.4171 -0.0397
   26ccc     H4  736   7.903   7.497   0.938  0.1492 -2.5346 -1.7229
   26ccc     C3  737   7.894   7.304   1.029  0.0114 -0.1335 -0.5245
   26ccc     H5  738   7.788   7.298   1.056 -0.1314 -0.7842 -1.2013
   26ccc     H6  739   7.943   7.259   1.117 -2.0595  3.9714  2.9255
   26ccc     N1  740   7.923   7.235   0.902 -0.3480 -0.2402  0.0328
   26ccc     C4  741   8.070   7.198   0.884 -0.2482  0.4917 -0.3974
   26ccc     H7  742   8.139   7.283   0.886  0.8740 -0.4333  1.9850
   26ccc     H8  743   8.086   7.164   0.782  1.6357  0.9991 -0.2875
   26ccc     C5  744   8.116   7.093   0.982 -0.1935  0.0838 -0.3805
   26ccc     H9  745   8.220   7.072   0.957  0.6124  1.8515  1.3929
   26ccc    H10  746   8.118   7.133   1.084  1.5644 -2.0688  0.4519
   26ccc     C6  747   8.034   6.958   0.991 -0.6484  0.4045 -0.9576
   26ccc     O1  748   7.995   6.900   0.890 -0.3705 -0.6159 -0.2537
   26ccc     O2  749   7.992   6.929   1.111 -0.0862  0.1423  0.4714
   26ccc    H11  750   8.073   6.947   1.162  0.7934 -1.0812 -0.4749
   26ccc     C7  751   7.856   7.286   0.776 -0.4063 -0.0834 -1.3457
   26ccc    H12  752   7.922   7.369   0.748  1.3875 -0.8511  0.5284
   26ccc    H13  753   7.872   7.212   0.696  1.3936  0.3727 -1.4279
   26ccc     C8  754   7.703   7.326   0.785  0.0170 -0.7117  0.1293
   26ccc    H14  755   7.633   7.242   0.787  0.0088 -0.6972  0.7970
   26ccc    H15  756   7.683   7.385   0.876 -1.6288  1.1123 -1.3832
   26ccc     C9  757   7.657   7.419   0.681 -0.7106 -0.9182  0.0150
   26ccc     O3  758   7.670   7.539   0.701 -0.1374  0.3112 -0.0146
   26ccc     O4  759   7.622   7.368   0.566 -0.1739 -0.0938  0.7641
   26ccc    H16  760   7.656   7.278   0.576  0.2293  0.1283  1.4381
   26ccc     O5  761   7.975   7.472   1.266  0.8219  0.5850 -0.5668
   27ccc     C1  762   5.746   6.773   3.754 -0.2247 -0.2854 -0.2558
   27ccc     H1  763   5.681   6.861   3.765  2.7032  2.1961 -1.9484
   27ccc     H2  764   5.690   6.679   3.761 -1.0378  0.0861 -1.5710
   27ccc     C2  765   5.845   6.772   3.877 -0.0002 -0.5619 -0.7496
   27ccc     H3  766   5.787   6.748   3.967  1.9018 -0.2485  0.6071
   27ccc     H4  767   5.888   6.873   3.888  2.5324 -1.6523 -0.2756
   27ccc     C3  768   5.960   6.674   3.875 -0.8902 -0.2873 -0.0485
   27ccc     H5  769   6.009   6.692   3.778 -1.3361 -1.0784 -0.4170
   27ccc     H6  770   5.938   6.568   3.890  1.3114 -1.1860 -2.6302
   27ccc     N1  771   6.070   6.708   3.971 -0.3992  0.3975 -0.4006
   27ccc     C4  772   6.192   6.619   3.966  0.2934  0.1881 -0.2375
   27ccc     H7  773   6.164   6.530   4.025 -4.1752  0.5026 -1.6955
   27ccc     H8  774   6.265   6.673   4.028  1.5921 -2.1368  0.3256
   27ccc     C5  775   6.254   6.584   3.830 -0.6582 -0.1084 -0.0469
   27ccc     H9  776   6.283   6.675   3.776 -1.7308 -0.5604 -1.4194
   27ccc    H10  777   6.172   6.547   3.767  0.8673 -0.0894 -2.1226
   27ccc     C6  778   6.372   6.488   3.821  0.0397 -0.0893  0.2666
   27ccc     O1  779   6.375   6.379   3.765 -0.4224 -0.9800  0.3891
   27ccc     O2  780   6.490   6.539   3.852  0.1569 -0.0657 -0.2730
   27ccc    H11  781   6.468   6.629   3.882 -1.4140 -0.1185 -1.2384
   27ccc     C7  782   6.035   6.765   4.105  0.5800  0.0054  0.3689
   27ccc    H12  783   5.958   6.842   4.101 -0.4163 -1.0154 -0.6467
   27ccc    H13  784   6.118   6.817   4.154 -1.4473  2.9397  0.8264
   27ccc     C8  785   5.974   6.660   4.193 -0.4212 -0.4868 -0.1407
   27ccc    H14  786   5.954   6.565   4.143 -0.8944  0.1630 -1.2167
   27ccc    H15  787   5.881   6.696   4.239  0.5090 -0.1696  1.5252
   27ccc     C9  788   6.074   6.610   4.300  0.6237  0.6222  0.1767
   27ccc     O3  789   6.197   6.623   4.297  0.3595 -0.4019 -0.2030
   27ccc     O4  790   6.029   6.522   4.381  0.3931  0.2830  0.2886
   27ccc    H16  791   5.933   6.530   4.367  0.4266  1.6933  0.8216
   27ccc     O5  792   5.816   6.782   3.632 -0.1404 -0.4162  0.6185
   28ccc     C1  793   6.091   7.693   3.201 -0.4883  0.4474  0.0123
   28ccc     H1  794   6.195   7.687   3.234 -1.0803  0.5610  1.9602
   28ccc     H2  795   6.086   7.684   3.092 -2.2911 -0.5895  0.1515
   28ccc     C2  796   6.035   7.824   3.253 -0.2569 -0.0385 -0.6010
   28ccc     H3  797   6.008   7.811   3.358  1.9261 -0.1946 -0.0358
   28ccc     H4  798   5.942   7.840   3.197  0.3796  0.2103 -1.6009
   28ccc     C3  799   6.126   7.954   3.229  0.3498  0.3014 -0.2531
   28ccc     H5  800   6.118   7.992   3.126  1.6368 -0.9937 -0.8476
   28ccc     H6  801   6.233   7.935   3.237 -0.0454 -2.2936 -0.7087
   28ccc     N1  802   6.090   8.071   3.311  0.0642  0.4631 -0.0760
   28ccc     C4  803   6.161   8.193   3.267  0.2339  0.1876 -0.0502
   28ccc     H7  804   6.268   8.168   3.265  0.0466 -0.7458  1.1360
   28ccc     H8  805   6.152   8.273   3.341  0.4781 -0.8771  1.1418
   28ccc     C5  806   6.107   8.259   3.140  0.4806  0.5188  0.0867
   28ccc     H9  807   6.135   8.198   3.053  0.7255  0.4173  0.2355
   28ccc    H10  808   5.997   8.262   3.139  0.4550  0.5353  1.4550
   28ccc     C6  809   6.167   8.396   3.106 -0.0747 -0.0310  0.6681
   28ccc     O1  810   6.252   8.451   3.173 -0.5153 -0.1147 -0.2216
   28ccc     O2  811   6.092   8.477   3.018 -0.4233  0.5386 -0.3696
   28ccc    H11  812   6.039   8.407   2.977  1.7237 -1.2469 -0.1917
   28ccc     C7  813   6.093   8.045   3.455  0.0015  0.6214  1.0929
   28ccc    H12  814   6.090   8.141   3.509  1.8942  2.0590 -1.3035
   28ccc    H13  815   6.002   7.995   3.492 -1.4767  2.5069  0.1142
   28ccc     C8  816   6.217   7.968   3.515  0.5248  0.2862  0.3215
   28ccc    H14  817   6.248   7.894   3.440 -0.8450  1.1219 -1.1004
   28ccc    H15  818   6.307   8.028   3.530 -0.8491  2.8184 -1.2621
   28ccc     C9  819   6.177   7.892   3.649 -0.5460  0.0563  0.8702
   28ccc     O3  820   6.079   7.911   3.714  0.1057  0.1027  0.4155
   28ccc     O4  821   6.251   7.781   3.682 -0.1619  0.3268 -0.0311
   28ccc    H16  822   6.330   7.803   3.629 -1.6546  0.0657 -2.4381
   28ccc     O5  823   6.020   7.580   3.261  0.3062 -0.1729 -0.4604
   29ccc     C1  824   6.739   6.003   2.929 -0.5282 -0.6181 -1.1258
   29ccc     H1  825   6.688   5.908   2.908 -1.1709 -0.6390  0.4501
   29ccc     H2  826   6.663   6.076   2.899  0.8932  0.4442 -2.1998
   29ccc     C2  827   6.866   6.034   2.846 -0.8763  0.0517  0.9798
   29ccc     H3  828   6.925   6.112   2.895  0.4234 -0.3302  0.0556
   29ccc     H4  829   6.830   6.068   2.748  0.1131  0.1983  0.6630
   29ccc     C3  830   6.951   5.910   2.816  0.0398 -0.5550 -0.2478
   29ccc     H5  831   6.890   5.840   2.758  1.3439 -1.2834 -0.7572
   29ccc     H6  832   6.970   5.850   2.905 -1.4261 -2.6385 -1.3075
   29ccc     N1  833   7.082   5.937   2.746  0.0502 -1.0130 -0.2498
   29ccc     C4  834   7.071   6.000   2.610 -0.0109  0.4193  0.5835
   29ccc     H7  835   7.165   6.027   2.561 -0.5133 -1.3841 -1.4556
   29ccc     H8  836   7.022   6.097   2.624  1.2649  1.2963 -0.8952
   29ccc     C5  837   6.984   5.915   2.514 -0.1363  0.0764 -0.1165
   29ccc     H9  838   7.009   5.809   2.526 -1.2008 -0.1434  0.1747
   29ccc    H10  839   6.881   5.939   2.542 -0.0143  1.2616 -0.6502
   29ccc     C6  840   6.998   5.963   2.369 -0.4927 -0.5915  0.2537
   29ccc     O1  841   7.023   6.077   2.342 -0.0215 -0.3258  0.5924
   29ccc     O2  842   6.944   5.880   2.274 -0.6168 -0.9687  0.7396
   29ccc    H11  843   6.946   5.796   2.324 -1.8340 -0.7492  1.1744
   29ccc     C7  844   7.182   6.016   2.821  0.2560 -0.7395  0.0084
   29ccc    H12  845   7.277   5.998   2.769 -0.8442  1.3884 -2.8700
   29ccc    H13  846   7.152   6.122   2.818  1.5833 -0.3702 -2.2462
   29ccc     C8  847   7.204   5.971   2.970 -0.2420  0.0477 -0.1753
   29ccc    H14  848   7.114   5.981   3.032 -0.6668 -0.5164 -0.6958
   29ccc    H15  849   7.237   5.867   2.971 -2.7189 -0.7807 -1.2794
   29ccc     C9  850   7.319   6.045   3.027  0.3445  0.0845  0.8084
   29ccc     O3  851   7.348   6.154   2.990  0.2083  0.0820 -0.0959
   29ccc     O4  852   7.330   6.026   3.159 -0.0392 -0.4302 -0.1661
   29ccc    H16  853   7.284   5.946   3.187  0.7731 -1.6783 -2.3264
   29ccc     O5  854   6.765   6.010   3.068 -0.1934 -0.6717  0.3394
   30ccc     C1  855   6.259   6.232   2.824  0.0215  0.8915 -0.0901
   30ccc     H1  856   6.247   6.235   2.715 -2.2051  0.3766  0.1288
   30ccc     H2  857   6.352   6.180   2.850  0.2472  0.7266 -1.1888
   30ccc     C2  858   6.140   6.168   2.877 -0.0265  0.3760  0.2117
   30ccc     H3  859   6.067   6.175   2.796 -1.0335  1.7570  1.2332
   30ccc     H4  860   6.093   6.217   2.963 -0.1138 -1.9717  1.5516
   30ccc     C3  861   6.172   6.025   2.926  0.2432  0.0026 -0.4751
   30ccc     H5  862   6.078   5.987   2.970 -0.8783  0.9837 -1.9968
   30ccc     H6  863   6.250   6.038   3.002  1.7710  1.5431 -2.2753
   30ccc     N1  864   6.215   5.930   2.818 -0.2408  0.0895 -0.1244
   30ccc     C4  865   6.324   5.837   2.859 -0.0463 -0.2507  0.1939
   30ccc     H7  866   6.399   5.908   2.895  2.2419 -2.2866 -0.5058
   30ccc     H8  867   6.382   5.794   2.777 -0.5996 -1.7174  0.5609
   30ccc     C5  868   6.289   5.736   2.969  0.2112 -0.1372 -0.0328
   30ccc     H9  869   6.222   5.775   3.047  0.6015  0.7318 -0.1315
   30ccc    H10  870   6.248   5.643   2.927  1.7825 -1.1077  0.5383
   30ccc     C6  871   6.410   5.680   3.035  0.0838  0.3947  0.2209
   30ccc     O1  872   6.529   5.689   3.001 -0.4796 -0.0457 -0.4728
   30ccc     O2  873   6.379   5.646   3.160 -0.1435 -0.7676  0.0167
   30ccc    H11  874   6.285   5.668   3.153 -0.0116 -0.9457 -3.3320
   30ccc     C7  875   6.114   5.878   2.725 -0.3092  0.7115 -0.4029
   30ccc    H12  876   6.059   5.808   2.789  1.2252 -2.6005 -2.5523
   30ccc    H13  877   6.049   5.964   2.706  1.8486  2.5691  0.4673
   30ccc     C8  878   6.155   5.794   2.603  0.7290  0.4636 -0.1788
   30ccc    H14  879   6.236   5.832   2.539  0.7381  0.4578 -0.1704
   30ccc    H15  880   6.197   5.698   2.635  0.3711 -0.3977 -2.2331
   30ccc     C9  881   6.027   5.759   2.523 -0.1707 -0.4028  0.1816
   30ccc     O3  882   5.951   5.673   2.555  0.3840  0.3120 -0.3288
   30ccc     O4  883   5.975   5.869   2.463  0.2564  0.1792 -0.9315
   30ccc    H16  884   6.048   5.933   2.473  0.6423 -0.7472  3.3213
   30ccc     O5  885   6.242   6.366   2.879 -0.3725 -0.5635 -1.2037
   31ccc     C1  886   7.680   8.592   3.322  0.3518  0.4845 -0.1764
   31ccc     H1  887   7.684   8.545   3.420 -0.6469  3.4586  1.3552
   31ccc     H2  888   7.756   8.541   3.261 -0.1023 -1.3062  0.7181
   31ccc     C2  889   7.718   8.741   3.327  0.3197 -0.1953  0.2797
   31ccc     H3  890   7.820   8.735   3.368  0.2177  3.1250  1.1977
   31ccc     H4  891   7.658   8.775   3.413  1.2466 -2.2470  1.7757
   31ccc     C3  892   7.722   8.828   3.198  0.2061  0.0183  0.3320
   31ccc     H5  893   7.646   8.798   3.124 -0.1669 -1.2010  1.1868
   31ccc     H6  894   7.816   8.810   3.143 -0.1084 -2.1304  0.4516
   31ccc     N1  895   7.721   8.979   3.223 -0.0131 -0.1589 -0.1338
   31ccc     C4  896   7.791   9.066   3.129  0.6276  0.2109  0.2444
   31ccc     H7  897   7.733   9.071   3.036 -0.4979  3.0153  1.0424
   31ccc     H8  898   7.888   9.022   3.103  1.0705  0.9222  0.6552
   31ccc     C5  899   7.817   9.208   3.177  0.4422  0.8206 -0.0074
   31ccc     H9  900   7.876   9.212   3.269  0.4399  2.9101 -0.0817
   31ccc    H10  901   7.720   9.248   3.210 -0.8698 -2.0236 -0.2258
   31ccc     C6  902   7.867   9.295   3.061  0.4216  0.3160 -0.0699
   31ccc     O1  903   7.808   9.327   2.960  0.1126  0.5050 -0.7926
   31ccc     O2  904   7.995   9.326   3.078  0.2362 -0.3845  0.1321
   31ccc    H11  905   8.021   9.288   3.163 -0.2522 -1.1694 -0.0629
   31ccc     C7  906   7.585   9.025   3.273 -0.1496 -0.6147  0.2222
   31ccc    H12  907   7.547   8.960   3.353 -0.2185 -1.2686 -0.3449
   31ccc    H13  908   7.600   9.125   3.316 -1.8431 -1.0294  1.8061
   31ccc     C8  909   7.475   9.015   3.170  0.3341 -0.3407  0.4583
   31ccc    H14  910   7.511   9.066   3.079  1.6010 -2.8139 -0.4856
   31ccc    H15  911   7.439   8.915   3.142  0.4755 -0.3124  0.1760
   31ccc     C9  912   7.351   9.082   3.219 -0.2022 -0.6009 -0.3018
   31ccc     O3  913   7.350   9.164   3.310  0.4286 -0.1568 -0.0872
   31ccc     O4  914   7.244   9.080   3.143  0.0425  0.0518 -0.0290
   31ccc    H16  915   7.248   9.014   3.072  0.3191  1.0640 -0.9608
   31ccc     O5  916   7.559   8.564   3.247 -0.4710  0.1659  0.2715
   32ccc     C1  917   6.875   8.924   3.290 -0.3087 -0.6039 -0.5989
   32ccc     H1  918   6.927   8.896   3.198  0.9617 -1.0700  0.2410
   32ccc     H2  919   6.766   8.920   3.278 -0.1065 -1.1742 -2.3200
   32ccc     C2  920   6.917   9.072   3.317  0.0740  0.7775  0.7608
   32ccc     H3  921   6.904   9.140   3.232 -0.9026 -1.0673 -0.6085
   32ccc     H4  922   7.023   9.067   3.343  0.3475 -1.5237 -0.6543
   32ccc     C3  923   6.847   9.137   3.431 -0.5347 -0.7471  0.0821
   32ccc     H5  924   6.789   9.056   3.477 -0.0779  0.2330  2.4668
   32ccc     H6  925   6.771   9.197   3.380 -3.0317 -3.1926  0.8200
   32ccc     N1  926   6.933   9.211   3.528  0.2492  0.4236 -0.4914
   32ccc     C4  927   6.985   9.108   3.620 -0.4025 -0.3795  0.3899
   32ccc     H7  928   7.019   9.023   3.559  0.5176 -0.2255  0.6840
   32ccc     H8  929   6.905   9.072   3.687 -0.7387  2.1314  1.3755
   32ccc     C5  930   7.101   9.159   3.708 -0.0360  0.0719 -0.2336
   32ccc     H9  931   7.192   9.176   3.650  0.0514 -0.8946 -0.3790
   32ccc    H10  932   7.077   9.255   3.756 -0.2573  0.4718 -1.1348
   32ccc     C6  933   7.137   9.074   3.823 -0.3363  0.1943 -0.8480
   32ccc     O1  934   7.061   8.990   3.863  0.6003 -0.1790 -0.2339
   32ccc     O2  935   7.249   9.096   3.900 -0.2161  0.3469  0.2567
   32ccc    H11  936   7.276   9.178   3.854 -0.4565  0.4292  0.2612
   32ccc     C7  937   6.845   9.311   3.586 -0.1729 -0.0863  0.3144
   32ccc    H12  938   6.755   9.259   3.622  0.9426 -1.7418  0.8067
   32ccc    H13  939   6.905   9.347   3.670 -2.1762  1.5609  1.0775
   32ccc     C8  940   6.805   9.429   3.499 -0.4094 -0.0574 -0.0497
   32ccc    H14  941   6.738   9.405   3.415 -1.3402  0.6557  0.4853
   32ccc    H15  942   6.897   9.463   3.448 -1.0162  1.0847 -0.4098
   32ccc     C9  943   6.753   9.554   3.578  0.3258 -0.5908  1.0273
   32ccc     O3  944   6.749   9.577   3.696  0.1398 -0.4458  0.4066
   32ccc     O4  945   6.695   9.639   3.495 -0.5356 -0.6271  0.2427
   32ccc    H16  946   6.709   9.593   3.411 -0.1222  0.2401 -0.1667
   32ccc     O5  947   6.912   8.841   3.402 -0.1228  0.2812  0.1781
   33ccc     C1  948   6.860   8.607   1.923  0.4961  0.0498 -0.3088
   33ccc     H1  949   6.833   8.710   1.899  0.4937  0.3658  1.0165
   33ccc     H2  950   6.944   8.618   1.993 -1.1456 -1.1185  1.9220
   33ccc     C2  951   6.900   8.537   1.788 -0.0290  0.0559 -0.5396
   33ccc     H3  952   6.808   8.535   1.728 -0.1314 -0.8589 -0.3597
   33ccc     H4  953   6.925   8.433   1.815  2.7325  1.0197  0.8355
   33ccc     C3  954   7.020   8.607   1.722 -0.6254 -0.5376  0.2815
   33ccc     H5  955   7.032   8.560   1.624 -0.6066  1.0906 -0.5106
   33ccc     H6  956   7.114   8.588   1.776 -0.5242 -0.0948  0.2702
   33ccc     N1  957   7.006   8.749   1.702  0.7793  0.1255 -0.1877
   33ccc     C4  958   7.131   8.818   1.664 -0.1702  0.2642 -0.1172
   33ccc     H7  959   7.113   8.918   1.625  0.9041 -0.6496 -3.0977
   33ccc     H8  960   7.179   8.764   1.581 -2.6643 -1.1579 -0.6704
   33ccc     C5  961   7.235   8.832   1.778 -0.0201  0.0638 -0.7283
   33ccc     H9  962   7.272   8.735   1.813 -1.8882  0.0574  1.3051
   33ccc    H10  963   7.316   8.885   1.725 -1.5566 -0.0023 -3.2406
   33ccc     C6  964   7.191   8.901   1.902  0.1898  0.0942  0.8049
   33ccc     O1  965   7.164   8.855   2.010 -0.2874  0.3124 -0.2644
   33ccc     O2  966   7.205   9.036   1.911  0.1652  0.2266 -0.7360
   33ccc    H11  967   7.203   9.062   1.817 -0.0027  3.7960  0.1836
   33ccc     C7  968   6.885   8.793   1.622 -0.6518  0.8434  0.2438
   33ccc    H12  969   6.898   8.770   1.516 -0.1532  0.1514  0.4564
   33ccc    H13  970   6.803   8.728   1.654  1.0022 -0.9218  1.0123
   33ccc     C8  971   6.845   8.941   1.652 -0.6498 -0.4650  0.0810
   33ccc    H14  972   6.839   8.967   1.758 -2.7021  1.0212 -0.3576
   33ccc    H15  973   6.922   8.999   1.601 -0.4783 -0.3563  0.4658
   33ccc     C9  974   6.718   8.967   1.581  0.4859 -0.5324  0.1432
   33ccc     O3  975   6.628   8.882   1.569  0.2789 -0.4860 -0.4469
   33ccc     O4  976   6.723   9.057   1.478  0.0561  0.1008  0.0010
   33ccc    H16  977   6.800   9.111   1.499  0.8545 -0.4175 -1.5668
   33ccc     O5  978   6.764   8.530   1.985 -0.3173 -0.3569 -0.0180
   34ccc     C1  979   7.339   8.265   1.971 -0.4910 -0.3045  0.1768
   34ccc     H1  980   7.408   8.219   2.042  0.0891  1.2439  0.6452
   34ccc     H2  981   7.248   8.204   1.967  0.2906 -1.4359 -0.3983
   34ccc     C2  982   7.383   8.271   1.828 -0.1391  0.0664  0.1870
   34ccc     H3  983   7.413   8.170   1.798 -2.3338 -1.3020  2.3971
   34ccc     H4  984   7.479   8.324   1.834  1.4379 -2.6534 -0.2112
   34ccc     C3  985   7.288   8.344   1.732  0.5168  0.3543 -0.8583
   34ccc     H5  986   7.293   8.453   1.750  1.3365  0.0475  0.9614
   34ccc     H6  987   7.181   8.320   1.739  0.4381  0.7856 -0.5289
   34ccc     N1  988   7.317   8.330   1.586  0.8235 -0.0069 -0.1206
   34ccc     C4  989   7.454   8.342   1.538  0.9756  0.3265  0.2657
   34ccc     H7  990   7.475   8.284   1.448  0.5243  0.9152 -0.2241
   34ccc     H8  991   7.521   8.292   1.609  2.7250  0.1862 -1.4344
   34ccc     C5  992   7.495   8.493   1.499 -0.0271 -0.1439 -0.0981
   34ccc     H9  993   7.462   8.517   1.397 -0.6924  0.2719  0.2060
   34ccc    H10  994   7.455   8.568   1.569 -1.0966 -0.6954 -0.1075
   34ccc     C6  995   7.639   8.525   1.507  0.3839  0.4325 -0.5111
   34ccc     O1  996   7.736   8.448   1.517 -0.0187 -0.4711  0.7219
   34ccc     O2  997   7.651   8.658   1.488 -0.2478  0.0862 -0.2628
   34ccc    H11  998   7.558   8.683   1.474 -0.0184 -0.4242 -3.0347
   34ccc     C7  999   7.219   8.406   1.493  0.8284 -0.5069  1.3309
   34ccc    H12 1000   7.202   8.511   1.520  0.5892 -0.4976  1.1499
   34ccc    H13 1001   7.253   8.411   1.389 -0.0611 -2.1797  0.9428
   34ccc     C8 1002   7.073   8.343   1.502  0.0283 -0.1326  0.2959
   34ccc    H14 1003   7.086   8.243   1.459  2.2015  0.1968  0.1227
   34ccc    H15 1004   7.022   8.336   1.599 -0.7308 -1.5106 -0.1845
   34ccc     C9 1005   6.968   8.412   1.413  0.0758  0.5707  0.3037
   34ccc     O3 1006   6.979   8.518   1.355 -0.4701  0.0765 -0.0866
   34ccc     O4 1007   6.838   8.372   1.420  0.0901  0.1186 -0.3807
   34ccc    H16 1008   6.837   8.284   1.462 -1.7023  0.2485 -0.1204
   34ccc     O5 1009   7.316   8.401   2.022 -0.4791  0.3503  0.0617
   35ccc     C1 1010   8.291   7.197   2.471 -0.6953  0.5782 -0.5205
   35ccc     H1 1011   8.301   7.306   2.476  1.4965  0.4758 -1.8835
   35ccc     H2 1012   8.230   7.165   2.557 -2.0908  1.7767 -1.0491
   35ccc     C2 1013   8.430   7.136   2.458  0.0983  0.1476  0.3961
   35ccc     H3 1014   8.457   7.160   2.355 -0.1393  0.9950  0.5305
   35ccc     H4 1015   8.432   7.026   2.465 -0.5547  0.1582  0.8105
   35ccc     C3 1016   8.544   7.174   2.549 -0.7156  0.2191  0.3923
   35ccc     H5 1017   8.632   7.110   2.534  2.0209  3.4971  1.7912
   35ccc     H6 1018   8.498   7.172   2.649 -1.2966 -1.0067  0.1135
   35ccc     N1 1019   8.586   7.311   2.528  0.0653 -0.3915  0.1590
   35ccc     C4 1020   8.612   7.390   2.650  0.3631 -0.1905 -0.8996
   35ccc     H7 1021   8.673   7.478   2.627 -1.3704  1.0885 -0.6956
   35ccc     H8 1022   8.658   7.325   2.725  0.9857  0.6702 -0.5358
   35ccc     C5 1023   8.480   7.439   2.710  0.5506  0.4834  0.2304
   35ccc     H9 1024   8.410   7.470   2.631 -0.6016  2.3739  1.9262
   35ccc    H10 1025   8.432   7.363   2.773 -0.7083  1.8874  0.9908
   35ccc     C6 1026   8.510   7.562   2.790  0.2379 -0.5017  0.0539
   35ccc     O1 1027   8.619   7.575   2.846 -0.3973 -0.0676  0.3062
   35ccc     O2 1028   8.411   7.640   2.823 -0.0414  0.1144  0.4611
   35ccc    H11 1029   8.337   7.592   2.782  0.8132 -1.2798  0.5075
   35ccc     C7 1030   8.665   7.340   2.406 -0.5630  0.1715 -0.3349
   35ccc    H12 1031   8.637   7.269   2.327  1.0089 -1.2140  0.3332
   35ccc    H13 1032   8.772   7.320   2.422 -0.5662  0.4339  0.0105
   35ccc     C8 1033   8.639   7.475   2.350 -0.5811 -0.0758  0.5961
   35ccc    H14 1034   8.533   7.486   2.324 -0.2979 -1.7287 -1.5008
   35ccc    H15 1035   8.673   7.553   2.418  0.2977 -0.2023  0.3032
   35ccc     C9 1036   8.713   7.506   2.222 -0.8968 -0.4306  0.5857
   35ccc     O3 1037   8.697   7.433   2.127 -0.6112 -0.4280  0.5372
   35ccc     O4 1038   8.724   7.634   2.189 -0.0403 -0.0426  0.2174
   35ccc    H16 1039   8.730   7.671   2.278 -1.3708  0.9828 -0.1004
   35ccc     O5 1040   8.211   7.174   2.353 -0.0841  0.5712  0.1678
   36ccc     C1 1041   8.418   7.762   2.058  0.3920  0.3241 -0.0965
   36ccc     H1 1042   8.329   7.818   2.087  2.2775  2.9898  0.7464
   36ccc     H2 1043   8.499   7.787   2.128  1.8985 -3.0812 -0.4728
   36ccc     C2 1044   8.451   7.809   1.916 -0.2096  0.1925  0.4478
   36ccc     H3 1045   8.369   7.770   1.854 -1.2728  0.8779  1.3969
   36ccc     H4 1046   8.545   7.763   1.885  0.0977  1.4436 -0.5169
   36ccc     C3 1047   8.470   7.965   1.911 -0.5876  0.7079  0.4093
   36ccc     H5 1048   8.558   7.981   1.975  0.2223 -1.0766 -0.2199
   36ccc     H6 1049   8.387   8.015   1.961 -0.0595  0.5733  1.4317
   36ccc     N1 1050   8.485   8.010   1.769  0.2857 -0.0341 -0.5286
   36ccc     C4 1051   8.548   8.140   1.747 -0.7688  0.3853  0.3057
   36ccc     H7 1052   8.467   8.209   1.774  0.1415  1.0109  1.5001
   36ccc     H8 1053   8.574   8.156   1.642  1.0238 -1.7633  0.4000
   36ccc     C5 1054   8.679   8.166   1.825 -0.1371  0.0895  0.0573
   36ccc     H9 1055   8.749   8.081   1.833 -0.5918 -0.1520  1.8227
   36ccc    H10 1056   8.742   8.238   1.773 -0.3586  1.1790  1.2689
   36ccc     C6 1057   8.661   8.216   1.968 -0.5217 -0.9453  0.4795
   36ccc     O1 1058   8.549   8.253   2.014 -0.6646  0.2328  0.0473
   36ccc     O2 1059   8.770   8.273   2.023 -0.1671 -0.6306 -0.2396
   36ccc    H11 1060   8.840   8.238   1.965  0.4414 -0.2083  0.2336
   36ccc     C7 1061   8.354   7.995   1.695 -0.5633 -0.3358 -0.2781
   36ccc    H12 1062   8.318   7.891   1.696  0.2252 -0.6166  0.9652
   36ccc    H13 1063   8.275   8.050   1.747 -2.2643 -2.1032 -0.9453
   36ccc     C8 1064   8.368   8.037   1.549  0.5602 -0.4972 -0.4552
   36ccc    H14 1065   8.276   8.014   1.493  0.3773  2.3103 -1.3754
   36ccc    H15 1066   8.384   8.143   1.525 -0.3188 -0.4514 -0.8496
   36ccc     C9 1067   8.474   7.970   1.471 -0.3493 -0.4593 -0.4046
   36ccc     O3 1068   8.550   7.884   1.515 -0.7246  0.0674 -0.0125
   36ccc     O4 1069   8.479   8.011   1.348  0.3508 -0.1127  0.1780
   36ccc    H16 1070   8.425   8.092   1.342  2.8913  1.6241 -0.3455
   36ccc     O5 1071   8.393   7.618   2.055 -0.5841 -0.0878 -0.0117
   37ccc     C1 1072   6.465   7.451   1.830 -0.4271  0.5062 -0.1705
   37ccc     H1 1073   6.433   7.406   1.925 -0.9123 -1.8221 -1.4087
   37ccc     H2 1074   6.403   7.541   1.817  0.8464  1.3529 -0.5206
   37ccc     C2 1075   6.459   7.352   1.713 -0.0080 -0.0912 -0.5206
   37ccc     H3 1076   6.360   7.306   1.702  0.8324 -2.3726  1.1285
   37ccc     H4 1077   6.521   7.267   1.745 -1.5368 -1.1590 -0.3255
   37ccc     C3 1078   6.523   7.405   1.583  0.5799 -0.6190  0.7185
   37ccc     H5 1079   6.628   7.426   1.603  0.2918 -0.1257  1.7670
   37ccc     H6 1080   6.482   7.500   1.548  2.0185 -0.0874  0.4783
   37ccc     N1 1081   6.513   7.304   1.476  0.1892 -0.4999 -0.2299
   37ccc     C4 1082   6.379   7.304   1.412 -0.0447  0.0428 -0.1946
   37ccc     H7 1083   6.307   7.281   1.492  0.7190 -0.3050  0.4048
   37ccc     H8 1084   6.372   7.227   1.335 -0.2168  0.6532 -0.7883
   37ccc     C5 1085   6.332   7.438   1.355 -0.3226 -0.3404 -0.2253
   37ccc     H9 1086   6.289   7.502   1.434  0.8613 -1.2138  1.1552
   37ccc    H10 1087   6.421   7.489   1.317  0.0964 -2.9420 -2.8728
   37ccc     C6 1088   6.233   7.430   1.238  0.0783 -0.9384 -0.2748
   37ccc     O1 1089   6.161   7.341   1.197 -0.1784 -0.1340  0.3730
   37ccc     O2 1090   6.192   7.543   1.183  0.5897 -0.8308 -0.3039
   37ccc    H11 1091   6.247   7.612   1.224 -0.7547  0.4917 -0.6489
   37ccc     C7 1092   6.629   7.303   1.376 -0.0500 -0.2066  0.0493
   37ccc    H12 1093   6.595   7.229   1.302  2.9114 -1.2256 -0.3513
   37ccc    H13 1094   6.645   7.394   1.316 -1.7608 -1.4472 -2.3951
   37ccc     C8 1095   6.769   7.249   1.436  0.0080  0.4481 -0.3859
   37ccc    H14 1096   6.751   7.211   1.538  2.1059 -1.0271 -0.5144
   37ccc    H15 1097   6.817   7.173   1.373  1.5177  0.3867  0.7872
   37ccc     C9 1098   6.869   7.363   1.450 -0.4648 -0.8427  0.6812
   37ccc     O3 1099   6.865   7.453   1.535 -0.2693 -0.4132 -0.0224
   37ccc     O4 1100   6.963   7.376   1.355 -0.3220  0.6203 -0.1832
   37ccc    H16 1101   6.925   7.320   1.284 -0.4907  2.0639 -1.2554
   37ccc     O5 1102   6.603   7.501   1.844  0.2648 -0.3145 -1.1757
   38ccc     C1 1103   7.239   7.459   1.764  0.3813  0.4200 -0.8820
   38ccc     H1 1104   7.240   7.385   1.683  0.3648 -0.4339 -0.1058
   38ccc     H2 1105   7.191   7.554   1.738 -0.7955 -0.8546 -3.5824
   38ccc     C2 1106   7.391   7.496   1.789  0.0058  0.7467  0.0950
   38ccc     H3 1107   7.439   7.409   1.837  0.8819  1.2450  0.1320
   38ccc     H4 1108   7.395   7.579   1.861 -0.9836  0.8382  0.0438
   38ccc     C3 1109   7.463   7.537   1.658 -0.4230  0.1781 -0.3908
   38ccc     H5 1110   7.557   7.581   1.695  0.3673  0.2677 -2.3980
   38ccc     H6 1111   7.406   7.624   1.624 -0.1029  1.5842  2.4923
   38ccc     N1 1112   7.483   7.439   1.547  0.1305 -0.1897  0.0113
   38ccc     C4 1113   7.554   7.314   1.584 -0.2099 -0.3190 -0.3343
   38ccc     H7 1114   7.500   7.272   1.670 -0.0947 -0.0969 -0.1516
   38ccc     H8 1115   7.652   7.350   1.619 -0.8952  1.0461  0.2506
   38ccc     C5 1116   7.560   7.208   1.471  0.1204 -0.1396  0.0692
   38ccc     H9 1117   7.621   7.241   1.386 -1.7902 -0.5265 -1.4926
   38ccc    H10 1118   7.460   7.187   1.431 -0.0466  0.5607  0.1176
   38ccc     C6 1119   7.621   7.079   1.538 -0.3835 -0.2606  0.3360
   38ccc     O1 1120   7.558   6.995   1.607 -0.3408 -0.2695 -0.8263
   38ccc     O2 1121   7.744   7.049   1.497  0.3169 -0.0513 -0.3231
   38ccc    H11 1122   7.769   7.127   1.444  0.4531 -2.5798 -4.2111
   38ccc     C7 1123   7.521   7.505   1.425 -0.4305  0.2641 -0.0231
   38ccc    H12 1124   7.539   7.612   1.435  1.3426 -0.1040  1.0703
   38ccc    H13 1125   7.612   7.461   1.382 -0.5129 -0.2102  0.2771
   38ccc     C8 1126   7.417   7.486   1.308  0.2966  0.2142 -0.2446
   38ccc    H14 1127   7.412   7.378   1.289 -1.1598 -0.2793  2.6157
   38ccc    H15 1128   7.320   7.515   1.350  1.4051  2.6639  0.6972
   38ccc     C9 1129   7.450   7.570   1.184 -0.6093 -0.4669 -0.6391
   38ccc     O3 1130   7.431   7.691   1.183 -0.2738  0.3697 -0.2388
   38ccc     O4 1131   7.536   7.516   1.096 -0.3174 -0.5139 -0.0571
   38ccc    H16 1132   7.528   7.423   1.123 -1.3698 -0.5884 -0.6095
   38ccc     O5 1133   7.183   7.399   1.881 -0.1418  0.2350  0.4752
   39ccc     C1 1134   6.734   7.942   3.926  0.1109  0.2086  0.4673
   39ccc     H1 1135   6.831   7.990   3.917 -0.1982  0.7461  0.0134
   39ccc     H2 1136   6.695   7.964   4.026 -1.2412 -0.4805  0.1102
   39ccc     C2 1137   6.757   7.794   3.894  0.5122 -0.0452  0.7704
   39ccc     H3 1138   6.839   7.754   3.955  0.9496 -0.3656 -0.0340
   39ccc     H4 1139   6.783   7.793   3.788 -1.2018  0.6856  0.3168
   39ccc     C3 1140   6.627   7.708   3.922  0.1802  0.2846 -0.5355
   39ccc     H5 1141   6.563   7.748   3.843 -0.4486  0.1692 -0.0890
   39ccc     H6 1142   6.589   7.743   4.019  1.7233 -0.8727  0.4942
   39ccc     N1 1143   6.643   7.563   3.892  0.0114  0.1205 -0.6809
   39ccc     C4 1144   6.754   7.489   3.954 -0.6087 -0.2717 -0.1271
   39ccc     H7 1145   6.843   7.536   3.910  0.5179 -0.5610  1.7812
   39ccc     H8 1146   6.752   7.384   3.922  0.8141  0.4643 -2.8264
   39ccc     C5 1147   6.763   7.495   4.110 -0.2866  0.1926  0.8264
   39ccc     H9 1148   6.775   7.601   4.133 -0.6563  0.2230  0.8813
   39ccc    H10 1149   6.664   7.454   4.136 -0.1966 -2.4173 -2.5737
   39ccc     C6 1150   6.878   7.416   4.168 -0.0236 -0.0170 -0.2508
   39ccc     O1 1151   6.992   7.441   4.142 -0.0056 -0.7291 -0.2297
   39ccc     O2 1152   6.847   7.293   4.207  0.2810  0.1713 -0.0542
   39ccc    H11 1153   6.757   7.315   4.239  0.9383  1.7820  0.7555
   39ccc     C7 1154   6.519   7.489   3.911 -0.1561  0.2251  0.3545
   39ccc    H12 1155   6.495   7.508   4.016  1.2579  1.2366  0.5137
   39ccc    H13 1156   6.527   7.380   3.906 -0.0659  0.1880  1.3511
   39ccc     C8 1157   6.403   7.550   3.831  0.0333  0.0229  0.2337
   39ccc    H14 1158   6.375   7.653   3.855 -1.0789 -0.3432  0.5178
   39ccc    H15 1159   6.436   7.549   3.726 -0.1366 -3.7747  0.1402
   39ccc     C9 1160   6.268   7.481   3.837  0.2924 -0.0033  0.1416
   39ccc     O3 1161   6.250   7.381   3.901 -0.1249  0.3376  0.3117
   39ccc     O4 1162   6.166   7.547   3.791  0.5382  0.0945 -0.5854
   39ccc    H16 1163   6.204   7.631   3.761  0.3539  0.0012 -1.0921
   39ccc     O5 1164   6.653   8.010   3.830  0.3870  0.8802  0.3227
   40ccc     C1 1165   5.921   8.512   3.879  0.1731  0.2612 -0.2957
   40ccc     H1 1166   5.898   8.618   3.860 -0.3592  0.3411  0.7760
   40ccc     H2 1167   5.837   8.446   3.851 -0.6762  0.8028  0.9390
   40ccc     C2 1168   5.947   8.484   4.028  0.1985 -0.7586  0.1539
   40ccc     H3 1169   5.846   8.497   4.069  0.1457 -1.5874  0.2996
   40ccc     H4 1170   6.016   8.561   4.065 -1.9623  1.8232 -1.0428
   40ccc     C3 1171   5.994   8.338   4.054  0.9415  0.7391  0.4719
   40ccc     H5 1172   6.094   8.337   4.009  0.2686 -0.8188 -1.0299
   40ccc     H6 1173   5.935   8.268   3.992  0.6371 -1.0725  2.7538
   40ccc     N1 1174   5.993   8.303   4.195  0.1666 -0.4405 -0.1940
   40ccc     C4 1175   6.008   8.158   4.206 -0.4068  0.2602  0.3932
   40ccc     H7 1176   5.926   8.115   4.148  1.1377  0.2207 -1.8275
   40ccc     H8 1177   5.995   8.134   4.312 -0.8790 -1.9279 -0.1366
   40ccc     C5 1178   6.146   8.102   4.156 -0.0495  0.8552 -0.2114
   40ccc     H9 1179   6.230   8.121   4.225  0.4653  0.8625 -0.8380
   40ccc    H10 1180   6.160   8.128   4.051  0.7268  0.2381 -0.2685
   40ccc     C6 1181   6.135   7.941   4.157  0.4219 -0.2041 -0.4636
   40ccc     O1 1182   6.057   7.877   4.225  0.1461  0.4079 -0.1768
   40ccc     O2 1183   6.227   7.871   4.085 -0.0240 -0.8107  0.0534
   40ccc    H11 1184   6.285   7.937   4.043  1.4268 -0.3052  2.6886
   40ccc     C7 1185   6.085   8.384   4.280 -0.3668 -0.2116 -0.1421
   40ccc    H12 1186   6.187   8.345   4.283 -0.3762 -0.1623  1.1527
   40ccc    H13 1187   6.112   8.482   4.238 -0.6192 -0.4669 -0.8969
   40ccc     C8 1188   6.026   8.399   4.425  0.0185  0.1229  0.5740
   40ccc    H14 1189   5.933   8.458   4.419 -0.2824 -0.6053 -3.1320
   40ccc    H15 1190   5.992   8.305   4.470  1.6336 -0.2912  0.9541
   40ccc     C9 1191   6.122   8.464   4.518 -0.5260  0.5994  0.1310
   40ccc     O3 1192   6.204   8.551   4.486  0.0171 -0.3935  0.2553
   40ccc     O4 1193   6.117   8.439   4.650 -0.4206  0.4211  0.2290
   40ccc    H16 1194   6.041   8.377   4.651 -0.6784  0.7589  1.6126
   40ccc     O5 1195   6.040   8.492   3.791 -0.3284 -0.0565  0.2868
   41ccc     C1 1196   5.689   7.889   3.479 -0.6359  1.2171 -0.0573
   41ccc     H1 1197   5.795   7.901   3.504  0.0519 -0.6367 -1.9191
   41ccc     H2 1198   5.629   7.976   3.508 -0.5691  1.4838 -0.7126
   41ccc     C2 1199   5.645   7.759   3.544  0.3204  0.1939 -0.3609
   41ccc     H3 1200   5.702   7.673   3.506 -0.9964 -0.4584 -0.9020
   41ccc     H4 1201   5.542   7.728   3.520  0.6556 -1.6332  0.4377
   41ccc     C3 1202   5.668   7.756   3.702  0.7354  0.3255 -0.7286
   41ccc     H5 1203   5.776   7.768   3.716  0.5704  0.4043  0.5203
   41ccc     H6 1204   5.617   7.844   3.744  0.1612 -1.1174  1.6864
   41ccc     N1 1205   5.611   7.645   3.778  0.5105 -0.3911 -0.0751
   41ccc     C4 1206   5.679   7.515   3.745  0.7743  0.2190  0.3953
   41ccc     H7 1207   5.664   7.486   3.641  0.6879 -4.4678  1.6279
   41ccc     H8 1208   5.622   7.438   3.798  1.1168  0.2844  0.8634
   41ccc     C5 1209   5.833   7.493   3.780 -0.0662  0.5094 -0.1160
   41ccc     H9 1210   5.890   7.569   3.724  0.9471 -0.5083 -0.4678
   41ccc    H10 1211   5.846   7.524   3.884  0.5476 -0.7203  0.1746
   41ccc     C6 1212   5.888   7.352   3.758 -0.0914 -0.4471 -0.1379
   41ccc     O1 1213   5.814   7.268   3.716 -0.6450  0.3111 -0.8703
   41ccc     O2 1214   6.020   7.339   3.730 -0.6460  0.2468  0.4866
   41ccc    H11 1215   6.055   7.425   3.760  0.0165  0.9773 -2.2450
   41ccc     C7 1216   5.463   7.636   3.773  0.1475 -0.5582  0.3336
   41ccc    H12 1217   5.430   7.579   3.686  0.1683 -1.0253  0.6329
   41ccc    H13 1218   5.431   7.573   3.857  1.2167 -2.7583 -0.8759
   41ccc     C8 1219   5.383   7.771   3.768 -0.0459  0.4566  0.2213
   41ccc    H14 1220   5.423   7.847   3.700 -1.2440  1.9071  1.0948
   41ccc    H15 1221   5.368   7.811   3.868  0.9361  0.6577  0.2892
   41ccc     C9 1222   5.232   7.748   3.728  0.0864 -0.1262  0.7667
   41ccc     O3 1223   5.178   7.644   3.707 -0.1545  0.1570 -0.1905
   41ccc     O4 1224   5.155   7.856   3.744 -0.1744  0.1365  0.3103
   41ccc    H16 1225   5.226   7.919   3.765  0.6838 -0.8155  0.3146
   41ccc     O5 1226   5.677   7.876   3.332 -0.6282  0.2244  0.5380
   42ccc     C1 1227   5.237   8.030   2.867  0.9412  0.7017 -0.1992
   42ccc     H1 1228   5.311   8.020   2.947 -0.5029 -1.2181  0.9405
   42ccc     H2 1229   5.155   8.097   2.894  0.5839  1.1863 -2.3328
   42ccc     C2 1230   5.178   7.894   2.830 -0.3776  0.0417 -0.4108
   42ccc     H3 1231   5.239   7.842   2.755 -1.7807 -0.6484 -1.0926
   42ccc     H4 1232   5.074   7.915   2.803 -0.3891  1.0030  0.3726
   42ccc     C3 1233   5.183   7.795   2.948 -0.3079  0.1531  0.0158
   42ccc     H5 1234   5.130   7.702   2.923  1.3087 -0.9558  0.6077
   42ccc     H6 1235   5.118   7.834   3.027  0.1145 -1.2795  1.0901
   42ccc     N1 1236   5.323   7.775   3.004 -0.2875  0.5072 -0.6556
   42ccc     C4 1237   5.412   7.684   2.927 -0.3367  0.4271 -0.5676
   42ccc     H7 1238   5.514   7.682   2.967 -0.2679  1.0960 -0.6917
   42ccc     H8 1239   5.419   7.726   2.826 -0.2710  0.0585 -0.7143
   42ccc     C5 1240   5.358   7.540   2.929 -0.1596 -0.3276  0.4804
   42ccc     H9 1241   5.337   7.512   3.033  1.9418  0.7407  1.2273
   42ccc    H10 1242   5.261   7.525   2.879 -0.7436 -0.2539  1.5822
   42ccc     C6 1243   5.457   7.444   2.870  0.1059 -0.7678 -0.3828
   42ccc     O1 1244   5.575   7.465   2.837  0.1505 -0.1962 -0.1538
   42ccc     O2 1245   5.413   7.322   2.841  0.6045  0.2176  0.0250
   42ccc    H11 1246   5.324   7.317   2.881  0.3040  1.5158 -0.4577
   42ccc     C7 1247   5.325   7.756   3.151 -0.1784  0.1947 -0.7998
   42ccc    H12 1248   5.422   7.715   3.182 -0.5324  1.7248  2.5631
   42ccc    H13 1249   5.250   7.679   3.174  0.4793  0.0124  0.8138
   42ccc     C8 1250   5.299   7.885   3.226  0.3163  0.9846 -0.3717
   42ccc    H14 1251   5.205   7.930   3.190 -0.4473 -0.7476 -0.5936
   42ccc    H15 1252   5.385   7.950   3.206  0.5238 -0.0525 -3.0167
   42ccc     C9 1253   5.285   7.875   3.384 -0.6753 -0.0305 -0.1374
   42ccc     O3 1254   5.280   7.773   3.445  0.6982  0.3985  0.2370
   42ccc     O4 1255   5.294   7.992   3.444 -0.2113 -0.4165 -0.4246
   42ccc    H16 1256   5.266   8.060   3.380  2.5556  0.0649 -1.1860
   42ccc     O5 1257   5.308   8.063   2.739  0.6564 -0.2940  0.5257
   43ccc     C1 1258   6.999   7.745   1.230 -0.7719 -0.3179  0.5828
   43ccc     H1 1259   7.055   7.668   1.175  0.2796  0.8168  0.0170
   43ccc     H2 1260   6.927   7.707   1.303 -1.2965  0.8377  0.6769
   43ccc     C2 1261   6.934   7.826   1.121 -0.0823  0.0479  0.1229
   43ccc     H3 1262   6.868   7.901   1.167  0.3833  0.6949 -0.2597
   43ccc     H4 1263   6.874   7.756   1.063 -0.4600 -0.3173  0.9374
   43ccc     C3 1264   7.026   7.881   1.016  0.4214 -0.4435  0.2576
   43ccc     H5 1265   7.098   7.801   0.995  2.0122  0.7197  1.1918
   43ccc     H6 1266   7.074   7.968   1.063  0.3446 -0.4924  0.4229
   43ccc     N1 1267   6.950   7.933   0.895  0.7109  0.2166 -0.1224
   43ccc     C4 1268   7.049   7.960   0.796  0.9705 -0.4765  1.2545
   43ccc     H7 1269   6.996   7.993   0.706  0.6982 -0.2170  1.5112
   43ccc     H8 1270   7.115   7.878   0.766  0.3492 -0.1971 -1.0030
   43ccc     C5 1271   7.152   8.072   0.837  0.2289  0.0043  0.3415
   43ccc     H9 1272   7.216   8.026   0.914  1.8496  1.3829 -0.1562
   43ccc    H10 1273   7.098   8.160   0.874 -0.1606  0.6327 -1.6877
   43ccc     C6 1274   7.235   8.118   0.719  0.1735 -0.4256 -0.0228
   43ccc     O1 1275   7.199   8.211   0.646 -0.5648  0.0091 -0.0499
   43ccc     O2 1276   7.344   8.042   0.691  0.2852 -0.5070 -0.2883
   43ccc    H11 1277   7.323   7.972   0.755 -2.5423 -0.6197 -1.2652
   43ccc     C7 1278   6.857   8.041   0.925  0.2968  0.0746 -0.5091
   43ccc    H12 1279   6.777   8.021   0.997  0.5011  0.0045 -0.2998
   43ccc    H13 1280   6.912   8.119   0.979  0.4595 -0.7650  0.5528
   43ccc     C8 1281   6.778   8.084   0.801  0.2949  0.3542 -0.1176
   43ccc    H14 1282   6.845   8.134   0.730  1.8863 -1.1704  0.2925
   43ccc    H15 1283   6.696   8.156   0.819 -1.2161 -1.1306 -0.9374
   43ccc     C9 1284   6.707   7.963   0.743  0.1060 -0.0389  1.0350
   43ccc     O3 1285   6.619   7.894   0.791 -0.2416  0.2018 -0.3087
   43ccc     O4 1286   6.744   7.931   0.622  0.2483  0.2212  0.3252
   43ccc    H16 1287   6.793   8.006   0.584  0.5519  0.2163  0.7098
   43ccc     O5 1288   7.096   7.820   1.305  0.1763 -0.3940  0.2193
   44ccc     C1 1289   7.607   7.925   1.832 -0.3997  0.2104  0.3730
   44ccc     H1 1290   7.628   8.026   1.870 -0.0839  0.7390 -1.1754
   44ccc     H2 1291   7.643   7.853   1.907  0.9708  0.3306 -0.1704
   44ccc     C2 1292   7.675   7.914   1.691  0.9484 -0.2902 -0.0238
   44ccc     H3 1293   7.694   7.808   1.670 -0.3594 -0.3849 -0.7557
   44ccc     H4 1294   7.775   7.956   1.707  0.5690  0.6789 -0.1224
   44ccc     C3 1295   7.610   7.987   1.567  0.0003  0.2481 -0.1412
   44ccc     H5 1296   7.637   8.093   1.564 -0.1762  0.3341  1.1559
   44ccc     H6 1297   7.501   7.984   1.576  0.0522 -0.0135  0.4025
   44ccc     N1 1298   7.642   7.927   1.437 -0.5327  0.4621 -0.2007
   44ccc     C4 1299   7.780   7.912   1.409  0.1533 -0.0600 -0.2971
   44ccc     H7 1300   7.788   7.852   1.317  2.0916 -2.2865  1.2502
   44ccc     H8 1301   7.835   7.854   1.484 -0.1429  0.3589  0.2511
   44ccc     C5 1302   7.862   8.045   1.377 -0.1347 -0.1282 -0.2425
   44ccc     H9 1303   7.852   8.110   1.465  1.3308 -1.2586  0.7885
   44ccc    H10 1304   7.811   8.091   1.292 -2.2404  1.6700  1.9360
   44ccc     C6 1305   8.005   8.036   1.336  0.0030 -0.9573 -0.5891
   44ccc     O1 1306   8.066   7.928   1.343 -0.1008  0.0105  0.2390
   44ccc     O2 1307   8.060   8.149   1.283  0.1118  0.1321 -0.4828
   44ccc    H11 1308   7.992   8.218   1.297 -0.1289  0.4592 -3.0103
   44ccc     C7 1309   7.565   7.983   1.321 -0.1278 -0.2227 -0.1812
   44ccc    H12 1310   7.582   8.091   1.311 -1.1826 -0.0326 -0.0331
   44ccc    H13 1311   7.588   7.924   1.232 -0.4300 -0.2442 -0.2456
   44ccc     C8 1312   7.412   7.955   1.336  0.1239  0.1373 -0.5572
   44ccc    H14 1313   7.406   7.848   1.358 -2.7062  0.6276  1.3137
   44ccc    H15 1314   7.355   8.007   1.415 -1.1362 -0.5213 -1.0165
   44ccc     C9 1315   7.332   7.998   1.215  0.0914  0.1734  0.2319
   44ccc     O3 1316   7.296   8.110   1.185  0.4623 -0.2416 -1.1010
   44ccc     O4 1317   7.365   7.926   1.109  0.0196 -0.0904  0.4778
   44ccc    H16 1318   7.419   7.856   1.150  1.5279 -0.1865 -1.5763
   44ccc     O5 1319   7.463   7.914   1.820  0.4624 -0.3719  0.0832
   45ccc     C1 1320   5.742   7.646   2.613 -0.1502  0.1572  0.6366
   45ccc     H1 1321   5.708   7.639   2.717 -0.9717 -1.7616  0.2574
   45ccc     H2 1322   5.779   7.748   2.597  0.6921 -0.1569  0.5747
   45ccc     C2 1323   5.628   7.649   2.516  0.0777  0.3750 -0.3582
   45ccc     H3 1324   5.669   7.675   2.417  1.7367 -2.9604 -0.6217
   45ccc     H4 1325   5.558   7.729   2.543 -0.6544  0.2661 -1.8660
   45ccc     C3 1326   5.551   7.512   2.505 -0.0974  0.8613 -0.4091
   45ccc     H5 1327   5.502   7.504   2.603  0.2779 -2.8625 -0.4455
   45ccc     H6 1328   5.621   7.428   2.497 -2.0799 -0.7861 -1.0483
   45ccc     N1 1329   5.449   7.503   2.397  0.4622  0.3201 -0.0901
   45ccc     C4 1330   5.335   7.589   2.393  0.3611 -0.2403 -0.4170
   45ccc     H7 1331   5.283   7.591   2.297 -0.2476 -0.3970 -0.1001
   45ccc     H8 1332   5.372   7.692   2.401 -1.5732  0.5994 -1.9469
   45ccc     C5 1333   5.236   7.558   2.508  0.0895 -0.1564 -0.0665
   45ccc     H9 1334   5.296   7.572   2.599 -0.5341  0.0327  0.3190
   45ccc    H10 1335   5.152   7.628   2.503  0.5487  0.3539 -0.6820
   45ccc     C6 1336   5.188   7.414   2.509 -0.0627  0.5070  0.2588
   45ccc     O1 1337   5.253   7.323   2.555 -0.3136  0.4350 -0.0141
   45ccc     O2 1338   5.101   7.385   2.416 -0.5986  0.7250 -0.3477
   45ccc    H11 1339   5.065   7.474   2.398 -1.6519  0.1684 -1.0728
   45ccc     C7 1340   5.516   7.475   2.264 -0.4095 -0.3785 -0.0136
   45ccc    H12 1341   5.571   7.563   2.230 -0.6773 -0.0628  0.3620
   45ccc    H13 1342   5.588   7.394   2.283 -1.3903 -1.5046 -1.0186
   45ccc     C8 1343   5.427   7.416   2.153  0.4295  0.3362 -0.0007
   45ccc    H14 1344   5.379   7.328   2.197  0.7414 -0.0264 -0.3866
   45ccc    H15 1345   5.350   7.487   2.120 -0.5812  0.6065  2.7532
   45ccc     C9 1346   5.506   7.383   2.023  0.0234 -0.2768  0.6119
   45ccc     O3 1347   5.568   7.277   2.008  0.2620 -0.7577 -0.2784
   45ccc     O4 1348   5.548   7.484   1.953 -1.0400 -0.6196  0.1286
   45ccc    H16 1349   5.501   7.558   1.996 -1.3381 -1.4340  1.2291
   45ccc     O5 1350   5.844   7.540   2.571 -0.0385 -0.2809  0.0031
   46ccc     C1 1351   6.427   7.106   3.227  0.1427  0.6457  0.4613
   46ccc     H1 1352   6.346   7.087   3.298 -1.5937 -2.5269 -2.1880
   46ccc     H2 1353   6.482   7.019   3.188  0.5702  1.6123 -1.1196
   46ccc     C2 1354   6.534   7.193   3.292 -0.2302  0.0367  0.1605
   46ccc     H3 1355   6.470   7.280   3.310 -0.3852 -0.0954  0.2363
   46ccc     H4 1356   6.618   7.210   3.223  1.6730 -3.2192  1.5559
   46ccc     C3 1357   6.589   7.131   3.428  0.9680  0.0070  0.4370
   46ccc     H5 1358   6.629   7.030   3.415  0.3809 -0.2203  0.4363
   46ccc     H6 1359   6.517   7.126   3.510 -0.9091 -2.4566 -1.3012
   46ccc     N1 1360   6.699   7.219   3.479 -0.1013 -0.1978 -0.3068
   46ccc     C4 1361   6.803   7.153   3.562  0.4513 -0.8410 -0.5629
   46ccc     H7 1362   6.837   7.061   3.514  1.0563 -1.2365  0.5971
   46ccc     H8 1363   6.879   7.228   3.586 -1.1194  0.8746 -0.7949
   46ccc     C5 1364   6.741   7.112   3.696 -0.2058 -0.0102  0.5008
   46ccc     H9 1365   6.720   7.204   3.753 -0.4691 -0.0994  0.5509
   46ccc    H10 1366   6.643   7.063   3.687 -0.6996  1.1227 -0.5413
   46ccc     C6 1367   6.838   7.037   3.785  0.1731 -0.1990  0.2393
   46ccc     O1 1368   6.947   7.008   3.748 -0.0392 -0.1842 -0.0230
   46ccc     O2 1369   6.806   7.011   3.911 -0.2812 -0.3757  0.8845
   46ccc    H11 1370   6.736   7.074   3.934 -3.5467 -2.7854 -1.9720
   46ccc     C7 1371   6.646   7.353   3.534  0.5321  0.8276 -0.0141
   46ccc    H12 1372   6.588   7.340   3.626  0.1575 -0.3910 -0.4239
   46ccc    H13 1373   6.583   7.399   3.457 -0.2238  0.4180  0.3613
   46ccc     C8 1374   6.754   7.455   3.571 -0.6563 -0.1130  0.1886
   46ccc    H14 1375   6.833   7.458   3.494  0.3556 -0.7418  1.1860
   46ccc    H15 1376   6.803   7.426   3.664 -0.6432  2.2393  0.9525
   46ccc     C9 1377   6.697   7.599   3.574  0.3884  0.2898 -0.1467
   46ccc     O3 1378   6.589   7.635   3.533 -0.2312  0.2766  0.1537
   46ccc     O4 1379   6.792   7.693   3.562 -0.6976  0.4047  0.0398
   46ccc    H16 1380   6.866   7.634   3.582 -0.0990  0.6981 -1.2517
   46ccc     O5 1381   6.369   7.175   3.113 -0.1345  0.0298 -0.3680
   47SOL     OW 1382   0.413   2.151   2.365  0.6934 -0.3006 -0.1951
   47SOL    HW1 1383   0.495   2.182   2.405  1.1449 -1.5953 -0.0894
   47SOL    HW2 1384   0.378   2.088   2.429 -0.4284  0.3010 -0.2077
   48SOL     OW 1385   2.511   7.570   7.214 -0.6291  0.1455 -0.0506
   48SOL    HW1 1386   2.471   7.485   7.231 -1.5211  0.5632 -0.0559
   48SOL    HW2 1387   2.519   7.573   7.118 -1.0798  0.2869 -0.0847
   49SOL     OW 1388   2.730   5.676   6.015 -0.2286  0.0230 -0.0497
   49SOL    HW1 1389   2.723   5.651   5.923 -1.9327  0.6494 -0.1131
   49SOL    HW2 1390   2.815   5.642   6.043  1.3384  1.7865 -2.4740
   50SOL     OW 1391   6.604   3.626   7.577 -0.7693  0.1359  0.2461
   50SOL    HW1 1392   6.693   3.618   7.544 -0.3123 -0.2781  1.5758
   50SOL    HW2 1393   6.605   3.705   7.631 -0.9206 -0.4922  1.1729
   51SOL     OW 1394   1.240   3.352   2.761 -0.0094  0.4692 -0.3435
   51SOL    HW1 1395   1.205   3.291   2.826  1.6227  0.7370  0.8452
   51SOL    HW2 1396   1.169   3.366   2.699 -0.3364 -2.8286 -0.7699
   52SOL     OW 1397   2.319   1.719   4.123  0.2445 -0.4899  0.8283
   52SOL    HW1 1398   2.335   1.653   4.191 -2.7926 -1.7525  0.4035
   52SOL    HW2 1399   2.332   1.671   4.041  1.7794  0.4599  0.5136
   53SOL     OW 1400   1.384   2.357   7.535 -0.2851 -0.6547  0.8030
   53SOL    HW1 1401   1.347   2.326   7.617 -0.7944  3.1155  2.0920
   53SOL    HW2 1402   1.459   2.411   7.561 -0.0593  0.0644 -1.2243
   54SOL     OW 1403   3.527   7.073   6.679 -0.2418  0.2604  0.1191
   54SOL    HW1 1404   3.470   7.150   6.687 -1.2044 -0.3834 -0.4745
   54SOL    HW2 1405   3.612   7.109   6.653 -0.7415  1.1171 -0.3510
   55SOL     OW 1406   7.289   0.936   4.189 -0.3884  0.1166 -0.3009
   55SOL    HW1 1407   7.330   0.938   4.102 -1.2790 -1.4041 -0.7675
   55SOL    HW2 1408   7.208   0.886   4.176 -1.1635  0.9821  1.1398
   56SOL     OW 1409   5.779   7.139   6.001 -0.5090 -0.1839  0.0113
   56SOL    HW1 1410   5.843   7.203   5.968 -0.3727  0.7486  2.0250
   56SOL    HW2 1411   5.695   7.168   5.966 -0.2235  0.1699 -0.3829
   57SOL     OW 1412   4.021   0.101   7.064  0.1259  0.3688 -0.0405
   57SOL    HW1 1413   3.928   0.104   7.088 -0.1393  1.6505 -1.1691
   57SOL    HW2 1414   4.062   0.049   7.133 -1.3965 -0.0235  0.5878
   58SOL     OW 1415   5.307   3.932   4.966 -0.0446 -0.1470 -0.4113
   58SOL    HW1 1416   5.283   3.841   4.952  1.3470 -0.2607 -2.3143
   58SOL    HW2 1417   5.398   3.938   4.938  0.1929  1.6226  0.6257
   59SOL     OW 1418   7.476   5.485   7.289 -0.1787 -0.0712  0.0381
   59SOL    HW1 1419   7.493   5.391   7.275 -0.2934 -0.0993  0.0842
   59SOL    HW2 1420   7.459   5.519   7.201 -0.1396 -0.0944  0.0215
   60SOL     OW 1421   2.343   0.693   7.784  0.2272 -0.2953 -0.1251
   60SOL    HW1 1422   2.311   0.757   7.847  0.6451 -0.5781  0.3736
   60SOL    HW2 1423   2.421   0.735   7.746  1.1733 -0.9742  1.0257
   61SOL     OW 1424   3.192   3.465   2.365 -0.2624  0.9300  0.5358
   61SOL    HW1 1425   3.183   3.544   2.312 -2.0887 -0.9433 -2.0592
   61SOL    HW2 1426   3.140   3.483   2.443 -2.9034  1.3148 -1.2490
   62SOL     OW 1427   5.723   8.290   6.089  0.5530 -0.0348 -0.2183
   62SOL    HW1 1428   5.655   8.248   6.036 -0.3721  0.7917  0.3072
   62SOL    HW2 1429   5.741   8.228   6.160 -0.4812  0.2615  0.2984
   63SOL     OW 1430   4.970   5.750   3.616  0.0873  0.2300  0.1332
   63SOL    HW1 1431   5.060   5.722   3.602 -0.8330 -2.5176 -0.4600
   63SOL    HW2 1432   4.917   5.671   3.604 -2.4421  1.8479  0.1434
   64SOL     OW 1433   4.228   1.717   5.881 -0.8039 -0.5702 -0.0368
   64SOL    HW1 1434   4.164   1.749   5.944 -1.9347  0.4449 -1.6845
   64SOL    HW2 1435   4.229   1.622   5.894 -1.6561 -0.4483  0.9161
   65SOL     OW 1436   7.218   3.287   3.391  0.3532 -0.0838  0.2781
   65SOL    HW1 1437   7.273   3.228   3.339 -0.4991 -0.2543 -0.4366
   65SOL    HW2 1438   7.154   3.230   3.433 -0.7182  0.3775 -0.7266
   66SOL     OW 1439   6.597   1.348   2.202  1.2777 -0.0687 -0.5273
   66SOL    HW1 1440   6.533   1.344   2.272 -1.9191  1.4988 -3.2299
   66SOL    HW2 1441   6.602   1.258   2.169 -1.1922  0.1494 -1.6323
   67SOL     OW 1442   6.080   1.478   4.086  0.1386  0.3336  0.2836
   67SOL    HW1 1443   6.097   1.564   4.124 -0.5358  0.6236 -0.0543
   67SOL    HW2 1444   6.073   1.494   3.992  1.1390 -0.2750  0.1021
   68SOL     OW 1445   4.360   7.169   7.407  0.3145  0.6567  0.5682
   68SOL    HW1 1446   4.330   7.233   7.472 -0.5268  0.4209  0.4171
   68SOL    HW2 1447   4.341   7.084   7.446 -1.1590  0.5187 -0.4270
   69SOL     OW 1448   3.572   7.791   5.383 -1.3097 -0.3399 -0.6104
   69SOL    HW1 1449   3.503   7.836   5.334 -0.6286  1.8014  0.3680
   69SOL    HW2 1450   3.647   7.789   5.323 -1.2944 -0.0404 -0.6001
   70SOL     OW 1451   4.740   5.443   1.413 -0.1702  0.0775 -0.1919
   70SOL    HW1 1452   4.693   5.489   1.343  0.1981  0.3064 -0.2888
   70SOL    HW2 1453   4.705   5.354   1.411  2.2233 -0.8669 -2.9064
   71SOL     OW 1454   3.336   4.334   1.333  0.0315 -0.0194  0.6280
   71SOL    HW1 1455   3.382   4.327   1.249 -0.6540 -1.9915  0.3725
   71SOL    HW2 1456   3.394   4.291   1.396 -0.0943  0.1764  0.8757
   72SOL     OW 1457   6.527   3.585   3.715 -0.5988  0.0659 -0.8720
   72SOL    HW1 1458   6.589   3.649   3.750 -2.7228  0.6974  1.9138
   72SOL    HW2 1459   6.580   3.508   3.696  1.4218  1.4219 -0.8187
   73SOL     OW 1460   2.062   6.087   7.459  0.3504 -0.3696 -0.1013
   73SOL    HW1 1461   2.088   6.089   7.551 -0.6911  0.2470  0.1972
   73SOL    HW2 1462   1.986   6.029   7.457 -0.6578  0.9131 -0.2712
   74SOL     OW 1463   3.522   7.568   5.480  0.0485 -0.1768 -0.4715
   74SOL    HW1 1464   3.543   7.658   5.454 -1.8897  0.6745  0.7808
   74SOL    HW2 1465   3.458   7.539   5.415 -0.5200 -0.0598  0.0238
   75SOL     OW 1466   4.995   6.216   5.237 -0.1789 -0.5555  0.3983
   75SOL    HW1 1467   5.082   6.248   5.258 -0.3945  0.1873  0.1528
   75SOL    HW2 1468   4.972   6.161   5.312 -0.3491  0.9281  1.4654
   76SOL     OW 1469   7.123   2.885   2.892 -0.5505 -0.3234 -0.2002
   76SOL    HW1 1470   7.217   2.901   2.907  0.0562 -2.3221 -1.5779
   76SOL    HW2 1471   7.080   2.917   2.970  1.2078  1.5595  0.0336
   77SOL     OW 1472   5.442   0.328   4.781  0.4836 -0.3812  0.1955
   77SOL    HW1 1473   5.493   0.373   4.713  0.1687  2.3085  1.6771
   77SOL    HW2 1474   5.358   0.310   4.740  0.8390 -0.2016 -0.6224
   78SOL     OW 1475   3.049   1.628   0.986  0.3081  0.4053 -0.5064
   78SOL    HW1 1476   3.046   1.565   1.058  1.9009 -0.5138 -1.2240
   78SOL    HW2 1477   2.979   1.599   0.926 -0.6202  0.8223  0.3592
   79SOL     OW 1478   8.150   2.453   6.882 -0.9473  0.2330 -0.1276
   79SOL    HW1 1479   8.101   2.451   6.965  0.1663  1.8840  0.5878
   79SOL    HW2 1480   8.242   2.454   6.908 -0.5892  1.0581 -1.3885
   80SOL     OW 1481   1.914   5.909   0.246  0.4339  0.2718 -0.2063
   80SOL    HW1 1482   1.891   6.001   0.239  0.1396  0.4078  2.1610
   80SOL    HW2 1483   1.838   5.862   0.211  0.4168  0.8935 -1.0219
   81SOL     OW 1484   7.705   1.178   1.241  0.9563  0.2941  0.3779
   81SOL    HW1 1485   7.659   1.186   1.324  1.1595  1.1568  0.4063
   81SOL    HW2 1486   7.683   1.258   1.193  0.2445 -0.5259 -0.6928
   82SOL     OW 1487   7.150   6.062   7.468 -0.5130 -0.2007 -0.0753
   82SOL    HW1 1488   7.193   6.141   7.500 -1.0055 -0.3260  0.8942
   82SOL    HW2 1489   7.147   6.004   7.544 -0.1742 -1.1440 -0.7736
   83SOL     OW 1490   0.361   6.799   4.701  0.3275  0.3934  0.7059
   83SOL    HW1 1491   0.327   6.730   4.758  0.0647  0.4873  0.6632
   83SOL    HW2 1492   0.381   6.754   4.618 -2.0845  0.7887 -0.1349
   84SOL     OW 1493   1.887   4.396   5.657 -0.7675  0.0224  0.6564
   84SOL    HW1 1494   1.901   4.380   5.750 -0.0142 -0.8176  0.4067
   84SOL    HW2 1495   1.946   4.467   5.635  0.7594 -1.3169  0.3284
   85SOL     OW 1496   7.825   0.566   2.888 -0.2197 -0.5753  0.0322
   85SOL    HW1 1497   7.737   0.578   2.852  1.0943 -1.1398 -3.5637
   85SOL    HW2 1498   7.878   0.632   2.844  1.5675 -1.6264  0.5651
   86SOL     OW 1499   5.952   2.007   2.515 -0.5831  0.1198  0.4266
   86SOL    HW1 1500   6.006   2.084   2.497 -2.1567  1.3717  0.9014
   86SOL    HW2 1501   5.926   2.018   2.607 -0.8741 -0.9302  0.4709
   87SOL     OW 1502   2.140   0.832   2.362 -0.0857 -0.5038 -0.6416
   87SOL    HW1 1503   2.132   0.789   2.447  1.3577 -0.4426 -0.4572
   87SOL    HW2 1504   2.225   0.875   2.365  0.4359 -1.3590 -2.5042
   88SOL     OW 1505   0.648   5.649   5.134 -0.0508  0.1829 -0.4247
   88SOL    HW1 1506   0.556   5.653   5.159 -0.8303  1.6135 -3.3457
   88SOL    HW2 1507   0.663   5.557   5.114 -0.9754  0.0146 -0.3721
   89SOL     OW 1508   4.060   5.323   2.996  0.2650  0.2414  0.0233
   89SOL    HW1 1509   4.096   5.271   2.924  0.6311 -0.1147  0.4645
   89SOL    HW2 1510   4.135   5.364   3.037 -0.1559  2.2737 -1.2059
   90SOL     OW 1511   6.008   8.221   7.411  0.4437 -0.1635 -0.0825
   90SOL    HW1 1512   6.027   8.311   7.439  2.0639 -0.8355  1.0407
   90SOL    HW2 1513   6.089   8.173   7.428 -0.4686 -1.8803 -0.5015
   91SOL     OW 1514   1.872   0.931   0.345 -0.2006  0.5799 -0.0623
   91SOL    HW1 1515   1.819   0.860   0.309 -0.6784  0.8486  0.1002
   91SOL    HW2 1516   1.893   0.986   0.270  2.6882 -1.3070 -0.7133
   92SOL     OW 1517   5.846   4.987   4.736  0.7899  0.4273 -0.1335
   92SOL    HW1 1518   5.890   4.931   4.672  1.8870 -0.2830  1.2107
   92SOL    HW2 1519   5.911   5.001   4.805 -0.5127  0.7995  1.0467
   93SOL     OW 1520   0.926   1.209   7.111  0.3932 -0.1840 -0.0264
   93SOL    HW1 1521   0.943   1.203   7.205 -1.4763 -2.7949  0.1816
   93SOL    HW2 1522   0.859   1.277   7.103 -1.7901 -2.1660  0.8944
   94SOL     OW 1523   2.382   7.920   2.075  0.4212  0.1795 -0.1162
   94SOL    HW1 1524   2.301   7.899   2.027  0.4600 -0.1341 -0.0460
   94SOL    HW2 1525   2.449   7.864   2.035  0.4489 -0.1004  0.3201
   95SOL     OW 1526   1.627   0.931   7.139 -0.4531 -0.0097  0.3410
   95SOL    HW1 1527   1.600   0.991   7.069 -1.4486 -0.3677  0.4205
   95SOL    HW2 1528   1.637   0.988   7.216  0.3714  0.3382 -0.0082
   96SOL     OW 1529   6.382   5.793   7.925  0.2564 -0.3946  0.6132
   96SOL    HW1 1530   6.430   5.874   7.912  2.4556 -1.6816  0.5051
   96SOL    HW2 1531   6.322   5.811   7.998 -1.5843  2.2724 -1.4667
   97SOL     OW 1532   6.890   3.548   3.534  0.1220  0.2378  0.1763
   97SOL    HW1 1533   6.906   3.548   3.628  0.8969  0.1156  0.0429
   97SOL    HW2 1534   6.808   3.500   3.523 -0.0745  0.4263  0.8025
   98SOL     OW 1535   3.642   5.921   0.626  0.0011  0.3146 -0.0378
   98SOL    HW1 1536   3.633   5.895   0.534  1.0510  0.2820 -0.1406
   98SOL    HW2 1537   3.613   5.844   0.675 -1.1747  0.5610 -0.3388
   99SOL     OW 1538   4.501   5.071   3.544  0.0213  0.7663  0.0576
   99SOL    HW1 1539   4.590   5.066   3.579  0.0962  1.1820 -0.0730
   99SOL    HW2 1540   4.445   5.056   3.620  0.2132 -0.7094 -0.0803
  100SOL     OW 1541   3.340   4.975   5.108  0.1516  0.0150  0.2345
  100SOL    HW1 1542   3.326   5.055   5.058 -1.8313 -0.4812 -0.0629
  100SOL    HW2 1543   3.390   4.918   5.049  0.3691  0.5270 -0.0762
  101SOL     OW 1544   2.597   5.692   1.794 -0.1517  0.6271  0.1562
  101SOL    HW1 1545   2.581   5.785   1.810 -0.6623  0.9127 -1.9297
  101SOL    HW2 1546   2.513   5.650   1.812  0.3555  0.4077  2.1302
  102SOL     OW 1547   7.932   3.243   0.895  0.5494  0.3512  0.6783
  102SOL    HW1 1548   7.985   3.322   0.900  1.7507 -0.3861 -0.1291
  102SOL    HW2 1549   7.956   3.204   0.811 -0.3222 -0.6645  0.8948
  103SOL     OW 1550   6.571   7.269   7.339 -0.1409 -0.0026 -0.1959
  103SOL    HW1 1551   6.623   7.195   7.372  2.1919  1.2321 -0.9347
  103SOL    HW2 1552   6.620   7.346   7.368 -1.7100  1.2219 -0.7650
  104SOL     OW 1553   3.241   1.122   4.344  0.5118  0.1213  0.3745
  104SOL    HW1 1554   3.267   1.206   4.307 -0.1536  0.6929  1.1892
  104SOL    HW2 1555   3.243   1.135   4.438 -2.4292  0.1370  0.4991
  105SOL     OW 1556   6.665   2.764   6.878  0.2632 -0.0525  0.4298
  105SOL    HW1 1557   6.579   2.801   6.857  0.9837  1.1030 -0.5428
  105SOL    HW2 1558   6.727   2.831   6.850  1.4383 -0.3594  2.2740
  106SOL     OW 1559   8.138   1.315   2.289 -0.5006  0.5697  0.4619
  106SOL    HW1 1560   8.113   1.360   2.208  0.7809 -0.2733 -0.4112
  106SOL    HW2 1561   8.057   1.272   2.317 -0.9729  0.8993 -0.3454
  107SOL     OW 1562   4.955   4.206   5.026  0.2791 -0.1799 -0.0090
  107SOL    HW1 1563   4.883   4.149   5.001 -0.0381 -0.5243  1.6291
  107SOL    HW2 1564   5.013   4.150   5.079  0.4275  0.7514  0.8343
  108SOL     OW 1565   7.421   6.570   6.308  0.0798 -0.2548  0.2672
  108SOL    HW1 1566   7.516   6.577   6.313  0.0246  1.0551 -0.2218
  108SOL    HW2 1567   7.399   6.496   6.364  1.2869  0.2031  1.3639
  109SOL     OW 1568   7.194   1.262   1.822  0.0611  0.0489 -0.2434
  109SOL    HW1 1569   7.220   1.180   1.864 -0.7492 -0.1374 -0.1028
  109SOL    HW2 1570   7.237   1.260   1.737  0.0250 -0.5353 -0.2516
  110SOL     OW 1571   2.145   7.455   4.434 -0.6355  0.0307  0.7218
  110SOL    HW1 1572   2.157   7.549   4.450 -1.9831  0.0384  1.6896
  110SOL    HW2 1573   2.157   7.414   4.519  0.0247 -0.6975  0.2870
  111SOL     OW 1574   1.471   4.840   1.661 -0.0368 -0.7502  0.1508
  111SOL    HW1 1575   1.521   4.769   1.699 -1.0274 -0.4209  2.1647
  111SOL    HW2 1576   1.509   4.854   1.574  2.3156 -1.5175  1.0314
  112SOL     OW 1577   3.333   5.577   7.476  0.5960  0.3722 -0.4140
  112SOL    HW1 1578   3.415   5.532   7.499  0.9861  0.4486 -1.6194
  112SOL    HW2 1579   3.355   5.629   7.399  0.1726  2.7275  1.0011
  113SOL     OW 1580   0.796   1.450   4.228 -0.2419 -0.1538  0.7450
  113SOL    HW1 1581   0.833   1.378   4.177  0.4915 -0.5602  1.8148
  113SOL    HW2 1582   0.853   1.455   4.305 -0.3954  1.4536  0.7610
  114SOL     OW 1583   1.174   0.606   3.082 -0.0753  0.6139  0.0825
  114SOL    HW1 1584   1.084   0.575   3.089 -0.2915  1.4209  0.8680
  114SOL    HW2 1585   1.221   0.561   3.152 -0.1174  1.0654  0.4055
  115SOL     OW 1586   4.904   2.939   2.863 -0.6438  0.2878 -0.6171
  115SOL    HW1 1587   4.985   2.888   2.865 -0.8041  0.0611  0.3345
  115SOL    HW2 1588   4.928   3.021   2.819  0.9954  1.7743  2.9063
  116SOL     OW 1589   1.853   5.675   5.079  0.2102 -0.4519 -0.1240
  116SOL    HW1 1590   1.786   5.677   5.010  0.0502 -0.7207  0.0222
  116SOL    HW2 1591   1.903   5.755   5.066 -0.0254 -0.3402 -0.3497
  117SOL     OW 1592   3.481   3.807   6.250 -0.0522 -0.1289 -0.0697
  117SOL    HW1 1593   3.419   3.833   6.182  1.0964  0.9812 -0.7153
  117SOL    HW2 1594   3.512   3.720   6.224 -0.2365 -0.0539 -0.5329
  118SOL     OW 1595   5.586   3.495   1.354  0.4643 -0.0871  0.7896
  118SOL    HW1 1596   5.556   3.502   1.444  0.0898 -0.5001  0.6984
  118SOL    HW2 1597   5.653   3.427   1.355 -0.4736 -1.0371  0.5295
  119SOL     OW 1598   6.350   3.510   8.232  0.3027  0.1764  0.1876
  119SOL    HW1 1599   6.327   3.570   8.302  2.6803  1.5251 -0.1505
  119SOL    HW2 1600   6.387   3.565   8.163  0.5397 -1.4279 -1.0132
  120SOL     OW 1601   4.378   7.092   3.596 -0.4772 -0.3578  0.0316
  120SOL    HW1 1602   4.460   7.136   3.574 -0.9344 -0.3908 -1.7922
  120SOL    HW2 1603   4.403   7.001   3.613 -0.1395 -0.3988 -0.6560
  121SOL     OW 1604   4.772   2.967   7.291  0.2136  0.1737 -0.3146
  121SOL    HW1 1605   4.714   2.914   7.345 -1.1071  1.6782 -0.2160
  121SOL    HW2 1606   4.832   3.008   7.353  0.2229  0.0307 -0.2294
  122SOL     OW 1607   3.127   6.540   1.262 -0.0699  0.2658 -0.3164
  122SOL    HW1 1608   3.180   6.461   1.268  1.9115  1.5649 -0.0369
  122SOL    HW2 1609   3.109   6.549   1.168  0.6658  0.0932 -0.4787
  123SOL     OW 1610   6.780   7.795   6.789 -0.0053  0.3443  0.2120
  123SOL    HW1 1611   6.722   7.760   6.722  2.2094 -1.7459 -0.6814
  123SOL    HW2 1612   6.738   7.877   6.817 -1.3006  0.9095 -3.1962
  124SOL     OW 1613   2.744   7.488   1.083 -0.4031  0.0022 -0.3980
  124SOL    HW1 1614   2.659   7.478   1.041 -1.7021  0.1968  2.1185
  124SOL    HW2 1615   2.789   7.554   1.030 -1.6976 -0.2805 -1.8869
  125SOL     OW 1616   4.653   2.192   0.024  0.2865 -0.6270 -0.2569
  125SOL    HW1 1617   4.663   2.195   0.119  0.1837  0.9736 -0.2709
  125SOL    HW2 1618   4.560   2.175   0.009  0.3076 -0.8959 -0.0769
  126SOL     OW 1619   0.651   7.424   8.157  0.1047  0.1213 -0.2719
  126SOL    HW1 1620   0.668   7.515   8.135 -1.9619 -0.3400 -4.2530
  126SOL    HW2 1621   0.722   7.375   8.116  0.7689 -0.1663  1.1808
  127SOL     OW 1622   4.902   4.992   6.277  0.0821 -0.0344  0.1177
  127SOL    HW1 1623   4.989   4.985   6.237 -0.7321 -2.0416 -1.3330
  127SOL    HW2 1624   4.905   4.931   6.351 -0.3218 -0.5515 -0.3013
  128SOL     OW 1625   4.060   5.793   3.017  0.0554  0.3735 -0.2726
  128SOL    HW1 1626   4.044   5.800   2.923  0.4991  1.3806 -0.2815
  128SOL    HW2 1627   4.139   5.740   3.024 -0.3825 -0.3045 -0.4349
  129SOL     OW 1628   6.964   0.012   8.114 -0.1143  0.0195 -0.0781
  129SOL    HW1 1629   6.986   0.104   8.100 -0.6616  0.2981  0.8163
  129SOL    HW2 1630   7.021  -0.036   8.055 -0.7178  0.9967 -1.4986
  130SOL     OW 1631   7.793   2.955   4.700  0.7733 -0.4434 -0.4853
  130SOL    HW1 1632   7.727   2.919   4.641  0.7799 -0.9352 -0.1892
  130SOL    HW2 1633   7.751   3.031   4.739  1.1450  0.5439 -1.9487
  131SOL     OW 1634   2.848   1.188   0.249 -0.3945 -0.6605  0.1553
  131SOL    HW1 1635   2.925   1.159   0.200 -0.5577 -0.7084 -0.0721
  131SOL    HW2 1636   2.812   1.108   0.287 -0.4000 -0.6535  0.1649
  132SOL     OW 1637   4.584   0.012   4.262  0.2702  0.2147 -0.3568
  132SOL    HW1 1638   4.492   0.001   4.288 -0.0427  0.0284 -1.4799
  132SOL    HW2 1639   4.617   0.081   4.318 -0.9287  1.1630 -0.7934
  133SOL     OW 1640   1.824   0.419   1.026 -0.1008 -0.5705 -0.2522
  133SOL    HW1 1641   1.879   0.474   0.971 -1.5105  1.8491  0.7182
  133SOL    HW2 1642   1.739   0.418   0.984 -0.6992 -0.1626  0.9245
  134SOL     OW 1643   4.904   0.895   6.423 -0.2510 -0.3045  0.1190
  134SOL    HW1 1644   4.951   0.919   6.343  0.9680 -0.6939  0.7108
  134SOL    HW2 1645   4.972   0.863   6.482 -1.1327  0.0599  1.3465
  135SOL     OW 1646   7.178   6.861   3.493  0.6255  0.0997  0.1596
  135SOL    HW1 1647   7.207   6.788   3.437  2.3168  0.7028  0.2059
  135SOL    HW2 1648   7.189   6.829   3.582  2.3282  0.7389  0.1974
  136SOL     OW 1649   7.839   6.924   6.591  0.1973 -0.3563 -0.4052
  136SOL    HW1 1650   7.901   6.862   6.631  0.8002  0.3786 -0.1694
  136SOL    HW2 1651   7.896   6.989   6.549 -0.4033  0.7277  0.4340
  137SOL     OW 1652   1.905   0.434   1.832 -0.1812 -0.0164  0.7830
  137SOL    HW1 1653   1.816   0.399   1.829 -0.1467 -0.0224 -0.8058
  137SOL    HW2 1654   1.954   0.370   1.884 -0.8544 -0.6218  0.6914
  138SOL     OW 1655   7.527   3.798   6.755 -0.2042  0.6036  0.2243
  138SOL    HW1 1656   7.617   3.797   6.722  0.3733 -0.9700  1.7845
  138SOL    HW2 1657   7.511   3.889   6.778  0.3968  1.2001 -1.6354
  139SOL     OW 1658   3.258   0.752   3.785  0.2458  0.4290 -0.1864
  139SOL    HW1 1659   3.262   0.711   3.699  0.2351 -1.1999  0.5848
  139SOL    HW2 1660   3.248   0.680   3.847 -0.8238  1.6515  1.1101
  140SOL     OW 1661   4.051   8.107   4.409 -0.2308  0.2227  0.4918
  140SOL    HW1 1662   4.102   8.082   4.332  0.6985  1.0199  0.8409
  140SOL    HW2 1663   3.970   8.057   4.401  0.2281 -0.3766 -0.5388
  141SOL     OW 1664   7.030   5.545   1.225  0.1995  0.3696 -0.4090
  141SOL    HW1 1665   6.966   5.492   1.178 -2.1104  2.7343  0.0040
  141SOL    HW2 1666   7.059   5.488   1.296  0.3674 -1.5802 -1.9720
  142SOL     OW 1667   2.357   0.717   6.212 -0.4157 -1.0835  0.1135
  142SOL    HW1 1668   2.422   0.671   6.266  0.4839  1.4868  1.2769
  142SOL    HW2 1669   2.401   0.731   6.128 -0.9597 -2.9313 -0.5155
  143SOL     OW 1670   4.612   4.427   0.583 -0.4901  0.2154  0.0523
  143SOL    HW1 1671   4.637   4.515   0.554  1.0798 -0.2487 -0.0508
  143SOL    HW2 1672   4.647   4.369   0.515 -0.5128 -0.5671  0.7024
  144SOL     OW 1673   8.228   6.556   4.082  0.0723  0.0508 -0.3330
  144SOL    HW1 1674   8.248   6.534   3.991 -0.0468 -1.4447 -0.0135
  144SOL    HW2 1675   8.313   6.575   4.122  0.1436  0.5233 -0.7052
  145SOL     OW 1676   2.614   7.999   7.288 -0.0549  0.1804 -0.1634
  145SOL    HW1 1677   2.611   7.928   7.352  1.3539  0.7534  0.5670
  145SOL    HW2 1678   2.570   7.964   7.211  0.5168 -1.4446  0.2332
  146SOL     OW 1679   6.167   1.286   5.922  1.2524 -0.5813 -0.0493
  146SOL    HW1 1680   6.205   1.365   5.961  0.6911 -0.0650 -0.5294
  146SOL    HW2 1681   6.219   1.214   5.957 -0.2308 -0.2864  2.9633
  147SOL     OW 1682   3.248   7.122   5.806 -0.1727  0.3892 -0.3862
  147SOL    HW1 1683   3.239   7.198   5.749 -0.4165  0.2410 -0.5457
  147SOL    HW2 1684   3.174   7.066   5.784 -0.8182  0.7702  0.7526
  148SOL     OW 1685   7.915   3.655   1.536  0.1519 -0.1912  0.2900
  148SOL    HW1 1686   7.930   3.572   1.491 -1.4806  0.6557 -1.9006
  148SOL    HW2 1687   7.996   3.703   1.524  0.4722 -0.7874  0.0194
  149SOL     OW 1688   5.574   0.002   5.519  0.1847 -0.6201  0.0253
  149SOL    HW1 1689   5.634   0.072   5.491  0.8411 -0.7140  1.1638
  149SOL    HW2 1690   5.504   0.048   5.566 -0.2792 -0.5742 -0.7072
  150SOL     OW 1691   5.336   1.598   3.963 -0.1532  0.5614  0.0276
  150SOL    HW1 1692   5.285   1.533   3.915  0.4505  0.7416 -0.8892
  150SOL    HW2 1693   5.379   1.650   3.894  2.3696 -0.4724  0.7374
  151SOL     OW 1694   4.801   0.552   7.259 -0.6448 -0.3039 -0.2189
  151SOL    HW1 1695   4.785   0.531   7.167 -2.4537  0.5916 -0.1321
  151SOL    HW2 1696   4.803   0.648   7.262 -4.7556 -0.1690  1.2866
  152SOL     OW 1697   2.122   3.119   7.126  0.6104 -0.0131  0.5639
  152SOL    HW1 1698   2.127   3.046   7.189  0.0729  0.6719  1.4141
  152SOL    HW2 1699   2.087   3.079   7.046  0.8763 -0.8064  0.8318
  153SOL     OW 1700   5.766   3.828   2.886  0.1569 -0.3000 -0.2446
  153SOL    HW1 1701   5.847   3.784   2.911 -0.2204 -0.6347  0.4012
  153SOL    HW2 1702   5.712   3.827   2.965 -0.0216  0.9587 -0.3517
  154SOL     OW 1703   7.992   8.161   0.212  0.3631  0.4639 -0.2982
  154SOL    HW1 1704   7.928   8.208   0.158  0.1118 -1.9472 -2.1926
  154SOL    HW2 1705   8.072   8.213   0.205 -0.7681  2.3851  0.4071
  155SOL     OW 1706   4.709   0.084   4.023  0.3337  0.2714  0.0668
  155SOL    HW1 1707   4.661   0.050   4.098 -0.2581  1.7325  0.3719
  155SOL    HW2 1708   4.641   0.107   3.959  0.7096  0.9319 -0.1049
  156SOL     OW 1709   4.306   3.088   3.998 -0.3696 -0.2395  0.6002
  156SOL    HW1 1710   4.307   3.017   3.933  1.8370  0.2074  0.1244
  156SOL    HW2 1711   4.359   3.055   4.070 -0.6657  0.3091  1.0725
  157SOL     OW 1712   5.084   3.638   6.296  0.4005 -0.3369  0.1720
  157SOL    HW1 1713   5.152   3.676   6.240 -0.2336 -0.0088 -0.3873
  157SOL    HW2 1714   5.130   3.577   6.353  1.3005  0.5383  0.4052
  158SOL     OW 1715   4.899   3.333   2.050  0.3558 -0.7560 -0.2880
  158SOL    HW1 1716   4.901   3.413   2.103  0.7331  0.5113 -2.1633
  158SOL    HW2 1717   4.862   3.267   2.108 -0.8880  1.0124  0.9926
  159SOL     OW 1718   6.513   6.565   4.687 -0.3249 -0.2871  0.5110
  159SOL    HW1 1719   6.566   6.487   4.678 -0.5830 -0.4744  0.6080
  159SOL    HW2 1720   6.454   6.547   4.760 -1.4101 -0.6095 -0.4109
  160SOL     OW 1721   0.156   4.145   5.377 -0.7558 -0.1463  0.6799
  160SOL    HW1 1722   0.136   4.051   5.379 -0.7540 -0.1326  2.3829
  160SOL    HW2 1723   0.112   4.178   5.299 -0.7419 -1.5639  0.0552
  161SOL     OW 1724   3.184   0.012   5.433 -0.7402 -0.6051  0.0705
  161SOL    HW1 1725   3.190   0.096   5.477  1.2203 -0.4369 -0.4441
  161SOL    HW2 1726   3.239  -0.046   5.485  0.1938 -0.8375 -1.1403
  162SOL     OW 1727   1.920   2.568   0.344 -0.2143  0.2215  0.0968
  162SOL    HW1 1728   2.013   2.591   0.342  0.0027  0.2887  4.7482
  162SOL    HW2 1729   1.877   2.644   0.384 -2.1806 -0.1123 -1.3258
  163SOL     OW 1730   6.834   5.134   4.384  0.1082  0.4695  0.6405
  163SOL    HW1 1731   6.914   5.091   4.414 -0.3704 -0.7227  0.2209
  163SOL    HW2 1732   6.865   5.214   4.341  1.0867 -0.0410  0.3900
  164SOL     OW 1733   4.999   0.050   3.478  0.5755 -0.3807  0.1229
  164SOL    HW1 1734   4.972   0.062   3.569  0.5234 -2.0325  0.3392
  164SOL    HW2 1735   4.917   0.052   3.429  0.3992 -1.5047  0.3511
  165SOL     OW 1736   2.284   6.859   4.750 -0.4143 -0.0805  0.2670
  165SOL    HW1 1737   2.323   6.791   4.806 -0.9691  0.0218  0.7821
  165SOL    HW2 1738   2.191   6.855   4.770 -0.5868  0.1102 -0.4941
  166SOL     OW 1739   3.394   1.006   2.798 -0.2560 -0.0664 -0.3216
  166SOL    HW1 1740   3.304   1.041   2.798  0.3585  1.5752 -1.0270
  166SOL    HW2 1741   3.428   1.030   2.884  0.4617  1.9327 -1.1297
  167SOL     OW 1742   0.203   2.176   2.594 -0.0189  0.4143  0.0934
  167SOL    HW1 1743   0.297   2.163   2.608  0.4832  2.5664 -0.9762
  167SOL    HW2 1744   0.166   2.182   2.682  1.2130  1.7847  0.5448
  168SOL     OW 1745   4.759   6.764   2.889 -0.3443  0.7791  0.0572
  168SOL    HW1 1746   4.688   6.703   2.864 -0.3147 -0.0030  1.7948
  168SOL    HW2 1747   4.768   6.822   2.814 -0.6342 -1.1394 -1.5182
  169SOL     OW 1748   0.570   0.881   2.282 -0.1313  0.6505  0.0031
  169SOL    HW1 1749   0.545   0.952   2.223 -0.2835  0.8794  0.3429
  169SOL    HW2 1750   0.530   0.904   2.366 -0.2019  0.1549  0.1105
  170SOL     OW 1751   4.234   5.598   1.104  0.0619  0.0185  0.1613
  170SOL    HW1 1752   4.323   5.573   1.080 -0.6545 -1.6078 -0.9018
  170SOL    HW2 1753   4.235   5.597   1.200  1.3696  0.7282  0.1738
  171SOL     OW 1754   3.960   6.659   7.878  0.4625  0.9646  0.2985
  171SOL    HW1 1755   3.954   6.580   7.825  0.3470  1.0274  0.2166
  171SOL    HW2 1756   3.976   6.628   7.966 -0.1475  0.8261  0.3660
  172SOL     OW 1757   1.159   4.084   1.735 -0.0430 -0.1040  0.2737
  172SOL    HW1 1758   1.241   4.127   1.759  0.5304 -0.2425 -1.4421
  172SOL    HW2 1759   1.106   4.155   1.698 -0.7661  0.0130  1.4976
  173SOL     OW 1760   4.399   5.970   1.181 -0.3283 -0.0860  0.1277
  173SOL    HW1 1761   4.329   5.974   1.246 -1.3012 -0.0976 -0.9022
  173SOL    HW2 1762   4.376   5.896   1.125  0.3976  0.0260 -0.3267
  174SOL     OW 1763   2.361   3.150   4.815 -0.2744 -0.0681 -0.0728
  174SOL    HW1 1764   2.375   3.241   4.788  2.2021 -0.7764 -1.2779
  174SOL    HW2 1765   2.327   3.107   4.737  3.5288 -1.3108 -1.1488
  175SOL     OW 1766   4.482   1.720   0.328 -0.2564 -0.0474  0.2422
  175SOL    HW1 1767   4.497   1.759   0.241 -0.6433  0.2599  0.3126
  175SOL    HW2 1768   4.397   1.677   0.320 -0.1545 -0.2731  0.3820
  176SOL     OW 1769   4.261   5.264   6.280 -0.2666  0.0738  0.7545
  176SOL    HW1 1770   4.265   5.168   6.288  0.6965  0.1293  0.9541
  176SOL    HW2 1771   4.352   5.293   6.288 -0.0289  0.7093 -3.3751
  177SOL     OW 1772   2.995   7.285   1.630  0.1739  0.1704 -0.6731
  177SOL    HW1 1773   2.902   7.306   1.624  0.1292  0.1298 -0.1538
  177SOL    HW2 1774   3.005   7.206   1.577  0.0386  0.5581 -1.2856
  178SOL     OW 1775   7.738   0.110   2.931 -0.4349 -0.3631 -0.7017
  178SOL    HW1 1776   7.786   0.187   2.962  1.3078 -1.0364 -1.6855
  178SOL    HW2 1777   7.770   0.038   2.986 -0.2074 -0.8440 -1.4590
  179SOL     OW 1778   6.487   1.691   5.612  0.1505 -0.2866  0.1286
  179SOL    HW1 1779   6.502   1.785   5.602 -0.1064 -0.0353  1.9503
  179SOL    HW2 1780   6.393   1.680   5.602 -0.0843 -0.0577  2.0459
  180SOL     OW 1781   6.919   2.710   3.706  0.0660  0.4858 -0.3863
  180SOL    HW1 1782   6.921   2.701   3.802  0.1563  1.2803 -0.3093
  180SOL    HW2 1783   6.956   2.628   3.674  1.3852  0.7978  0.2997
  181SOL     OW 1784   4.816   5.888   1.161 -0.0309 -0.0373 -0.8818
  181SOL    HW1 1785   4.789   5.976   1.188  1.3787 -0.0188  0.5580
  181SOL    HW2 1786   4.894   5.870   1.213 -0.7067 -2.4301 -0.6099
  182SOL     OW 1787   2.637   3.238   4.885 -0.0888  0.2400  0.1337
  182SOL    HW1 1788   2.606   3.326   4.907 -1.8176  0.0406 -1.4318
  182SOL    HW2 1789   2.559   3.184   4.886  0.6389 -0.8518 -1.1063
  183SOL     OW 1790   6.655   6.177   6.939 -0.6544  0.0346 -0.4897
  183SOL    HW1 1791   6.676   6.089   6.909  0.4446  0.1522 -0.0925
  183SOL    HW2 1792   6.731   6.230   6.914 -0.4403  0.4623  1.0299
  184SOL     OW 1793   3.074   1.891   6.689  0.6342  0.3845 -0.4927
  184SOL    HW1 1794   2.993   1.926   6.728  1.4211 -0.0993  1.6534
  184SOL    HW2 1795   3.086   1.942   6.609 -1.6743  0.6129 -0.7351
  185SOL     OW 1796   5.265   2.987   7.625 -0.0720 -0.4798 -0.7619
  185SOL    HW1 1797   5.262   2.966   7.718 -1.1496  0.2292 -0.6301
  185SOL    HW2 1798   5.181   2.957   7.591 -0.7997  1.7181 -0.9764
  186SOL     OW 1799   7.234   1.674   4.705  0.3274  0.5047 -0.3826
  186SOL    HW1 1800   7.188   1.757   4.694 -0.7266  0.1219  1.0391
  186SOL    HW2 1801   7.294   1.670   4.630 -0.6849  1.8348 -1.2918
  187SOL     OW 1802   8.060   6.751   0.295  0.0680 -0.9056  0.1575
  187SOL    HW1 1803   8.102   6.795   0.369  0.9332  1.6851 -1.7801
  187SOL    HW2 1804   8.122   6.683   0.270  1.6686  0.7794 -0.6145
  188SOL     OW 1805   6.843   3.883   5.213  0.2372 -0.1551 -0.0121
  188SOL    HW1 1806   6.907   3.938   5.167  2.2835 -1.0743  1.6602
  188SOL    HW2 1807   6.833   3.925   5.299 -0.6891 -0.5649  0.0845
  189SOL     OW 1808   1.875   7.863   3.345 -0.3026  0.6623  0.1270
  189SOL    HW1 1809   1.793   7.905   3.321  0.4109  2.9589  1.4764
  189SOL    HW2 1810   1.926   7.860   3.264 -1.3909 -0.0158 -0.5348
  190SOL     OW 1811   5.538   4.852   6.270  0.5224 -0.6188 -0.0937
  190SOL    HW1 1812   5.535   4.907   6.191  0.2723  1.2148  1.1642
  190SOL    HW2 1813   5.454   4.808   6.271  0.4231 -0.4573 -0.7161
  191SOL     OW 1814   4.880   3.830   2.886 -0.2477 -0.1657 -0.0133
  191SOL    HW1 1815   4.841   3.772   2.952  0.8460 -0.5583  0.2972
  191SOL    HW2 1816   4.805   3.876   2.848 -0.7975  1.1826  2.5556
  192SOL     OW 1817   6.161   5.129   6.009  0.1071 -0.0841  0.4495
  192SOL    HW1 1818   6.179   5.124   6.103 -0.7960 -1.2933  0.5756
  192SOL    HW2 1819   6.066   5.119   6.002  0.2891 -1.2129 -0.6544
  193SOL     OW 1820   8.176   4.836   6.799 -0.4073 -0.2476 -0.3852
  193SOL    HW1 1821   8.118   4.796   6.734  0.3506  0.6311 -1.6114
  193SOL    HW2 1822   8.198   4.764   6.858 -1.4008 -0.9680 -0.8665
  194SOL     OW 1823   6.819   6.262   6.276  0.2345 -0.2552  0.3440
  194SOL    HW1 1824   6.846   6.354   6.269  0.4730 -0.4322 -1.3300
  194SOL    HW2 1825   6.819   6.230   6.186  2.2305 -2.4910  1.0737
  195SOL     OW 1826   3.376   0.994   1.197 -0.2786  0.5744 -0.4338
  195SOL    HW1 1827   3.322   1.030   1.267 -2.4723  0.4817 -2.0348
  195SOL    HW2 1828   3.349   0.902   1.190 -2.1625  1.2810 -3.2759
  196SOL     OW 1829   8.163   8.244   6.579  0.2470  0.1173 -0.5372
  196SOL    HW1 1830   8.177   8.162   6.533  2.4417 -0.7457  1.5619
  196SOL    HW2 1831   8.244   8.293   6.566 -0.0557  0.8600  0.3581
  197SOL     OW 1832   2.937   5.264   0.041 -0.1930  0.2693 -0.0704
  197SOL    HW1 1833   2.927   5.169   0.033 -0.6735  0.1831  1.3638
  197SOL    HW2 1834   2.850   5.298   0.018 -0.3551  0.2862  0.5684
  198SOL     OW 1835   6.955   2.191   1.723 -0.0175 -0.5605 -0.1432
  198SOL    HW1 1836   6.890   2.199   1.793 -0.5388  2.2887 -0.8990
  198SOL    HW2 1837   6.914   2.135   1.658 -0.5683 -1.1046  0.6660
  199SOL     OW 1838   1.908   3.123   2.369 -0.4035 -0.3810 -0.1253
  199SOL    HW1 1839   1.866   3.184   2.430 -1.7291 -0.6399 -0.7674
  199SOL    HW2 1840   1.983   3.172   2.334  1.0982 -0.6626  2.5991
  200SOL     OW 1841   2.503   2.861   7.331 -0.4600  0.1535  0.3566
  200SOL    HW1 1842   2.448   2.834   7.404 -1.9443 -0.5855 -0.9926
  200SOL    HW2 1843   2.441   2.894   7.266  0.8864  1.5118 -0.2754
  201SOL     OW 1844   0.595   4.907   3.646  0.1208  0.3753  0.5137
  201SOL    HW1 1845   0.533   4.883   3.715 -0.3402 -0.4673 -0.1874
  201SOL    HW2 1846   0.594   5.003   3.645 -1.6124  0.3681  0.1291
  202SOL     OW 1847   5.771   4.603   3.734 -0.3499 -0.4083  0.3883
  202SOL    HW1 1848   5.845   4.638   3.784 -1.5037  0.5868  1.4442
  202SOL    HW2 1849   5.719   4.555   3.799 -0.1649 -1.8643 -0.5220
  203SOL     OW 1850   7.615   2.182   0.179  0.0208  0.1914 -0.5957
  203SOL    HW1 1851   7.535   2.232   0.198 -0.3615 -0.6446  0.0769
  203SOL    HW2 1852   7.641   2.209   0.092 -0.9420  0.5664 -0.7728
  204SOL     OW 1853   4.767   6.945   3.524  0.5431  0.0512  0.5463
  204SOL    HW1 1854   4.772   6.853   3.498  1.3840  0.4982 -0.9320
  204SOL    HW2 1855   4.721   6.944   3.608  1.2369 -1.7812  0.9242
  205SOL     OW 1856   8.194   3.728   5.272 -0.1103  0.0058 -0.3536
  205SOL    HW1 1857   8.277   3.776   5.274 -1.0085  1.6208 -0.5851
  205SOL    HW2 1858   8.216   3.643   5.235  1.4214  0.4674 -0.5392
  206SOL     OW 1859   4.996   6.738   8.208 -0.0184  0.1298 -0.2424
  206SOL    HW1 1860   5.076   6.737   8.155 -0.2537  0.5899 -0.6120
  206SOL    HW2 1861   4.930   6.700   8.151 -0.3795  1.0615 -0.4540
  207SOL     OW 1862   2.927   1.311   4.295  0.5399  0.6221  0.5814
  207SOL    HW1 1863   2.837   1.337   4.273  0.8092  0.3462 -0.8573
  207SOL    HW2 1864   2.957   1.380   4.355 -0.5813  0.7884  0.9721
  208SOL     OW 1865   4.146   3.036   3.015  0.0888  0.2876 -0.0743
  208SOL    HW1 1866   4.053   3.013   3.017  0.2513 -0.3374  0.3716
  208SOL    HW2 1867   4.191   2.952   3.025  0.6991  0.7173  0.8154
  209SOL     OW 1868   5.464   3.288   2.597  0.1129  0.0242  0.1968
  209SOL    HW1 1869   5.496   3.365   2.551 -1.6320  1.0572  0.6669
  209SOL    HW2 1870   5.519   3.281   2.675  3.0547 -1.7053 -1.9543
  210SOL     OW 1871   0.481   7.915   6.572 -0.6332  0.0414 -0.0343
  210SOL    HW1 1872   0.454   7.935   6.662 -0.4042 -0.4704  0.1485
  210SOL    HW2 1873   0.547   7.847   6.581 -1.0603 -0.4640 -0.6245
  211SOL     OW 1874   7.305   1.704   3.532  0.3024 -0.1706  0.0114
  211SOL    HW1 1875   7.306   1.621   3.483  3.7280 -0.6066  0.7127
  211SOL    HW2 1876   7.325   1.678   3.622  3.0916  1.5543 -0.0681
  212SOL     OW 1877   2.777   3.572   4.797  0.3934  0.5720 -0.0404
  212SOL    HW1 1878   2.823   3.535   4.873 -1.2823  3.5234  2.5067
  212SOL    HW2 1879   2.693   3.525   4.796  0.3703  0.6118  0.0112
  213SOL     OW 1880   3.619   3.006   0.421 -0.1163  0.5005 -0.3547
  213SOL    HW1 1881   3.600   3.098   0.402  0.4338  0.7843  0.4063
  213SOL    HW2 1882   3.580   2.958   0.349  0.1796  1.3859 -1.1252
  214SOL     OW 1883   2.706   0.868   5.347  0.5749 -0.0118  0.0565
  214SOL    HW1 1884   2.784   0.819   5.320  1.2576  1.2434 -0.3029
  214SOL    HW2 1885   2.727   0.899   5.436  0.8453  1.0425 -0.3637
  215SOL     OW 1886   5.816   4.398   2.717  0.3798  0.3346 -0.2027
  215SOL    HW1 1887   5.756   4.429   2.785  0.1940 -0.1635 -0.1307
  215SOL    HW2 1888   5.759   4.380   2.641  0.9524  3.6149 -1.4632
  216SOL     OW 1889   6.916   0.057   6.082  0.6322 -0.3206  0.4994
  216SOL    HW1 1890   7.007   0.082   6.099  0.2061  0.6754  1.4105
  216SOL    HW2 1891   6.900  -0.018   6.139  0.1713  1.0198  2.1759
  217SOL     OW 1892   5.930   1.789   2.349 -0.8005  0.2427  0.4177
  217SOL    HW1 1893   5.855   1.751   2.394 -0.4277 -0.3253  0.5644
  217SOL    HW2 1894   5.952   1.867   2.401 -1.9312  0.9922 -0.2221
  218SOL     OW 1895   3.496   4.418   6.813  0.0443  0.0167  0.3682
  218SOL    HW1 1896   3.501   4.450   6.723 -0.4096 -0.5727  0.1282
  218SOL    HW2 1897   3.476   4.496   6.865 -2.3000 -0.0782 -0.3550
  219SOL     OW 1898   5.041   0.749   6.011 -0.1251  0.4308  0.4501
  219SOL    HW1 1899   4.997   0.736   5.927  0.7010 -0.3974  0.1334
  219SOL    HW2 1900   5.133   0.728   5.993 -0.1400 -0.8800  1.8198
  220SOL     OW 1901   6.276   6.791   0.191  0.2539 -0.1304  0.0030
  220SOL    HW1 1902   6.354   6.785   0.246  0.1226 -1.2966  0.0875
  220SOL    HW2 1903   6.309   6.824   0.107  0.7334  0.0398  0.2564
  221SOL     OW 1904   7.373   5.661   5.475 -0.2880  0.2587  0.2807
  221SOL    HW1 1905   7.293   5.691   5.434 -0.2759  0.1365  0.1666
  221SOL    HW2 1906   7.436   5.653   5.404 -0.3321 -0.1649  0.2890
  222SOL     OW 1907   0.024   8.025   4.100 -0.3185 -0.7579  0.2910
  222SOL    HW1 1908   0.084   7.965   4.144 -1.4882  0.1403  3.2048
  222SOL    HW2 1909   0.058   8.112   4.119 -0.7746 -0.3536 -0.7147
  223SOL     OW 1910   6.110   8.186   6.031 -0.5031 -0.3662  0.0113
  223SOL    HW1 1911   6.172   8.128   5.988 -1.3607 -0.7166 -0.7533
  223SOL    HW2 1912   6.143   8.274   6.014 -1.3915 -0.4431 -2.2722
  224SOL     OW 1913   0.445   1.379   2.418  0.2584  0.2278  0.5278
  224SOL    HW1 1914   0.361   1.335   2.431 -0.5521  1.6947  0.3666
  224SOL    HW2 1915   0.501   1.342   2.486  0.3113 -2.7305 -1.0260
  225SOL     OW 1916   1.972   8.244   6.103  0.4929  0.3357  0.3420
  225SOL    HW1 1917   1.878   8.228   6.114  0.6742 -1.4574 -0.5366
  225SOL    HW2 1918   1.978   8.301   6.026  0.2591 -2.0192 -1.4907
  226SOL     OW 1919   1.049   4.285   4.697 -0.0893  0.0026  0.3610
  226SOL    HW1 1920   1.002   4.263   4.617  0.0198 -1.2771  0.6226
  226SOL    HW2 1921   0.983   4.323   4.754 -0.5764 -0.7664  0.3216
  227SOL     OW 1922   2.615   7.050   5.753 -0.2086 -0.2386  0.0650
  227SOL    HW1 1923   2.587   7.034   5.663  1.4600 -0.9853 -0.3449
  227SOL    HW2 1924   2.680   6.982   5.770 -1.2414 -0.7475  2.1910
  228SOL     OW 1925   5.319   0.074   3.223 -0.5560 -0.0742  0.4876
  228SOL    HW1 1926   5.284   0.157   3.253  0.9881  0.5061  0.7570
  228SOL    HW2 1927   5.407   0.070   3.260 -0.7590 -2.0214  0.8182
  229SOL     OW 1928   0.603   3.637   4.773 -0.2106  0.1836  0.1918
  229SOL    HW1 1929   0.527   3.600   4.818 -0.5061  0.4204 -0.1106
  229SOL    HW2 1930   0.649   3.561   4.736 -0.4304  0.0603  0.1731
  230SOL     OW 1931   7.957   6.627   1.066  0.2021  0.3750  0.4306
  230SOL    HW1 1932   7.996   6.693   1.010  1.0608 -1.2813 -0.9411
  230SOL    HW2 1933   7.893   6.675   1.119  1.5423  2.4598  0.1842
  231SOL     OW 1934   0.013   5.075   1.892  0.2101 -0.4510 -0.0924
  231SOL    HW1 1935   0.045   4.988   1.912  1.0045 -0.4009 -1.1302
  231SOL    HW2 1936  -0.003   5.074   1.797  0.0250  0.4640 -0.0775
  232SOL     OW 1937   6.163   4.642   1.606  0.1206  0.1182 -0.6243
  232SOL    HW1 1938   6.178   4.548   1.602  1.8116  0.4211 -1.4545
  232SOL    HW2 1939   6.104   4.660   1.533  0.2330 -0.2109 -0.7958
  233SOL     OW 1940   6.319   5.433   4.754  0.2713  0.1906  0.4501
  233SOL    HW1 1941   6.312   5.346   4.792  2.7965 -0.3602 -0.2728
  233SOL    HW2 1942   6.312   5.492   4.829 -0.6235 -0.6660  1.0460
  234SOL     OW 1943   3.391   3.743   5.754  0.4713 -0.2045 -0.4291
  234SOL    HW1 1944   3.301   3.748   5.788 -0.3811 -0.6869 -2.5710
  234SOL    HW2 1945   3.444   3.722   5.832 -1.4228 -1.1838  0.6515
  235SOL     OW 1946   3.806   7.845   5.938  0.3678  0.1847 -0.2780
  235SOL    HW1 1947   3.832   7.891   6.018  1.5507 -0.0036 -0.5534
  235SOL    HW2 1948   3.712   7.861   5.931  0.2954  0.3618  1.0509
  236SOL     OW 1949   0.194   2.110   3.235 -0.2254  0.0406  0.0044
  236SOL    HW1 1950   0.165   2.192   3.197  0.1833  1.0223  1.7478
  236SOL    HW2 1951   0.287   2.104   3.212 -0.2296  0.1309 -0.0350
  237SOL     OW 1952   6.791   4.044   7.496  0.1267 -0.7663 -0.2022
  237SOL    HW1 1953   6.710   3.993   7.493  0.7181 -1.8185  1.2065
  237SOL    HW2 1954   6.838   4.021   7.416 -1.9425  1.5683 -2.1991
  238SOL     OW 1955   3.273   1.944   7.131 -0.3776  0.0711  0.3965
  238SOL    HW1 1956   3.311   2.032   7.132  1.0370 -0.5394  1.5857
  238SOL    HW2 1957   3.272   1.919   7.039  0.8499  0.6323  0.2259
  239SOL     OW 1958   0.782   6.100   2.286  0.3669  0.7354 -0.0240
  239SOL    HW1 1959   0.756   6.110   2.194 -0.3573  0.2415  0.1201
  239SOL    HW2 1960   0.869   6.061   2.283 -0.1688 -0.4307 -0.4852
  240SOL     OW 1961   4.578   7.883   6.001 -0.2937  0.2365 -0.1418
  240SOL    HW1 1962   4.565   7.876   5.907  0.3544  0.2641 -0.2361
  240SOL    HW2 1963   4.575   7.792   6.033 -0.6932  0.2425 -0.1664
  241SOL     OW 1964   8.015   6.743   7.695 -0.3689  0.0366 -0.4652
  241SOL    HW1 1965   8.006   6.701   7.780 -1.5495  1.4805  0.1535
  241SOL    HW2 1966   7.949   6.813   7.696  1.3970  1.7880 -1.4889
  242SOL     OW 1967   1.434   5.293   3.818  1.0154  0.0038  0.3419
  242SOL    HW1 1968   1.397   5.205   3.826 -1.6632  1.0465 -0.2669
  242SOL    HW2 1969   1.387   5.345   3.883  1.7490  1.2715 -0.1216
  243SOL     OW 1970   5.781   0.522   7.184 -0.1288  0.1509  0.3627
  243SOL    HW1 1971   5.737   0.592   7.136 -0.9534 -0.2539  0.5301
  243SOL    HW2 1972   5.847   0.489   7.122 -0.8987 -0.0786 -0.3373
  244SOL     OW 1973   4.648   2.213   4.960  0.3230 -0.1249 -0.1952
  244SOL    HW1 1974   4.713   2.282   4.966  0.1033  0.2500 -1.8358
  244SOL    HW2 1975   4.606   2.227   4.875  1.1110 -3.0158 -1.0940
  245SOL     OW 1976   6.739   2.559   1.665 -0.0782  0.4316 -0.5937
  245SOL    HW1 1977   6.776   2.574   1.578 -3.3071  0.2175 -2.0566
  245SOL    HW2 1978   6.746   2.644   1.709 -0.2678  1.0793 -1.7936
  246SOL     OW 1979   1.524   4.702   4.066  0.1938 -0.0908  0.1097
  246SOL    HW1 1980   1.516   4.617   4.022 -0.0264 -0.2516  0.4528
  246SOL    HW2 1981   1.564   4.681   4.150 -0.9316 -0.0055  0.6714
  247SOL     OW 1982   6.150   7.459   7.361 -0.2190 -0.3115  0.5467
  247SOL    HW1 1983   6.067   7.470   7.409 -1.1146  2.0792 -1.4292
  247SOL    HW2 1984   6.213   7.513   7.409 -0.7881  0.9942 -0.1411
  248SOL     OW 1985   8.124   2.442   8.224 -0.5029  0.5358 -0.2571
  248SOL    HW1 1986   8.093   2.465   8.136  1.7091  0.7319 -1.0170
  248SOL    HW2 1987   8.202   2.495   8.237 -0.5531  0.1831  1.6741
  249SOL     OW 1988   0.640   7.438   3.492  0.0739  0.5132  0.4824
  249SOL    HW1 1989   0.584   7.505   3.451 -0.3934 -0.6011 -0.7278
  249SOL    HW2 1990   0.578   7.380   3.536  0.3042 -0.4462 -0.4483
  250SOL     OW 1991   2.458   0.148   5.626 -0.0279  0.7978 -0.3757
  250SOL    HW1 1992   2.447   0.124   5.534  0.4888  1.0717 -0.5128
  250SOL    HW2 1993   2.386   0.209   5.643 -0.0504  0.8453 -0.6368
  251SOL     OW 1994   2.149   5.158   5.245  0.1898  0.7315  0.4053
  251SOL    HW1 1995   2.193   5.241   5.261 -0.4608  1.5345 -1.7639
  251SOL    HW2 1996   2.077   5.156   5.307  0.6082  1.4903  0.9175
  252SOL     OW 1997   5.011   6.688   1.597 -0.1388  0.0696  0.1623
  252SOL    HW1 1998   5.039   6.778   1.579 -0.6118 -0.2034 -1.9974
  252SOL    HW2 1999   4.938   6.673   1.538 -2.1433 -0.6891  2.7300
  253SOL     OW 2000   0.497   7.838   3.869 -0.2338  0.3535 -0.1001
  253SOL    HW1 2001   0.544   7.918   3.846  0.8054 -0.5787 -1.2538
  253SOL    HW2 2002   0.450   7.814   3.789  0.5312 -0.9116 -0.1868
  254SOL     OW 2003   4.283   4.504   2.119 -0.4543 -0.0491 -0.0147
  254SOL    HW1 2004   4.194   4.470   2.111  0.0141 -1.1710 -0.4945
  254SOL    HW2 2005   4.317   4.465   2.200 -0.2337  0.0107 -0.0763
  255SOL     OW 2006   7.985   6.125   4.893  0.0372 -0.1019  0.5802
  255SOL    HW1 2007   8.019   6.162   4.811  1.4326  2.0950  2.0918
  255SOL    HW2 2008   7.902   6.170   4.906 -0.2890 -0.6100  0.2759
  256SOL     OW 2009   4.115   1.856   4.793 -0.4855  0.2159 -0.1879
  256SOL    HW1 2010   4.095   1.835   4.885  1.6605  0.8127  0.4529
  256SOL    HW2 2011   4.060   1.932   4.774 -0.3102  0.6404  0.9136
  257SOL     OW 2012   7.021   3.519   3.276 -0.6703 -0.1129 -0.1486
  257SOL    HW1 2013   7.083   3.446   3.285 -0.3349  0.0974 -0.7363
  257SOL    HW2 2014   6.962   3.509   3.351  0.6348  0.2385  0.9429
  258SOL     OW 2015   6.546   0.882   1.065 -0.3565  0.3959  0.0489
  258SOL    HW1 2016   6.557   0.842   1.151 -0.1249  2.4546  1.0125
  258SOL    HW2 2017   6.577   0.816   1.004 -2.1229 -1.7837  1.4062
  259SOL     OW 2018   4.923   7.124   1.658  0.2235 -0.0453 -0.0764
  259SOL    HW1 2019   4.901   7.129   1.751  1.4866  1.2864  0.1755
  259SOL    HW2 2020   4.849   7.168   1.614  0.5377  1.0542  0.4616
  260SOL     OW 2021   3.851   4.366   1.419  0.1477  0.6857  0.1617
  260SOL    HW1 2022   3.937   4.383   1.457  0.2504  0.5895 -0.0255
  260SOL    HW2 2023   3.863   4.383   1.325  0.0464  0.3624  0.0897
  261SOL     OW 2024   4.259   2.300   0.944 -0.8341  0.1523 -0.1629
  261SOL    HW1 2025   4.222   2.339   0.864 -1.5468  0.5859  0.3776
  261SOL    HW2 2026   4.272   2.208   0.921  0.3925  0.5795 -1.2820
  262SOL     OW 2027   0.299   3.728   7.614  0.1290  0.0356  0.0618
  262SOL    HW1 2028   0.344   3.643   7.618 -0.9012 -0.4785  0.8982
  262SOL    HW2 2029   0.370   3.792   7.605  0.9805 -0.8182  0.6205
  263SOL     OW 2030   3.406   1.396   1.375  0.0474 -0.3983  0.2867
  263SOL    HW1 2031   3.384   1.421   1.465  1.3381 -1.5140  0.9248
  263SOL    HW2 2032   3.501   1.385   1.376  0.0479 -0.5785 -1.1827
  264SOL     OW 2033   5.170   2.377   1.139  0.4198  0.8322  0.1197
  264SOL    HW1 2034   5.262   2.376   1.111  0.1390  0.4212 -0.8053
  264SOL    HW2 2035   5.158   2.464   1.178  0.7675  1.5200 -1.2628
  265SOL     OW 2036   7.381   5.522   3.673 -0.0308  0.1687 -0.2837
  265SOL    HW1 2037   7.422   5.476   3.747  1.3401 -2.8989 -2.8157
  265SOL    HW2 2038   7.294   5.483   3.666  0.0396  0.0643 -0.5985
  266SOL     OW 2039   4.805   6.453   7.976  0.4278  0.2267 -0.6986
  266SOL    HW1 2040   4.803   6.548   7.984  0.1135  0.3090 -1.7350
  266SOL    HW2 2041   4.722   6.424   8.014  0.6682  0.3371 -0.0816
  267SOL     OW 2042   0.870   5.430   7.714  0.4476  0.4887  0.6147
  267SOL    HW1 2043   0.924   5.509   7.721  1.1301  0.1556 -0.8265
  267SOL    HW2 2044   0.792   5.459   7.666 -1.3882  1.3164  3.9304
  268SOL     OW 2045   2.792   7.359   5.528 -0.0093 -0.2311  0.0900
  268SOL    HW1 2046   2.719   7.313   5.569  0.3578 -0.5515  0.3905
  268SOL    HW2 2047   2.866   7.299   5.537  0.7636  0.8981  1.5660
  269SOL     OW 2048   0.174   5.192   4.876  0.8233  0.3654 -0.2432
  269SOL    HW1 2049   0.212   5.249   4.808  1.9026 -1.0031 -0.8201
  269SOL    HW2 2050   0.233   5.117   4.879 -0.2968 -0.4840  0.8699
  270SOL     OW 2051   7.267   8.067   6.808 -0.2508  0.1521  0.5894
  270SOL    HW1 2052   7.220   7.985   6.790 -1.6878  1.1762 -0.3953
  270SOL    HW2 2053   7.273   8.110   6.723 -2.4003  2.5684  1.6031
  271SOL     OW 2054   6.851   3.980   7.755 -0.5755 -0.0538  0.5760
  271SOL    HW1 2055   6.869   3.976   7.661 -2.0011 -0.4482  0.3146
  271SOL    HW2 2056   6.895   3.904   7.791  1.8117  1.2552  0.5594
  272SOL     OW 2057   4.638   5.658   1.258  0.0483  0.0335 -0.0831
  272SOL    HW1 2058   4.583   5.715   1.313  0.3457  1.0905 -0.8571
  272SOL    HW2 2059   4.715   5.711   1.239  0.5509 -0.8112 -0.4319
  273SOL     OW 2060   5.195   7.674   5.600  1.2282 -0.1981 -0.3580
  273SOL    HW1 2061   5.144   7.714   5.529  0.3532  1.0216  0.9307
  273SOL    HW2 2062   5.233   7.749   5.648 -0.1058 -0.8868  1.8489
  274SOL     OW 2063   2.475   6.843   4.060 -0.1861  0.2807 -0.0132
  274SOL    HW1 2064   2.522   6.841   4.144  0.4376  0.8942 -0.3382
  274SOL    HW2 2065   2.390   6.805   4.079  0.8364 -1.8991  0.3433
  275SOL     OW 2066   1.608   4.429   1.234  0.1077  0.5655 -0.1840
  275SOL    HW1 2067   1.696   4.442   1.269 -0.5689 -0.7122  2.1192
  275SOL    HW2 2068   1.603   4.335   1.217 -0.8832  0.5862 -0.0577
  276SOL     OW 2069   2.268   1.210   0.263  0.3288 -0.4364  0.0759
  276SOL    HW1 2070   2.244   1.119   0.277 -1.3538 -0.1482 -0.8167
  276SOL    HW2 2071   2.248   1.226   0.171  0.1473  0.9819  0.3569
  277SOL     OW 2072   2.305   3.717   4.439 -0.4260  0.7437  0.1682
  277SOL    HW1 2073   2.379   3.662   4.411  0.0289 -0.1052  2.8557
  277SOL    HW2 2074   2.230   3.658   4.437 -0.3872  0.6748  0.7198
  278SOL     OW 2075   5.612   1.823   0.033 -0.1828 -0.1773 -0.1053
  278SOL    HW1 2076   5.706   1.820   0.051 -0.0172 -0.5035 -1.0162
  278SOL    HW2 2077   5.597   1.913   0.002 -0.0734 -0.2775 -0.4575
  279SOL     OW 2078   5.786   8.115   1.472 -0.9499 -0.1011 -0.3922
  279SOL    HW1 2079   5.822   8.030   1.445 -2.1289 -0.8042  0.2241
  279SOL    HW2 2080   5.844   8.179   1.430  0.7576 -1.1946  0.2185
  280SOL     OW 2081   1.726   1.506   3.934 -0.4420 -0.3549 -0.2218
  280SOL    HW1 2082   1.737   1.551   3.850  1.1261 -0.2965  0.0121
  280SOL    HW2 2083   1.645   1.543   3.970  0.6321  2.0541 -0.1832
  281SOL     OW 2084   8.270   3.076   0.540  0.5051  0.1300  0.2321
  281SOL    HW1 2085   8.250   3.091   0.448 -0.0740  2.0837  0.6678
  281SOL    HW2 2086   8.363   3.096   0.548  0.5303  0.0639  0.1035
  282SOL     OW 2087   4.195   6.636   7.540  0.0757  0.2740  0.2939
  282SOL    HW1 2088   4.146   6.563   7.578 -1.7388  1.2637 -0.1191
  282SOL    HW2 2089   4.153   6.652   7.456  1.1908  1.0583 -0.1228
  283SOL     OW 2090   6.985   0.851   2.456 -0.4610 -0.4087 -0.2646
  283SOL    HW1 2091   6.945   0.888   2.535 -1.9140 -0.9983 -0.6972
  283SOL    HW2 2092   6.961   0.758   2.460  0.0560 -0.5736 -1.0405
  284SOL     OW 2093   1.504   2.633   3.601 -0.3009  0.0084  0.2527
  284SOL    HW1 2094   1.507   2.722   3.635 -2.2795  0.4406 -0.6312
  284SOL    HW2 2095   1.466   2.581   3.671 -0.2828  0.0983  0.3286
  285SOL     OW 2096   3.615   4.457   0.250  0.8042  0.1706 -0.1295
  285SOL    HW1 2097   3.581   4.538   0.211  1.9587  1.6492  1.8160
  285SOL    HW2 2098   3.555   4.389   0.220 -1.4471  2.0763 -0.1171
  286SOL     OW 2099   0.151   2.559   7.126 -0.1690 -0.4046 -0.1556
  286SOL    HW1 2100   0.139   2.465   7.110 -0.4550 -0.5762  0.9685
  286SOL    HW2 2101   0.190   2.592   7.046  0.4596 -1.5914 -0.3571
  287SOL     OW 2102   2.339   3.293   7.095 -0.8133  0.3004 -0.3480
  287SOL    HW1 2103   2.401   3.281   7.167 -0.7339  1.6796 -0.1618
  287SOL    HW2 2104   2.256   3.259   7.128 -0.4747 -0.2596 -0.0791
  288SOL     OW 2105   3.144   3.939   0.536  0.8672  0.1668 -0.6886
  288SOL    HW1 2106   3.122   3.877   0.606 -0.1456 -0.9493 -1.9658
  288SOL    HW2 2107   3.147   4.024   0.580 -0.1525 -0.4548  0.6388
  289SOL     OW 2108   1.889   5.378   0.908 -0.1214 -0.5400 -0.4950
  289SOL    HW1 2109   1.883   5.306   0.844 -0.9769  0.1384 -1.1906
  289SOL    HW2 2110   1.800   5.413   0.912 -0.0442 -0.5142  1.0063
  290SOL     OW 2111   1.258   8.050   4.439  0.1485 -0.6497 -0.3422
  290SOL    HW1 2112   1.348   8.017   4.438 -0.1585 -1.4802 -2.0682
  290SOL    HW2 2113   1.265   8.139   4.403  0.4535 -0.2041  0.7960
  291SOL     OW 2114   1.787   1.451   0.910 -0.3485 -0.2167 -0.1976
  291SOL    HW1 2115   1.784   1.379   0.847  0.1149  0.9423 -1.5819
  291SOL    HW2 2116   1.869   1.439   0.957  0.5980  0.3894 -1.6531
  292SOL     OW 2117   7.733   0.540   2.423  0.2956 -0.3473 -0.7687
  292SOL    HW1 2118   7.755   0.526   2.331  1.5104  1.4712 -0.7797
  292SOL    HW2 2119   7.799   0.490   2.472 -0.3835 -1.3591 -0.8662
  293SOL     OW 2120   0.554   4.933   7.014  0.3341  0.2153 -1.0251
  293SOL    HW1 2121   0.462   4.946   6.994  0.2103 -0.2797 -0.7702
  293SOL    HW2 2122   0.589   4.888   6.938 -0.2894 -2.3024  0.1433
  294SOL     OW 2123   3.498   7.901   1.788 -0.0767  0.0186  0.2299
  294SOL    HW1 2124   3.526   7.882   1.699  0.7199 -0.4160  0.5569
  294SOL    HW2 2125   3.493   7.815   1.830  0.4101  0.2808  0.8407
  295SOL     OW 2126   6.183   3.746   3.226 -0.1845 -0.3126  0.0218
  295SOL    HW1 2127   6.143   3.665   3.255 -0.5762 -0.2781 -0.4146
  295SOL    HW2 2128   6.220   3.785   3.305 -0.1107 -0.8498  0.2506
  296SOL     OW 2129   6.672   5.993   1.907  0.0643  0.2741  0.0677
  296SOL    HW1 2130   6.752   5.952   1.871  0.8979  1.2847  0.7463
  296SOL    HW2 2131   6.629   6.031   1.830  1.4241  1.7117 -0.0189
  297SOL     OW 2132   4.566   0.725   7.043 -0.4286  0.4301 -0.0956
  297SOL    HW1 2133   4.624   0.766   7.107  0.1467  0.6572 -0.7646
  297SOL    HW2 2134   4.619   0.657   7.002 -1.3824 -1.0573  1.0467
  298SOL     OW 2135   2.598   4.965   4.592  0.2162 -0.5263 -0.5657
  298SOL    HW1 2136   2.562   5.013   4.666 -0.1912  0.5410 -1.4497
  298SOL    HW2 2137   2.588   4.873   4.616 -0.0552 -0.1883  0.6315
  299SOL     OW 2138   1.544   6.206   0.571 -0.0608 -0.0008 -0.0756
  299SOL    HW1 2139   1.595   6.134   0.609  2.4097  1.1593 -1.0989
  299SOL    HW2 2140   1.531   6.180   0.480 -2.2853 -0.7784  0.4242
  300SOL     OW 2141   2.770   1.389   5.624  0.2837  0.6039  0.8168
  300SOL    HW1 2142   2.690   1.367   5.575  0.5728  0.2017  0.5245
  300SOL    HW2 2143   2.739   1.414   5.711 -0.1101 -0.1323  0.8874
  301SOL     OW 2144   0.581   8.240   1.061  0.7586  0.1907 -0.1579
  301SOL    HW1 2145   0.572   8.176   0.991 -0.7220  0.9045 -0.6573
  301SOL    HW2 2146   0.523   8.208   1.130 -0.5419  1.3112 -0.6854
  302SOL     OW 2147   1.581   7.906   6.161  1.0022 -0.2219  0.6361
  302SOL    HW1 2148   1.546   7.870   6.243  0.0783 -0.1912  0.2535
  302SOL    HW2 2149   1.625   7.832   6.119 -0.9047 -0.9339 -0.1530
  303SOL     OW 2150   6.605   6.326   0.764  0.3853  0.0881  0.0591
  303SOL    HW1 2151   6.665   6.379   0.711 -1.5122  0.6649 -1.5484
  303SOL    HW2 2152   6.586   6.250   0.710  0.8003 -0.8362  1.1801
  304SOL     OW 2153   2.955   7.334   7.677 -0.4196  1.1217  0.3477
  304SOL    HW1 2154   2.875   7.324   7.728 -0.4605 -1.3897 -0.1324
  304SOL    HW2 2155   2.932   7.301   7.590  1.1293  0.3641  0.2065
  305SOL     OW 2156   6.332   4.722   4.590  0.0193  0.6771  0.1369
  305SOL    HW1 2157   6.410   4.703   4.538  0.2685  2.1194 -0.0561
  305SOL    HW2 2158   6.329   4.654   4.656  1.3473  0.5095  0.0320
  306SOL     OW 2159   7.942   8.082   3.361 -0.0705 -0.3688 -0.2329
  306SOL    HW1 2160   7.876   8.033   3.410 -0.5444  0.6693  0.1778
  306SOL    HW2 2161   7.972   8.149   3.422  1.2324 -0.7074 -0.4805
  307SOL     OW 2162   6.508   5.440   0.888 -0.2532 -0.2492  0.2949
  307SOL    HW1 2163   6.514   5.420   0.982  1.3410 -0.9969  0.0517
  307SOL    HW2 2164   6.526   5.357   0.845  1.0845  0.5323 -0.6845
  308SOL     OW 2165   1.281   0.004   0.316  0.1836 -0.4019  0.3698
  308SOL    HW1 2166   1.299   0.096   0.336 -1.1571  0.3753 -1.8424
  308SOL    HW2 2167   1.296  -0.004   0.222 -1.1463 -2.0884  0.2718
  309SOL     OW 2168   0.278   2.410   0.594 -0.5752  0.7339 -0.3251
  309SOL    HW1 2169   0.239   2.441   0.675  1.1499 -0.2143  0.8826
  309SOL    HW2 2170   0.290   2.316   0.606  0.6193  0.7422 -1.2816
  310SOL     OW 2171   3.847   5.006   5.574 -0.3489 -0.0778  0.3934
  310SOL    HW1 2172   3.814   4.917   5.590  1.3845 -0.4460  2.1929
  310SOL    HW2 2173   3.776   5.063   5.603 -1.0033 -0.8641  0.3615
  311SOL     OW 2174   0.880   5.770   2.066  0.0767 -0.0962  0.2150
  311SOL    HW1 2175   0.798   5.819   2.071  1.3991  2.5185 -1.8633
  311SOL    HW2 2176   0.877   5.728   1.980  0.5152 -0.7900  0.5339
  312SOL     OW 2177   6.732   4.388   2.109  0.5899  0.2196 -0.3284
  312SOL    HW1 2178   6.721   4.299   2.144  0.6076  0.2102 -0.3449
  312SOL    HW2 2179   6.747   4.443   2.186  0.6239  0.2005 -0.3216
  313SOL     OW 2180   4.247   4.680   4.030 -0.1313 -0.0523  0.5677
  313SOL    HW1 2181   4.166   4.648   3.989  1.2390 -1.4856 -1.0663
  313SOL    HW2 2182   4.285   4.602   4.071  2.1289 -0.1072 -1.5599
  314SOL     OW 2183   5.370   4.605   8.209  0.5710 -0.0135  0.4900
  314SOL    HW1 2184   5.426   4.546   8.159  0.2333  0.0836 -0.0121
  314SOL    HW2 2185   5.324   4.548   8.270 -0.8036 -0.4924 -0.9418
  315SOL     OW 2186   6.875   1.215   7.532  0.1303 -0.8415  0.1746
  315SOL    HW1 2187   6.938   1.268   7.579 -0.8633  1.1752 -0.6775
  315SOL    HW2 2188   6.800   1.208   7.591 -0.7497  0.9029 -0.7097
  316SOL     OW 2189   3.138   1.615   4.176 -0.5496  0.5637  0.2714
  316SOL    HW1 2190   3.223   1.631   4.217 -0.4190  0.9645 -0.1551
  316SOL    HW2 2191   3.108   1.702   4.147 -0.6968  0.3020 -0.3699
  317SOL     OW 2192   6.171   0.916   4.283  0.1098  0.1313 -0.3730
  317SOL    HW1 2193   6.265   0.926   4.268  0.0693  0.8544 -0.1633
  317SOL    HW2 2194   6.131   0.979   4.224 -0.2208  0.2708  0.0048
  318SOL     OW 2195   0.936   4.773   5.892  0.6697 -0.0393  0.0352
  318SOL    HW1 2196   1.013   4.725   5.921  1.1473  1.6989  1.8290
  318SOL    HW2 2197   0.970   4.857   5.861 -0.4640  0.7976  0.9530
  319SOL     OW 2198   7.953   4.475   3.145 -0.3539  0.1143  0.2630
  319SOL    HW1 2199   7.868   4.457   3.184  0.3603 -1.8821  0.9725
  319SOL    HW2 2200   7.986   4.552   3.191 -1.2881  0.2051  0.7692
  320SOL     OW 2201   7.394   2.264   2.618 -0.0511  0.3291 -0.3346
  320SOL    HW1 2202   7.324   2.233   2.675 -0.4116 -1.3305 -1.6590
  320SOL    HW2 2203   7.471   2.215   2.646  0.4451  1.5796  0.5882
  321SOL     OW 2204   2.154   0.545   5.785 -0.2377  0.0050  0.0526
  321SOL    HW1 2205   2.065   0.514   5.770 -0.6489  1.2118 -0.0537
  321SOL    HW2 2206   2.168   0.611   5.718  1.6386 -1.8946 -1.5092
  322SOL     OW 2207   4.038   4.281   4.440  0.2110 -0.0319  0.1529
  322SOL    HW1 2208   3.951   4.273   4.480 -0.7702  0.0567 -1.8886
  322SOL    HW2 2209   4.031   4.358   4.384  2.5459  1.7279  2.1973
  323SOL     OW 2210   1.520   4.384   7.711  0.0018  0.6106  0.6555
  323SOL    HW1 2211   1.449   4.321   7.697  1.4247 -0.8978  0.0999
  323SOL    HW2 2212   1.512   4.408   7.804 -1.4269  0.7246  0.5231
  324SOL     OW 2213   7.935   1.378   7.850 -0.4791 -0.1615  0.3232
  324SOL    HW1 2214   8.006   1.438   7.871 -0.2786 -0.0589 -0.6449
  324SOL    HW2 2215   7.865   1.401   7.911 -0.2760  0.8320  0.1784
  325SOL     OW 2216   4.419   1.336   3.529 -0.4730 -0.2517 -0.3165
  325SOL    HW1 2217   4.471   1.274   3.477  0.0232 -0.1513  0.0602
  325SOL    HW2 2218   4.361   1.281   3.581 -1.0499 -0.3513 -1.0526
  326SOL     OW 2219   8.294   0.516   1.900  0.0181 -0.4423 -0.3314
  326SOL    HW1 2220   8.367   0.467   1.863  0.3172 -0.7506  0.6643
  326SOL    HW2 2221   8.220   0.497   1.842  1.3079  1.9379 -2.8792
  327SOL     OW 2222   4.869   7.534   4.909 -0.2574 -0.0315  0.0099
  327SOL    HW1 2223   4.797   7.516   4.970  0.8584 -0.3052  1.2634
  327SOL    HW2 2224   4.863   7.463   4.845 -1.7340  0.5290 -0.5055
  328SOL     OW 2225   4.573   2.385   4.476  0.8246  0.2328  0.2392
  328SOL    HW1 2226   4.508   2.380   4.406  1.1997 -1.4609 -0.0173
  328SOL    HW2 2227   4.649   2.339   4.442  1.8219  1.3294  0.9228
  329SOL     OW 2228   0.517   2.147   7.886 -0.1210 -0.1357 -0.4172
  329SOL    HW1 2229   0.506   2.194   7.969 -0.2358 -0.1330 -0.4333
  329SOL    HW2 2230   0.482   2.207   7.820 -1.3365 -0.7191 -0.3108
  330SOL     OW 2231   4.098   7.139   5.155 -0.0707 -0.3794  0.0676
  330SOL    HW1 2232   4.182   7.104   5.127  0.5351  0.0414  1.3060
  330SOL    HW2 2233   4.118   7.225   5.191 -1.0022 -0.3515  0.5483
  331SOL     OW 2234   1.309   5.791   8.203  0.5213 -0.0642  0.3183
  331SOL    HW1 2235   1.278   5.749   8.123  0.3930  0.2707  0.1891
  331SOL    HW2 2236   1.235   5.844   8.233  0.9592  0.7408  0.0067
  332SOL     OW 2237   6.896   6.015   1.600  0.1925  0.2095 -0.5356
  332SOL    HW1 2238   6.876   6.082   1.665 -0.8466 -0.2685 -0.3513
  332SOL    HW2 2239   6.914   5.936   1.653  0.9430  0.2241 -0.7665
  333SOL     OW 2240   5.127   2.921   1.611 -0.0759 -0.3975  0.0189
  333SOL    HW1 2241   5.214   2.889   1.586  0.1427  0.6335 -0.5388
  333SOL    HW2 2242   5.082   2.935   1.528  0.2947  2.0225  0.1993
  334SOL     OW 2243   6.971   1.043   0.637  0.2929 -0.9025  0.3803
  334SOL    HW1 2244   6.916   0.966   0.622  1.6825 -1.9468  0.5084
  334SOL    HW2 2245   7.055   1.020   0.598  0.8313  0.4160  0.7491
  335SOL     OW 2246   3.523   2.332   5.148 -0.1501 -0.5142  0.2409
  335SOL    HW1 2247   3.573   2.413   5.161 -0.2334 -0.1132 -1.7667
  335SOL    HW2 2248   3.434   2.361   5.130 -0.4123 -1.1051  0.5707
  336SOL     OW 2249   1.458   2.163   6.295  0.4624  0.0718  0.8932
  336SOL    HW1 2250   1.456   2.189   6.203 -0.6280  0.1823  0.9319
  336SOL    HW2 2251   1.512   2.084   6.297  0.4781  0.0574  0.1530
  337SOL     OW 2252   2.902   6.498   8.065 -0.2676 -0.2753 -0.9269
  337SOL    HW1 2253   2.895   6.512   7.971 -1.2967 -0.8412 -0.9418
  337SOL    HW2 2254   2.877   6.406   8.077 -2.3669  0.3934  0.1425
  338SOL     OW 2255   3.450   2.655   6.695 -0.3259  0.4818  0.6511
  338SOL    HW1 2256   3.533   2.687   6.731  0.5123 -1.6575  0.6730
  338SOL    HW2 2257   3.476   2.593   6.626 -1.9161  0.6508 -0.1223
  339SOL     OW 2258   6.839   3.987   5.487 -0.0723 -0.8665  0.2708
  339SOL    HW1 2259   6.800   4.067   5.521  0.8249  0.2524 -1.2273
  339SOL    HW2 2260   6.926   3.983   5.528  0.6296 -0.0257 -1.0708
  340SOL     OW 2261   3.418   4.632   0.498  0.2992  0.0979 -0.4714
  340SOL    HW1 2262   3.510   4.657   0.490  0.4117 -0.5625 -1.4265
  340SOL    HW2 2263   3.420   4.536   0.505 -0.3361  0.0320 -1.1126
  341SOL     OW 2264   2.908   4.736   4.013  0.0543  0.0101  0.7000
  341SOL    HW1 2265   2.841   4.675   4.046 -0.1150 -0.6706 -0.8796
  341SOL    HW2 2266   2.991   4.694   4.035 -0.0577 -0.5809  0.0038
  342SOL     OW 2267   6.511   1.053   5.762  0.7567 -0.1512 -0.3243
  342SOL    HW1 2268   6.532   1.146   5.750  2.2696 -0.4984 -0.5367
  342SOL    HW2 2269   6.588   1.017   5.807  0.4471 -1.4224 -0.7954
  343SOL     OW 2270   0.508   1.506   5.576  0.0314 -0.8202 -0.2954
  343SOL    HW1 2271   0.421   1.511   5.537 -0.1050 -0.0086  0.0905
  343SOL    HW2 2272   0.505   1.569   5.649  1.3699  0.2109 -1.1101
  344SOL     OW 2273   7.364   2.148   7.396 -0.5587  0.4856 -0.1185
  344SOL    HW1 2274   7.454   2.180   7.401  0.2937 -1.7483 -0.4321
  344SOL    HW2 2275   7.355   2.093   7.474 -1.2138 -0.3498 -0.7775
  345SOL     OW 2276   7.332   0.822   0.891 -0.0255 -0.5783 -0.6510
  345SOL    HW1 2277   7.350   0.734   0.859  1.7045 -0.5457  0.1702
  345SOL    HW2 2278   7.362   0.821   0.982  0.4671  0.9929 -0.7802
  346SOL     OW 2279   5.517   0.978   2.814 -0.0606  0.0952  0.0721
  346SOL    HW1 2280   5.477   1.065   2.819 -0.1929  0.1273 -1.3209
  346SOL    HW2 2281   5.586   0.979   2.880 -1.2820  0.6127  1.3541
  347SOL     OW 2282   3.867   1.686   3.536 -0.0131 -0.4886 -0.6053
  347SOL    HW1 2283   3.923   1.748   3.582 -0.3096  0.0962 -1.0209
  347SOL    HW2 2284   3.913   1.671   3.453  1.2682 -2.6620  0.4409
  348SOL     OW 2285   2.410   3.972   0.631 -0.8106 -0.0415 -0.0414
  348SOL    HW1 2286   2.338   3.934   0.682 -1.7843  0.8799 -0.6952
  348SOL    HW2 2287   2.368   4.038   0.577  0.7573  1.6371  0.7240
  349SOL     OW 2288   3.880   2.611   3.695 -0.3097  0.1824  0.2485
  349SOL    HW1 2289   3.893   2.677   3.763  1.3062 -0.0231  0.1438
  349SOL    HW2 2290   3.968   2.591   3.663 -1.0790  0.6001 -2.2206
  350SOL     OW 2291   0.446   1.633   2.716 -0.4614  0.3308 -0.8906
  350SOL    HW1 2292   0.399   1.709   2.751  0.1012  0.3893 -0.2405
  350SOL    HW2 2293   0.462   1.655   2.624 -0.1779  1.0659 -0.6717
  351SOL     OW 2294   1.523   7.547   2.216 -0.0565 -0.1469 -0.2281
  351SOL    HW1 2295   1.465   7.484   2.174  0.2684 -0.2666 -0.5030
  351SOL    HW2 2296   1.590   7.566   2.150  0.0777  0.1759 -0.0018
  352SOL     OW 2297   0.882   1.135   0.607 -0.0190  0.6776 -0.2431
  352SOL    HW1 2298   0.931   1.054   0.594 -0.9147  0.0180  0.4116
  352SOL    HW2 2299   0.940   1.204   0.574  0.3026 -0.3263 -1.8752
  353SOL     OW 2300   2.968   1.831   2.959  0.0086  0.4821  0.2280
  353SOL    HW1 2301   2.990   1.756   2.903  1.8241  0.7357  0.5502
  353SOL    HW2 2302   2.908   1.795   3.024  0.9763 -0.7679  0.4678
  354SOL     OW 2303   3.813   1.215   0.837  0.2829 -0.5907  0.0647
  354SOL    HW1 2304   3.718   1.226   0.833  0.1187 -2.2436 -1.0324
  354SOL    HW2 2305   3.827   1.157   0.912  0.3348 -1.2533 -0.4545
  355SOL     OW 2306   4.715   1.154   3.228  0.1293 -0.3446 -0.6980
  355SOL    HW1 2307   4.637   1.119   3.186 -0.7364  1.4005 -0.6200
  355SOL    HW2 2308   4.770   1.182   3.155 -0.3303  0.5029 -0.7312
  356SOL     OW 2309   7.860   5.981   4.047  0.3304 -0.0488 -0.3924
  356SOL    HW1 2310   7.850   5.960   3.954  1.1206  0.9316 -0.7055
  356SOL    HW2 2311   7.847   5.897   4.091 -0.1169 -0.5169 -1.3774
  357SOL     OW 2312   4.873   5.086   2.793  0.1926  0.0755  0.2063
  357SOL    HW1 2313   4.961   5.049   2.785  0.0852 -0.0933 -0.2265
  357SOL    HW2 2314   4.838   5.084   2.704  0.3570  1.6176  0.0828
  358SOL     OW 2315   1.086   2.266   7.589  1.0952 -0.0569  0.1411
  358SOL    HW1 2316   1.077   2.203   7.661  1.0469 -0.2429 -0.0268
  358SOL    HW2 2317   1.173   2.247   7.552 -0.1417 -2.0976 -1.8647
  359SOL     OW 2318   5.609   4.826   0.882 -0.3894 -0.1143  0.2700
  359SOL    HW1 2319   5.550   4.811   0.808 -0.9454  0.6095  0.5519
  359SOL    HW2 2320   5.677   4.884   0.848 -1.0002  0.7376  0.4895
  360SOL     OW 2321   6.767   6.853   1.094  0.0742 -0.0228 -0.4589
  360SOL    HW1 2322   6.862   6.845   1.102  0.2314  1.6513 -0.3374
  360SOL    HW2 2323   6.753   6.942   1.061 -1.4733  0.0323  0.2788
  361SOL     OW 2324   3.471   4.572   1.442  0.1948  0.1857 -0.7803
  361SOL    HW1 2325   3.515   4.573   1.357  0.3353 -2.5529 -0.7890
  361SOL    HW2 2326   3.477   4.481   1.471  0.2534  1.0984  2.2406
  362SOL     OW 2327   3.975   5.105   5.818  0.7120  0.2737  0.3968
  362SOL    HW1 2328   3.970   5.020   5.862  1.7720  0.3617  0.7157
  362SOL    HW2 2329   3.944   5.089   5.729  0.5277 -0.3662  0.5798
  363SOL     OW 2330   7.194   0.626   6.796  0.6809 -0.7098 -0.0933
  363SOL    HW1 2331   7.189   0.547   6.743 -0.3377 -0.4462 -0.3957
  363SOL    HW2 2332   7.193   0.594   6.887  0.1566 -1.0346 -0.2131
  364SOL     OW 2333   0.902   5.677   8.067  0.0776 -0.0843  0.1549
  364SOL    HW1 2334   0.864   5.754   8.026 -0.2360  0.4555  1.4321
  364SOL    HW2 2335   0.826   5.624   8.093  0.2754 -0.5106 -0.1373
  365SOL     OW 2336   0.686   4.400   1.947  0.0902  0.0417 -0.1144
  365SOL    HW1 2337   0.690   4.395   2.043 -1.9854  3.3194  0.2197
  365SOL    HW2 2338   0.605   4.354   1.924  0.9472 -1.3491 -0.3649
  366SOL     OW 2339   6.094   8.101   2.325  0.4361  0.6488 -0.4490
  366SOL    HW1 2340   6.102   8.138   2.414 -0.7516 -0.9591  0.3416
  366SOL    HW2 2341   6.015   8.142   2.290  0.2680  0.4232 -0.3361
  367SOL     OW 2342   1.720   0.047   0.186 -0.5386 -0.4701  0.0995
  367SOL    HW1 2343   1.759   0.086   0.265 -0.3277  1.5688 -0.9757
  367SOL    HW2 2344   1.794   0.032   0.128 -0.8360 -0.8652 -0.1803
  368SOL     OW 2345   8.173   2.309   2.058  0.5807  0.0249 -0.0490
  368SOL    HW1 2346   8.181   2.404   2.048  0.3390  0.0364 -0.1315
  368SOL    HW2 2347   8.171   2.295   2.152 -0.3828  0.1878 -0.0353
  369SOL     OW 2348   2.888   3.172   6.077  0.0864  0.1693 -0.1906
  369SOL    HW1 2349   2.972   3.142   6.112  0.2860 -0.3074 -1.0468
  369SOL    HW2 2350   2.834   3.188   6.154  0.7737 -0.0855  0.3504
  370SOL     OW 2351   0.754   2.618   5.206  0.3393 -0.0833 -0.1899
  370SOL    HW1 2352   0.809   2.633   5.129 -0.4539  0.5504 -0.6336
  370SOL    HW2 2353   0.816   2.590   5.274  1.0507 -0.6315 -1.0409
  371SOL     OW 2354   0.263   6.822   1.776  0.1624 -0.0788  0.0469
  371SOL    HW1 2355   0.351   6.786   1.790  0.9560  1.4433 -0.8028
  371SOL    HW2 2356   0.226   6.770   1.705  0.1169 -1.1584  0.8584
  372SOL     OW 2357   4.530   5.062   0.892 -0.6886 -0.1995 -0.0187
  372SOL    HW1 2358   4.557   5.022   0.810 -0.9972 -2.0050  0.7384
  372SOL    HW2 2359   4.466   5.001   0.929 -1.5043  1.2145  0.9523
  373SOL     OW 2360   6.798   4.424   7.759  0.1931  0.3432 -0.0659
  373SOL    HW1 2361   6.781   4.331   7.771 -0.5619  0.6617  1.5100
  373SOL    HW2 2362   6.892   4.434   7.777 -0.1173  0.1713  1.7611
  374SOL     OW 2363   2.462   3.028   0.868 -0.0118  0.4676  0.0720
  374SOL    HW1 2364   2.467   2.936   0.843  1.5713  0.5721 -0.0966
  374SOL    HW2 2365   2.527   3.038   0.937 -1.0291  1.2064  0.9286
  375SOL     OW 2366   4.956   0.980   5.190  0.0413  0.0272 -0.4510
  375SOL    HW1 2367   5.008   1.040   5.243 -0.6710  0.6316 -0.4341
  375SOL    HW2 2368   4.996   0.894   5.205  0.4658  0.3460  0.2715
  376SOL     OW 2369   4.752   4.945   3.016 -0.4411 -0.1530  0.2709
  376SOL    HW1 2370   4.734   4.889   2.941 -1.7976  2.0668 -1.1134
  376SOL    HW2 2371   4.815   5.010   2.984 -1.3870  1.1056  0.8901
  377SOL     OW 2372   3.653   1.202   4.126  0.6013  0.1888  0.0621
  377SOL    HW1 2373   3.567   1.220   4.089  0.1455  1.9736  1.9074
  377SOL    HW2 2374   3.637   1.136   4.193  0.4661  1.4149  1.2475
  378SOL     OW 2375   4.023   7.546   1.292 -0.0863  0.2780 -0.2498
  378SOL    HW1 2376   3.936   7.583   1.282 -0.2940  0.1489  1.0500
  378SOL    HW2 2377   4.023   7.506   1.379  2.3512  3.2685  1.2390
  379SOL     OW 2378   8.267   5.404   1.774  0.2882 -0.3085 -0.9357
  379SOL    HW1 2379   8.311   5.425   1.857  0.3998 -1.8110 -0.5907
  379SOL    HW2 2380   8.302   5.318   1.750 -1.8008 -1.1511 -1.1032
  380SOL     OW 2381   1.269   2.848   3.662 -0.1746 -0.0752  0.1341
  380SOL    HW1 2382   1.294   2.832   3.571  0.2351 -0.1556  0.2628
  380SOL    HW2 2383   1.196   2.910   3.656 -1.2246 -1.3436 -0.3236
  381SOL     OW 2384   4.525   6.033   6.891  0.0982 -0.1922  0.8269
  381SOL    HW1 2385   4.494   5.993   6.972  0.3691  1.0582  1.5552
  381SOL    HW2 2386   4.620   6.023   6.895  0.0977 -0.3103  0.5568
  382SOL     OW 2387   7.820   6.651   5.145 -0.0927 -0.0855  0.6710
  382SOL    HW1 2388   7.745   6.685   5.096  0.7908 -0.3502 -0.8891
  382SOL    HW2 2389   7.786   6.636   5.233 -1.5576  0.9372  0.2972
  383SOL     OW 2390   4.831   4.839   3.697 -0.1161  0.4831 -0.3701
  383SOL    HW1 2391   4.923   4.865   3.695 -0.2945  1.3181  1.5278
  383SOL    HW2 2392   4.833   4.743   3.697  0.8612  0.4624  2.6325
  384SOL     OW 2393   6.531   3.220   4.041  0.3440 -0.1264 -0.6732
  384SOL    HW1 2394   6.624   3.205   4.027  0.6942 -0.1718  1.5095
  384SOL    HW2 2395   6.487   3.160   3.981  1.7129 -0.4067 -1.4123
  385SOL     OW 2396   7.788   2.147   2.347 -0.5265  0.0449 -0.6236
  385SOL    HW1 2397   7.831   2.088   2.285  1.5675  1.3937 -0.5131
  385SOL    HW2 2398   7.782   2.096   2.428  0.9259 -0.1819 -0.6369
  386SOL     OW 2399   1.225   3.940   5.831  0.6622 -0.2289  0.0534
  386SOL    HW1 2400   1.251   3.866   5.886  0.8399  0.6943  1.2560
  386SOL    HW2 2401   1.130   3.938   5.831  0.6695 -0.6925 -0.2585
  387SOL     OW 2402   4.315   8.027   3.718  0.0318  0.2022 -0.0642
  387SOL    HW1 2403   4.292   8.111   3.678 -0.7451  1.5229  2.9914
  387SOL    HW2 2404   4.409   8.018   3.706 -0.0236  1.1064 -1.1541
  388SOL     OW 2405   4.507   0.591   1.178  0.5560  0.1594  0.6670
  388SOL    HW1 2406   4.535   0.655   1.112  1.0519  0.1855  0.8992
  388SOL    HW2 2407   4.581   0.531   1.187 -0.1425 -0.7941  0.0247
  389SOL     OW 2408   3.102   0.555   8.050  0.1574  0.0568 -0.1763
  389SOL    HW1 2409   3.166   0.502   8.098  0.5281  0.7982  0.1649
  389SOL    HW2 2410   3.018   0.533   8.089  0.4594  0.6632  0.8278
  390SOL     OW 2411   0.485   4.870   7.678 -0.1476  0.7406 -0.2054
  390SOL    HW1 2412   0.406   4.852   7.627 -0.6180 -3.4838  1.7854
  390SOL    HW2 2413   0.556   4.831   7.626  0.5873  3.8373 -1.6105
  391SOL     OW 2414   7.290   6.993   0.642 -0.1839 -0.4625  0.3158
  391SOL    HW1 2415   7.339   6.914   0.619  2.0194  0.6297  1.1862
  391SOL    HW2 2416   7.255   7.025   0.559  1.2894 -0.8030 -0.4458
  392SOL     OW 2417   7.959   5.394   0.636 -0.3153  0.0663 -0.3196
  392SOL    HW1 2418   7.966   5.439   0.551 -1.1465 -0.2572 -0.5683
  392SOL    HW2 2419   8.017   5.443   0.694  0.5877  0.0403 -1.1814
  393SOL     OW 2420   2.144   8.299   6.939  0.1584  0.1656  0.2248
  393SOL    HW1 2421   2.202   8.354   6.886 -0.4061  2.1400  1.5885
  393SOL    HW2 2422   2.125   8.223   6.884  3.8462 -0.4357 -0.3378
  394SOL     OW 2423   0.774   1.703   5.050  0.2973  0.7719  0.6911
  394SOL    HW1 2424   0.806   1.789   5.023  0.4939  0.5175  0.1147
  394SOL    HW2 2425   0.692   1.693   5.003  0.7517  0.2335  0.0034
  395SOL     OW 2426   2.593   1.043   4.908 -0.0877 -0.3087 -0.0268
  395SOL    HW1 2427   2.501   1.044   4.936  0.0310  0.9108  0.3369
  395SOL    HW2 2428   2.636   1.105   4.966  1.0892 -1.3086  0.1885
  396SOL     OW 2429   1.743   5.835   3.459 -0.2206  0.3374  0.2669
  396SOL    HW1 2430   1.738   5.821   3.365 -1.8372 -1.7249  0.6241
  396SOL    HW2 2431   1.740   5.930   3.470 -0.4488  0.5724 -1.7378
  397SOL     OW 2432   2.945   6.470   4.989 -0.3613  0.1739 -0.1683
  397SOL    HW1 2433   3.040   6.463   4.996 -0.2718  0.7966 -0.7413
  397SOL    HW2 2434   2.925   6.558   5.021 -0.5488  0.7675 -1.8633
  398SOL     OW 2435   2.210   3.898   6.002 -0.5624 -0.4100  0.7224
  398SOL    HW1 2436   2.273   3.941   6.060 -0.6463 -0.4678  0.8552
  398SOL    HW2 2437   2.142   3.864   6.060  0.5837 -2.5737  0.8630
  399SOL     OW 2438   3.884   0.535   5.219  0.5723 -0.4359 -0.3507
  399SOL    HW1 2439   3.900   0.445   5.191  0.6390 -0.0426 -1.5893
  399SOL    HW2 2440   3.817   0.568   5.159  1.4113  0.7263 -0.6534
  400SOL     OW 2441   0.013   1.952   6.713  0.3346  0.0378 -0.0230
  400SOL    HW1 2442  -0.076   1.923   6.694 -0.2712  1.0630  1.1401
  400SOL    HW2 2443   0.026   2.027   6.656 -0.2177  0.9786  1.0534
  401SOL     OW 2444   3.049   2.105   8.253  0.3771  0.4307  0.1898
  401SOL    HW1 2445   3.129   2.126   8.301  0.5971 -1.0027  0.4965
  401SOL    HW2 2446   3.067   2.132   8.163  1.4775 -0.4799  0.1151
  402SOL     OW 2447   4.406   1.758   1.789 -0.0370 -0.1686  0.4790
  402SOL    HW1 2448   4.346   1.686   1.806 -1.5298  1.3050  1.6463
  402SOL    HW2 2449   4.443   1.778   1.875  0.3913  0.4200  0.1556
  403SOL     OW 2450   4.072   0.516   6.349  0.0228  0.0277 -0.3767
  403SOL    HW1 2451   4.096   0.459   6.276  1.7371 -0.8954  0.8844
  403SOL    HW2 2452   4.145   0.576   6.359 -0.2235  0.1931  0.5455
  404SOL     OW 2453   0.831   3.144   4.191  0.3157  0.0998  0.4791
  404SOL    HW1 2454   0.791   3.135   4.104 -2.2523  0.9160  1.5361
  404SOL    HW2 2455   0.887   3.067   4.200  2.2150  0.9996 -2.6700
  405SOL     OW 2456   1.812   8.065   5.025 -0.0536 -0.8816 -0.3248
  405SOL    HW1 2457   1.770   8.009   4.959  0.5201 -0.9958 -0.5928
  405SOL    HW2 2458   1.858   8.003   5.082  1.5362 -0.6127 -1.2924
  406SOL     OW 2459   7.359   0.125   0.534  0.3089 -0.3182  0.5542
  406SOL    HW1 2460   7.273   0.086   0.545  0.9964 -1.3120  2.7664
  406SOL    HW2 2461   7.410   0.057   0.490 -0.0315  0.2631 -0.7398
  407SOL     OW 2462   6.409   0.675   2.552  0.0314  0.0729 -0.2320
  407SOL    HW1 2463   6.333   0.684   2.495 -0.4866  0.5601  0.5245
  407SOL    HW2 2464   6.436   0.765   2.571  0.1773 -0.0888  0.3314
  408SOL     OW 2465   6.322   4.898   6.711  0.1331 -0.3788 -0.1118
  408SOL    HW1 2466   6.386   4.854   6.655 -0.1126  2.4450 -2.7841
  408SOL    HW2 2467   6.368   4.974   6.745 -0.2796 -1.1145  2.1336
  409SOL     OW 2468   2.160   0.365   8.210 -0.2246  0.2266 -0.3491
  409SOL    HW1 2469   2.070   0.352   8.181 -0.3051 -0.6408  0.2605
  409SOL    HW2 2470   2.207   0.287   8.178  0.0715  0.1509  0.2633
  410SOL     OW 2471   7.613   1.613   0.760  0.0747  0.4286 -0.0987
  410SOL    HW1 2472   7.576   1.628   0.847 -0.4176  0.9612 -0.3973
  410SOL    HW2 2473   7.652   1.526   0.765 -0.2598  0.3135  0.5475
  411SOL     OW 2474   0.629   2.734   7.689 -0.2928 -0.0343 -0.7040
  411SOL    HW1 2475   0.590   2.757   7.773  0.9946  2.1756 -0.6949
  411SOL    HW2 2476   0.709   2.786   7.684 -0.5049  0.0994 -3.4206
  412SOL     OW 2477   0.983   4.589   7.895  0.3424 -0.0460 -0.1316
  412SOL    HW1 2478   0.937   4.507   7.911  2.3859 -1.7744 -2.7702
  412SOL    HW2 2479   1.026   4.609   7.979  1.2405 -2.6118  0.0695
  413SOL     OW 2480   2.847   0.101   0.621  0.2268  0.1633  0.3365
  413SOL    HW1 2481   2.835   0.194   0.639  0.1782  0.5633 -1.7169
  413SOL    HW2 2482   2.931   0.079   0.663  0.9770  1.4714 -0.4587
  414SOL     OW 2483   7.945   5.412   2.218  0.3771  0.1297 -0.6123
  414SOL    HW1 2484   7.997   5.381   2.144  0.9776  1.6767 -0.8679
  414SOL    HW2 2485   7.887   5.339   2.238  1.4752 -1.0087 -1.4141
  415SOL     OW 2486   2.127   7.151   4.098 -0.5169  0.8879 -0.4982
  415SOL    HW1 2487   2.053   7.210   4.117 -1.4467  0.2676 -2.1004
  415SOL    HW2 2488   2.113   7.077   4.157 -0.4238  1.3855  0.1533
  416SOL     OW 2489   7.071   5.656   1.991 -0.1873  0.6688 -0.2241
  416SOL    HW1 2490   7.130   5.656   2.067 -2.6438  1.0322  1.7687
  416SOL    HW2 2491   7.022   5.574   1.999  0.2181  0.2306 -2.0130
  417SOL     OW 2492   5.883   1.413   7.739 -0.0869 -0.0817  0.0837
  417SOL    HW1 2493   5.812   1.410   7.803 -0.9735  0.2841 -0.8648
  417SOL    HW2 2494   5.867   1.339   7.682 -0.6428  0.9141 -1.0855
  418SOL     OW 2495   6.741   1.154   0.448  0.6557  0.5471  0.5709
  418SOL    HW1 2496   6.778   1.067   0.433  0.2561  0.4587  0.0472
  418SOL    HW2 2497   6.690   1.145   0.529  0.0180  0.0937  0.1285
  419SOL     OW 2498   1.980   5.858   2.558  0.7354 -0.5271 -0.1598
  419SOL    HW1 2499   1.889   5.842   2.581  0.6187 -0.2108 -0.3956
  419SOL    HW2 2500   2.005   5.936   2.608  0.8514 -0.5637 -0.1598
  420SOL     OW 2501   7.742   8.235   0.580 -0.2641  0.5827  0.5055
  420SOL    HW1 2502   7.718   8.313   0.630 -0.1072  0.3714  0.9118
  420SOL    HW2 2503   7.716   8.162   0.636  1.8701  0.3476  1.2359
  421SOL     OW 2504   0.211   7.343   0.542  0.0593  0.1004  0.3968
  421SOL    HW1 2505   0.250   7.256   0.552 -1.2383 -0.7118 -1.4156
  421SOL    HW2 2506   0.286   7.402   0.532  0.8868 -1.1752 -1.0459
  422SOL     OW 2507   2.084   7.736   2.191 -0.4135 -0.1262 -0.0307
  422SOL    HW1 2508   2.111   7.644   2.184  1.9497  0.6102 -1.1604
  422SOL    HW2 2509   2.124   7.766   2.273 -1.1854 -0.1065  0.3382
  423SOL     OW 2510   0.202   4.915   3.437  0.5277  0.5595 -0.4109
  423SOL    HW1 2511   0.142   4.985   3.465 -0.1920 -0.5124  0.7899
  423SOL    HW2 2512   0.210   4.859   3.514  1.1592 -0.6463 -1.3510
  424SOL     OW 2513   6.377   1.439   2.396 -0.0466 -0.1795 -0.1050
  424SOL    HW1 2514   6.426   1.521   2.390 -0.1272 -0.1896 -0.9608
  424SOL    HW2 2515   6.376   1.418   2.490  1.9893 -0.4325 -0.1266
  425SOL     OW 2516   6.565   4.380   5.212  0.0836 -0.2697  0.4670
  425SOL    HW1 2517   6.500   4.324   5.169  0.7148 -0.7086  0.0831
  425SOL    HW2 2518   6.546   4.468   5.180 -0.0792 -0.4539  0.0582
  426SOL     OW 2519   0.298   6.430   4.027  0.2349 -0.0367 -0.8078
  426SOL    HW1 2520   0.378   6.413   4.076 -0.1787 -2.6862 -0.9533
  426SOL    HW2 2521   0.232   6.447   4.093  1.5850  5.8777 -0.7540
  427SOL     OW 2522   5.326   6.737   1.453  0.3276 -0.7009  0.1490
  427SOL    HW1 2523   5.238   6.767   1.432 -0.0050  0.8009  3.3966
  427SOL    HW2 2524   5.384   6.788   1.397 -0.6956  0.7193  0.3762
  428SOL     OW 2525   4.434   6.287   6.984  0.1554  0.6090  0.6261
  428SOL    HW1 2526   4.389   6.244   6.912 -0.4161  1.7297  0.3067
  428SOL    HW2 2527   4.463   6.215   7.040  2.0967 -0.3811 -1.5757
  429SOL     OW 2528   4.257   5.465   5.229 -0.1853  0.1235 -0.4712
  429SOL    HW1 2529   4.237   5.559   5.226 -0.0103  0.1679 -0.2297
  429SOL    HW2 2530   4.347   5.460   5.262  0.6261 -0.0242 -2.6206
  430SOL     OW 2531   2.193   4.662   4.037 -0.3197  0.0890 -0.1028
  430SOL    HW1 2532   2.130   4.647   4.107  1.3335  1.8410  1.8401
  430SOL    HW2 2533   2.156   4.734   3.987 -0.3356  0.4912  0.4782
  431SOL     OW 2534   2.163   5.621   7.403 -0.0577 -0.1434  0.5043
  431SOL    HW1 2535   2.079   5.628   7.358 -0.1826 -1.4530  0.5030
  431SOL    HW2 2536   2.142   5.631   7.495 -0.4035 -1.7299  0.6089
  432SOL     OW 2537   7.202   4.900   2.787 -0.3462 -0.1059  0.1828
  432SOL    HW1 2538   7.150   4.901   2.707 -0.4209 -1.5734  0.2074
  432SOL    HW2 2539   7.290   4.926   2.759 -0.2192 -1.2330 -0.4808
  433SOL     OW 2540   6.577   4.422   2.970 -0.0817 -0.3346  0.3051
  433SOL    HW1 2541   6.554   4.404   3.061  0.0672 -2.4974 -0.0735
  433SOL    HW2 2542   6.671   4.439   2.972 -0.1568  0.0559  0.6155
  434SOL     OW 2543   2.420   2.984   6.070  0.4663  0.2379 -0.3557
  434SOL    HW1 2544   2.357   3.022   6.131  0.2778  0.7555 -0.8675
  434SOL    HW2 2545   2.488   3.051   6.061  0.2034  0.4018 -1.1560
  435SOL     OW 2546   2.630   7.835   2.538 -0.0800  0.1947  0.0772
  435SOL    HW1 2547   2.553   7.873   2.495  1.8078  1.3950 -2.3997
  435SOL    HW2 2548   2.683   7.911   2.563  1.6848 -0.6845 -0.9356
  436SOL     OW 2549   2.015   4.608   3.458 -0.0427  0.3645 -0.3037
  436SOL    HW1 2550   2.022   4.593   3.364  1.2809  0.4920 -0.2271
  436SOL    HW2 2551   2.101   4.587   3.493 -0.8309 -0.7543  1.0397
  437SOL     OW 2552   7.888   5.455   7.875 -0.5888  0.3815  0.1632
  437SOL    HW1 2553   7.922   5.449   7.964 -2.1727 -1.9012  0.6627
  437SOL    HW2 2554   7.965   5.458   7.819  0.4256 -0.2921  1.5006
  438SOL     OW 2555   2.699   3.426   2.370  0.2650  0.3138  0.1989
  438SOL    HW1 2556   2.661   3.341   2.350  1.9066 -0.1143 -1.2786
  438SOL    HW2 2557   2.760   3.410   2.441  3.8194 -0.6790 -2.9011
  439SOL     OW 2558   1.703   7.225   7.281  0.5195 -0.0196  0.3910
  439SOL    HW1 2559   1.770   7.190   7.222  0.3409  0.5744 -0.1655
  439SOL    HW2 2560   1.622   7.187   7.249  0.2085  1.5416 -0.7398
  440SOL     OW 2561   1.490   7.876   2.254  1.4319  0.0902 -0.3963
  440SOL    HW1 2562   1.510   7.850   2.164 -1.7385 -1.2512 -0.7814
  440SOL    HW2 2563   1.418   7.818   2.280  0.4932  2.2685  2.0658
  441SOL     OW 2564   2.215   5.826   5.872 -0.1795 -0.0488 -0.3463
  441SOL    HW1 2565   2.262   5.756   5.828 -0.1240 -0.5241  0.4475
  441SOL    HW2 2566   2.158   5.864   5.805  1.6272  0.8083 -1.4208
  442SOL     OW 2567   4.794   6.370   3.380  0.6226  0.4971 -0.0535
  442SOL    HW1 2568   4.752   6.285   3.382  3.3545 -0.9172  0.3355
  442SOL    HW2 2569   4.726   6.432   3.407 -1.3793 -1.5450 -0.2851
  443SOL     OW 2570   2.007   2.430   1.635 -0.0156  0.3563  0.2655
  443SOL    HW1 2571   2.034   2.505   1.687 -0.5159 -0.6400  2.0040
  443SOL    HW2 2572   1.935   2.464   1.581 -1.7075  0.6536  2.5925
  444SOL     OW 2573   7.429   7.172   8.027 -0.2739  0.0961  0.3308
  444SOL    HW1 2574   7.487   7.137   8.094 -1.1511  0.5419  1.3257
  444SOL    HW2 2575   7.372   7.098   8.004 -1.4074  0.5261  1.6551
  445SOL     OW 2576   7.842   1.732   1.702  0.0226  0.2805  0.4131
  445SOL    HW1 2577   7.897   1.810   1.711  0.6685 -0.1485  0.1587
  445SOL    HW2 2578   7.861   1.699   1.614 -2.1683  1.2995 -0.4976
  446SOL     OW 2579   4.840   2.834   8.301  0.2923 -0.2441 -0.1469
  446SOL    HW1 2580   4.773   2.843   8.368  1.2669 -0.0315  0.8112
  446SOL    HW2 2581   4.796   2.788   8.229 -0.7389 -0.5462  0.6677
  447SOL     OW 2582   8.027   2.787   5.770  0.5916 -0.9100 -0.4535
  447SOL    HW1 2583   7.945   2.764   5.813 -0.3740 -0.4889 -2.0286
  447SOL    HW2 2584   8.066   2.854   5.826  0.4408 -1.9420  0.9166
  448SOL     OW 2585   2.262   7.385   0.675  0.2424  0.1291 -0.2417
  448SOL    HW1 2586   2.286   7.470   0.638 -1.6364  0.2990 -1.1447
  448SOL    HW2 2587   2.178   7.365   0.635 -0.0171 -1.4931  1.0745
  449SOL     OW 2588   0.014   5.486   0.154  0.1474  0.2126 -0.4052
  449SOL    HW1 2589   0.101   5.480   0.115  0.6870 -0.3439  0.8417
  449SOL    HW2 2590   0.028   5.466   0.247 -1.1062  1.4037  0.0600
  450SOL     OW 2591   5.315   0.425   3.883  0.0810 -0.4250  0.0430
  450SOL    HW1 2592   5.384   0.486   3.910 -1.0419  1.8268 -1.9337
  450SOL    HW2 2593   5.325   0.419   3.788 -0.8916 -2.0209  0.0245
  451SOL     OW 2594   5.651   3.200   3.550  0.0686 -0.1971  0.9156
  451SOL    HW1 2595   5.688   3.164   3.470 -1.4770 -0.8430  0.4668
  451SOL    HW2 2596   5.636   3.124   3.606  0.1532  0.1361  1.3963
  452SOL     OW 2597   2.481   4.236   6.153 -0.0923 -0.5005  0.7811
  452SOL    HW1 2598   2.448   4.147   6.170  0.7580 -1.2171 -1.2325
  452SOL    HW2 2599   2.553   4.224   6.093  0.3130  1.5532  0.8175
  453SOL     OW 2600   5.292   3.642   3.847 -0.2514  0.1311  0.2392
  453SOL    HW1 2601   5.320   3.558   3.881  0.9153 -0.0907 -1.2379
  453SOL    HW2 2602   5.368   3.699   3.856 -1.1098  1.1279  1.4798
  454SOL     OW 2603   4.649   5.174   1.434  0.0204 -0.2023  0.0665
  454SOL    HW1 2604   4.654   5.124   1.352  0.1175  0.8388 -0.5823
  454SOL    HW2 2605   4.700   5.123   1.496  1.6947  0.0059 -1.0829
  455SOL     OW 2606   5.835   6.612   2.336 -0.1486  0.1291  0.3882
  455SOL    HW1 2607   5.794   6.663   2.266 -1.8613 -1.0823  0.4640
  455SOL    HW2 2608   5.906   6.668   2.368  0.5663  0.7691 -2.1793
  456SOL     OW 2609   3.450   0.164   6.175  0.5382  0.6144  0.1731
  456SOL    HW1 2610   3.485   0.221   6.244  3.1439  1.6085 -1.9117
  456SOL    HW2 2611   3.487   0.078   6.194  1.2845  0.8952  0.0113
  457SOL     OW 2612   4.234   0.632   4.637 -0.4885  0.0843  0.2653
  457SOL    HW1 2613   4.298   0.659   4.571 -0.9900  0.8779  0.0918
  457SOL    HW2 2614   4.253   0.540   4.652 -0.1678 -0.0327 -0.7750
  458SOL     OW 2615   0.943   1.415   1.336  0.1761 -0.1496  0.0443
  458SOL    HW1 2616   0.913   1.325   1.349 -1.2301  0.2972 -0.0693
  458SOL    HW2 2617   0.968   1.418   1.243  2.0308 -0.9359  0.4956
  459SOL     OW 2618   1.488   2.312   6.777  0.0544 -0.0055 -0.0939
  459SOL    HW1 2619   1.538   2.236   6.805 -0.8084 -1.2105 -1.7429
  459SOL    HW2 2620   1.547   2.386   6.790  0.8698 -0.9242  1.6141
  460SOL     OW 2621   3.767   7.515   2.728 -0.4657 -0.3661 -0.1309
  460SOL    HW1 2622   3.677   7.547   2.736 -0.1964  0.6921 -1.2503
  460SOL    HW2 2623   3.784   7.472   2.812 -1.2765  1.2910  0.9146
  461SOL     OW 2624   4.023   6.007   2.645  0.9200  0.4872 -0.0592
  461SOL    HW1 2625   4.113   6.026   2.619  2.1203  0.9406  3.9738
  461SOL    HW2 2626   4.016   5.911   2.641  1.3532  0.4956 -1.0455
  462SOL     OW 2627   5.933   2.396   2.047  0.1685  0.4207 -0.3306
  462SOL    HW1 2628   6.007   2.358   2.000  0.3047 -2.1050  1.8048
  462SOL    HW2 2629   5.875   2.322   2.064 -0.8089  1.6331  1.7617
  463SOL     OW 2630   0.734   4.417   6.560  0.1979 -0.0679  0.0429
  463SOL    HW1 2631   0.788   4.348   6.523 -1.7959 -0.6293 -1.9855
  463SOL    HW2 2632   0.658   4.371   6.596  0.4182  0.8039  1.6794
  464SOL     OW 2633   1.408   7.570   2.467 -0.5863 -0.0780  0.0594
  464SOL    HW1 2634   1.446   7.570   2.379 -0.4318  0.1193  0.1257
  464SOL    HW2 2635   1.337   7.634   2.461 -0.9559 -0.5024 -0.0849
  465SOL     OW 2636   6.674   5.764   2.636 -0.0138 -0.6298 -0.0263
  465SOL    HW1 2637   6.607   5.697   2.645 -0.7566 -0.1910 -1.9481
  465SOL    HW2 2638   6.750   5.718   2.601 -0.3295 -0.5862 -0.7799
  466SOL     OW 2639   7.666   4.106   1.350 -0.5006 -0.2055 -0.3567
  466SOL    HW1 2640   7.574   4.091   1.325 -0.3613 -2.8630  0.5867
  466SOL    HW2 2641   7.715   4.043   1.298  0.6856  0.2928  0.1494
  467SOL     OW 2642   0.492   7.839   1.558  0.2230 -0.6232 -0.4175
  467SOL    HW1 2643   0.398   7.852   1.543  0.0726 -0.2161  0.8799
  467SOL    HW2 2644   0.510   7.753   1.520 -0.7243 -0.8122 -0.4584
  468SOL     OW 2645   7.170   7.457   1.120 -0.3765 -0.3596  0.5144
  468SOL    HW1 2646   7.180   7.377   1.067 -2.2826 -0.4643  0.2946
  468SOL    HW2 2647   7.087   7.446   1.165 -0.1186  1.0193  1.3508
  469SOL     OW 2648   0.569   8.091   3.485 -0.1726 -0.5180 -0.2461
  469SOL    HW1 2649   0.515   8.012   3.495 -0.3375 -0.1073  2.7791
  469SOL    HW2 2650   0.518   8.149   3.429 -0.7152 -1.9800 -1.2865
  470SOL     OW 2651   7.926   1.522   4.096 -0.0271  0.9161  0.4336
  470SOL    HW1 2652   7.938   1.598   4.039 -1.0998  1.6157  1.1422
  470SOL    HW2 2653   7.909   1.449   4.035  1.2130  1.1870 -0.2517
  471SOL     OW 2654   5.282   1.402   3.813  0.2291 -0.0587 -0.3586
  471SOL    HW1 2655   5.378   1.399   3.811  0.2537  0.9871 -0.5844
  471SOL    HW2 2656   5.255   1.314   3.784  1.1131 -0.3608 -0.2799
  472SOL     OW 2657   1.862   2.548   0.032 -0.2512  0.5252 -0.0568
  472SOL    HW1 2658   1.815   2.484   0.084 -1.7075  1.1456 -0.5904
  472SOL    HW2 2659   1.940   2.502   0.001 -2.5532 -1.7890 -2.5748
  473SOL     OW 2660   4.828   7.603   1.555 -0.6003 -0.8007 -0.1177
  473SOL    HW1 2661   4.756   7.638   1.502 -0.4717 -2.5270 -1.4483
  473SOL    HW2 2662   4.830   7.510   1.536  0.5133 -1.1822  1.6939
  474SOL     OW 2663   2.616   2.251   7.254 -0.5460 -0.3670  0.0248
  474SOL    HW1 2664   2.548   2.239   7.320 -0.2346 -1.8793  0.0814
  474SOL    HW2 2665   2.583   2.205   7.176  0.1144 -0.5470 -0.1517
  475SOL     OW 2666   0.090   0.984   2.515 -0.0878 -0.0209 -0.6023
  475SOL    HW1 2667  -0.005   0.996   2.513 -0.3960 -2.1373  0.4688
  475SOL    HW2 2668   0.109   0.931   2.438  0.5074  1.9633 -1.8821
  476SOL     OW 2669   0.745   0.686   5.577  0.1926  0.1792 -0.4056
  476SOL    HW1 2670   0.723   0.619   5.512 -1.6001 -1.0060  1.3643
  476SOL    HW2 2671   0.839   0.677   5.589  0.5527  0.3849 -2.7770
  477SOL     OW 2672   6.846   0.613   7.963  0.2708  0.3035  0.0117
  477SOL    HW1 2673   6.784   0.544   7.942  1.4745 -1.0294  0.7556
  477SOL    HW2 2674   6.848   0.668   7.884  1.1350 -1.9147 -1.5873
  478SOL     OW 2675   1.678   4.326   7.482 -0.6404 -0.4517 -1.0711
  478SOL    HW1 2676   1.624   4.336   7.560  0.7424  0.4242 -0.2081
  478SOL    HW2 2677   1.636   4.382   7.416 -0.8532  0.1322 -0.4428
  479SOL     OW 2678   6.900   3.676   1.989  0.6368 -0.6089  0.4020
  479SOL    HW1 2679   6.963   3.607   2.009 -0.0681 -1.0938  0.9572
  479SOL    HW2 2680   6.929   3.711   1.905  2.7156  0.4178  1.5255
  480SOL     OW 2681   4.182   8.250   7.479 -0.1194 -0.2053  0.2899
  480SOL    HW1 2682   4.180   8.343   7.454 -0.6114 -0.4777 -0.7208
  480SOL    HW2 2683   4.218   8.250   7.567 -0.8263  1.0069  0.5936
  481SOL     OW 2684   4.585   6.375   1.037  0.0423  0.2871 -0.5376
  481SOL    HW1 2685   4.556   6.453   0.991 -1.3913  1.0270  1.5823
  481SOL    HW2 2686   4.529   6.305   1.003 -0.5466  0.7008 -0.4232
  482SOL     OW 2687   2.761   5.131   6.554 -0.3356  0.0370 -0.0253
  482SOL    HW1 2688   2.676   5.108   6.592  0.0600 -1.0415  0.2235
  482SOL    HW2 2689   2.741   5.154   6.463 -0.7381 -1.4432 -0.3263
  483SOL     OW 2690   7.431   0.267   0.211 -0.8064  0.1986 -0.4354
  483SOL    HW1 2691   7.385   0.277   0.294 -1.3383  2.4247 -0.9744
  483SOL    HW2 2692   7.519   0.300   0.227 -1.0389  1.0397 -0.8653
  484SOL     OW 2693   0.394   2.032   4.937 -0.2933  0.3720  0.2101
  484SOL    HW1 2694   0.301   2.054   4.923  0.1332  1.5559 -0.8933
  484SOL    HW2 2695   0.434   2.044   4.851  0.7264 -0.9819  0.4928
  485SOL     OW 2696   5.636   1.170   1.314  0.2776  0.4431  0.2166
  485SOL    HW1 2697   5.635   1.258   1.276  0.1727  0.3867  0.0920
  485SOL    HW2 2698   5.726   1.159   1.347  0.2597  0.6406  0.3343
  486SOL     OW 2699   0.152   1.041   0.973  0.1302  0.3085 -0.2409
  486SOL    HW1 2700   0.059   1.035   0.996 -0.3851  1.6332 -1.8734
  486SOL    HW2 2701   0.173   1.134   0.986  1.6217 -0.2294  1.4774
  487SOL     OW 2702   4.408   3.101   0.262  0.3234 -0.2373 -0.3333
  487SOL    HW1 2703   4.369   3.133   0.343 -0.0908 -2.1223  0.2281
  487SOL    HW2 2704   4.346   3.128   0.194  1.0342  2.0058 -0.1626
  488SOL     OW 2705   3.387   4.378   0.637  0.4453 -0.0414  0.2857
  488SOL    HW1 2706   3.304   4.332   0.624 -0.1252  1.1217 -0.2973
  488SOL    HW2 2707   3.449   4.310   0.663 -0.7388 -0.8885  0.9110
  489SOL     OW 2708   0.104   6.519   7.582 -0.0876 -0.4521  0.5071
  489SOL    HW1 2709   0.163   6.493   7.511 -0.4571 -0.7455  0.2999
  489SOL    HW2 2710   0.061   6.437   7.608 -0.6189 -0.1911  0.4534
  490SOL     OW 2711   5.396   0.214   3.508 -0.6089  0.2280 -0.0075
  490SOL    HW1 2712   5.318   0.250   3.466  1.4457  1.3629 -3.0859
  490SOL    HW2 2713   5.464   0.279   3.491  1.7490 -2.1935 -0.1946
  491SOL     OW 2714   8.053   1.324   6.838  0.1727  0.0213 -0.1202
  491SOL    HW1 2715   8.076   1.258   6.903 -2.1033 -0.3984  0.3122
  491SOL    HW2 2716   8.031   1.402   6.889  2.7453  1.1240 -0.6222
  492SOL     OW 2717   7.668   4.228   0.489 -0.4651  0.2937 -0.2022
  492SOL    HW1 2718   7.617   4.203   0.412 -0.6155  0.2935 -0.1029
  492SOL    HW2 2719   7.756   4.246   0.455 -0.3992 -0.2035 -0.3039
  493SOL     OW 2720   7.211   6.812   5.250  0.4166  0.0629 -0.5694
  493SOL    HW1 2721   7.189   6.873   5.179  2.7994  1.6288 -0.0356
  493SOL    HW2 2722   7.191   6.861   5.330  0.7057 -0.5207 -0.1360
  494SOL     OW 2723   6.546   2.599   6.524  0.4134  0.2267  0.0606
  494SOL    HW1 2724   6.605   2.567   6.592  0.1230  1.3822  0.8653
  494SOL    HW2 2725   6.549   2.694   6.533 -0.5348  0.3357 -0.7802
  495SOL     OW 2726   7.393   7.390   4.613  0.6266 -0.2591  0.1430
  495SOL    HW1 2727   7.338   7.363   4.687 -0.1640  0.7450 -0.0629
  495SOL    HW2 2728   7.478   7.409   4.653  0.0967  0.6596  0.8684
  496SOL     OW 2729   3.720   6.446   3.495  0.4014  0.7275 -0.6115
  496SOL    HW1 2730   3.794   6.506   3.486  1.1206 -0.2752 -1.4601
  496SOL    HW2 2731   3.741   6.372   3.438  0.7090 -1.4899  2.2664
  497SOL     OW 2732   0.317   6.013   3.003  0.0492  0.3680 -0.2651
  497SOL    HW1 2733   0.356   5.931   3.034 -0.2198  0.4955  0.4265
  497SOL    HW2 2734   0.391   6.072   2.990  0.2073  0.1481 -0.3632
  498SOL     OW 2735   3.298   8.068   8.097  0.1700  0.5103 -0.5706
  498SOL    HW1 2736   3.220   8.022   8.066  0.3384  0.3018 -0.6901
  498SOL    HW2 2737   3.294   8.061   8.193 -0.3824  1.2066 -0.5368
  499SOL     OW 2738   5.931   8.010   1.703  0.1044  0.2592 -0.1761
  499SOL    HW1 2739   5.893   8.075   1.644  1.5675  0.4947 -0.8917
  499SOL    HW2 2740   5.870   7.937   1.701 -0.5109  0.7894 -0.9792
  500SOL     OW 2741   4.691   2.206   8.053  0.4409  0.0168 -0.4222
  500SOL    HW1 2742   4.683   2.202   8.148 -0.7363 -3.0564 -0.5949
  500SOL    HW2 2743   4.603   2.228   8.022  0.1327 -1.7871 -0.8946
  501SOL     OW 2744   0.488   3.931   7.597  0.7261  0.4703 -0.0945
  501SOL    HW1 2745   0.473   4.016   7.637 -0.0961 -0.0756  0.7814
  501SOL    HW2 2746   0.558   3.892   7.649 -2.2796 -1.4197  2.7142
  502SOL     OW 2747   0.249   0.676   3.984 -0.1365 -0.5939  0.0326
  502SOL    HW1 2748   0.168   0.627   3.971  0.8876 -1.6582 -2.5260
  502SOL    HW2 2749   0.302   0.619   4.040 -1.4335  0.4823  2.4402
  503SOL     OW 2750   3.800   2.625   0.831 -0.0978  0.0096 -0.0446
  503SOL    HW1 2751   3.714   2.619   0.874 -0.6525  1.8956 -0.8271
  503SOL    HW2 2752   3.830   2.714   0.851  1.4238 -0.4491 -0.2532
  504SOL     OW 2753   4.094   8.024   0.942  0.4329  0.1537  0.2742
  504SOL    HW1 2754   4.117   7.950   0.886  0.9003  0.8393 -0.4416
  504SOL    HW2 2755   4.024   8.069   0.895  0.2607  0.2718  0.6347
  505SOL     OW 2756   5.117   6.120   3.102  0.1774  0.0835 -0.6177
  505SOL    HW1 2757   5.055   6.168   3.046  0.8661  0.9108 -0.6798
  505SOL    HW2 2758   5.104   6.159   3.189 -1.2182 -1.5114 -0.0832
  506SOL     OW 2759   0.898   2.665   6.301 -0.0421  0.9600  0.1144
  506SOL    HW1 2760   0.813   2.708   6.298  0.2230  1.4160 -1.3275
  506SOL    HW2 2761   0.924   2.669   6.393 -1.6914  0.5802  0.6150
  507SOL     OW 2762   8.089   2.377   4.278 -0.0292 -0.8707  0.7160
  507SOL    HW1 2763   8.087   2.472   4.266 -0.4590 -0.9568  0.0510
  507SOL    HW2 2764   8.173   2.359   4.319  0.0347 -0.1931  0.8794
  508SOL     OW 2765   5.899   0.727   6.216  0.1304  0.1896  0.5824
  508SOL    HW1 2766   5.856   0.642   6.223  2.5295 -1.2025 -1.2199
  508SOL    HW2 2767   5.979   0.710   6.167  1.8564  3.0585  2.2606
  509SOL     OW 2768   7.997   0.770   1.763 -0.9826  0.4040 -0.3747
  509SOL    HW1 2769   8.072   0.784   1.705  0.1545  1.5140  1.3191
  509SOL    HW2 2770   8.008   0.680   1.795 -0.9032  0.2346 -0.8789
  510SOL     OW 2771   2.084   4.941   4.552 -0.3723  0.4673 -0.2876
  510SOL    HW1 2772   2.040   4.856   4.558  0.0694  0.3115  0.7747
  510SOL    HW2 2773   2.129   4.939   4.468  2.6520 -1.8225  1.3017
  511SOL     OW 2774   7.864   1.551   3.391  0.6436  0.3757 -0.1004
  511SOL    HW1 2775   7.959   1.558   3.382  0.5146  2.4597 -0.2256
  511SOL    HW2 2776   7.829   1.588   3.310 -0.2776  1.2777  0.6869
  512SOL     OW 2777   6.693   0.896   1.812  0.4126  0.4204 -0.0321
  512SOL    HW1 2778   6.770   0.928   1.860 -1.3452  0.3660  2.9179
  512SOL    HW2 2779   6.641   0.850   1.878 -1.6562 -0.4786 -2.2251
  513SOL     OW 2780   3.286   7.404   7.504 -0.6857 -0.6370  0.2779
  513SOL    HW1 2781   3.197   7.381   7.480 -0.9927 -1.4661  2.1009
  513SOL    HW2 2782   3.296   7.496   7.477 -2.3444 -0.3073  0.7582
  514SOL     OW 2783   7.808   0.181   8.124  0.1541  0.3333 -0.2160
  514SOL    HW1 2784   7.748   0.245   8.086  0.1335  0.1998 -0.4077
  514SOL    HW2 2785   7.816   0.208   8.216 -0.7970 -0.1014  0.0002
  515SOL     OW 2786   3.145   6.880   2.687 -0.0923 -0.5485 -0.0389
  515SOL    HW1 2787   3.103   6.803   2.648  0.9673 -1.7767  1.1950
  515SOL    HW2 2788   3.169   6.852   2.775  0.3054  1.2107  0.4215
  516SOL     OW 2789   6.858   1.495   7.152  0.0648  1.1681  0.2573
  516SOL    HW1 2790   6.772   1.475   7.188 -0.0596  1.7017  0.2633
  516SOL    HW2 2791   6.919   1.440   7.201 -0.1926  1.3186  0.7406
  517SOL     OW 2792   3.315   3.135   6.002 -0.2653  0.4282  0.2066
  517SOL    HW1 2793   3.236   3.085   6.025 -0.2626  0.1248 -0.4402
  517SOL    HW2 2794   3.357   3.083   5.934  0.8247  0.2740  0.9924
  518SOL     OW 2795   5.535   1.692   3.410 -0.1800  0.6038  0.1592
  518SOL    HW1 2796   5.499   1.624   3.353 -0.4914 -1.1538  2.3320
  518SOL    HW2 2797   5.471   1.763   3.406  1.0443  1.5903 -3.5580
  519SOL     OW 2798   7.076   3.139   2.033  0.2885  0.4824 -0.5805
  519SOL    HW1 2799   7.096   3.071   1.969 -0.3626 -0.2360 -0.0306
  519SOL    HW2 2800   7.006   3.102   2.087 -1.2459  2.2369 -1.3191
  520SOL     OW 2801   2.754   7.464   2.079 -0.4272 -0.3099 -0.5549
  520SOL    HW1 2802   2.735   7.415   2.160 -1.0842 -0.2258 -0.6620
  520SOL    HW2 2803   2.772   7.396   2.014  0.5253 -0.3725 -0.2365
  521SOL     OW 2804   3.030   1.578   5.079 -0.7612 -0.3711  0.1322
  521SOL    HW1 2805   3.038   1.483   5.081 -2.6836 -0.5384  2.7362
  521SOL    HW2 2806   2.957   1.595   5.019 -0.1708 -0.5185 -0.6237
  522SOL     OW 2807   7.800   6.119   2.088  0.3233 -0.4584 -0.2509
  522SOL    HW1 2808   7.753   6.122   2.005  1.1754  1.7542 -0.6902
  522SOL    HW2 2809   7.831   6.029   2.095 -1.7047 -1.2678 -1.2093
  523SOL     OW 2810   3.648   6.750   7.673 -0.6433  0.2071 -0.2935
  523SOL    HW1 2811   3.632   6.844   7.665  0.6429  0.8188  3.6032
  523SOL    HW2 2812   3.564   6.714   7.701 -0.9441  0.2667 -1.0981
  524SOL     OW 2813   5.741   2.717   8.249 -0.0125 -0.0339 -0.1336
  524SOL    HW1 2814   5.735   2.748   8.159  0.3010 -0.8145 -0.4306
  524SOL    HW2 2815   5.733   2.796   8.302 -0.0175  0.4543 -0.8472
  525SOL     OW 2816   4.539   5.517   4.563  0.3091 -0.4520  0.7199
  525SOL    HW1 2817   4.447   5.501   4.543  0.8571 -1.6691 -0.9380
  525SOL    HW2 2818   4.538   5.590   4.625 -1.9333 -2.3512  3.0628
  526SOL     OW 2819   3.826   0.359   7.815  0.1838 -0.3640 -0.3265
  526SOL    HW1 2820   3.815   0.266   7.797  0.7554 -0.1824 -1.6500
  526SOL    HW2 2821   3.875   0.393   7.740  0.1854  0.9589  0.2530
  527SOL     OW 2822   0.457   1.271   3.464 -0.7841 -0.1566  0.4742
  527SOL    HW1 2823   0.537   1.218   3.463 -0.3587  0.4691  0.7200
  527SOL    HW2 2824   0.386   1.208   3.456 -0.3654 -0.9239  2.5645
  528SOL     OW 2825   1.174   3.726   4.565 -0.1821 -0.3782  0.7751
  528SOL    HW1 2826   1.180   3.730   4.661  4.6501 -1.1841  0.6206
  528SOL    HW2 2827   1.190   3.634   4.544 -0.0798  0.0117 -0.8996
  529SOL     OW 2828   4.337   0.831   0.385 -0.3902 -0.6684 -0.3405
  529SOL    HW1 2829   4.395   0.781   0.443 -0.2824 -0.5680 -0.3603
  529SOL    HW2 2830   4.251   0.826   0.426  0.1190  1.3001  1.0399
  530SOL     OW 2831   2.470   0.756   2.604 -0.1399  0.7105  0.4175
  530SOL    HW1 2832   2.452   0.739   2.696  3.1532 -1.2263  0.7895
  530SOL    HW2 2833   2.498   0.847   2.601  0.2444  0.6275  1.4299
  531SOL     OW 2834   0.774   2.582   7.307 -0.3034  0.7369 -0.4050
  531SOL    HW1 2835   0.844   2.519   7.323 -0.8764  0.6449  1.9719
  531SOL    HW2 2836   0.814   2.667   7.324 -0.7447  0.6815  0.9966
  532SOL     OW 2837   1.212   4.627   4.143 -0.1983  1.0911 -0.1372
  532SOL    HW1 2838   1.239   4.689   4.075 -1.3439  1.4134 -0.3181
  532SOL    HW2 2839   1.116   4.623   4.134 -0.3865  1.3127  1.6016
  533SOL     OW 2840   4.500   6.646   0.364  0.4123  0.0668 -0.1969
  533SOL    HW1 2841   4.453   6.565   0.343 -1.1027  0.6494  0.7988
  533SOL    HW2 2842   4.437   6.716   0.344  1.1633  0.9106  0.3636
  534SOL     OW 2843   7.633   3.472   2.387  0.3994  0.1350 -0.0598
  534SOL    HW1 2844   7.679   3.416   2.450  0.5091  0.5476  0.2305
  534SOL    HW2 2845   7.606   3.413   2.317  0.2693 -0.3315  0.3806
  535SOL     OW 2846   4.866   7.869   5.961  0.2176 -0.6318  0.2100
  535SOL    HW1 2847   4.900   7.927   6.030 -0.1390 -0.0617 -0.0899
  535SOL    HW2 2848   4.773   7.893   5.954  0.3695 -0.3471 -0.8166
  536SOL     OW 2849   6.840   2.046   2.864 -0.4019  0.4537  0.3098
  536SOL    HW1 2850   6.887   2.065   2.783 -0.2534  1.6363  0.6654
  536SOL    HW2 2851   6.855   1.953   2.879  0.1102  0.3729 -0.6778
  537SOL     OW 2852   6.492   7.845   0.339  0.5159 -0.3740  0.1293
  537SOL    HW1 2853   6.531   7.820   0.256  0.7794  0.2352  0.0656
  537SOL    HW2 2854   6.436   7.771   0.363 -0.8697  0.1427 -1.4008
  538SOL     OW 2855   7.432   0.805   6.585 -0.4946 -0.0903 -0.1385
  538SOL    HW1 2856   7.355   0.860   6.574  0.1269  1.1285  1.3494
  538SOL    HW2 2857   7.451   0.809   6.679  0.0537 -2.2025 -0.1380
  539SOL     OW 2858   2.658   1.870   4.466  0.6447  0.0008 -0.4997
  539SOL    HW1 2859   2.572   1.893   4.429  0.8332  2.4996  0.5250
  539SOL    HW2 2860   2.713   1.945   4.445  1.8854 -0.4510  1.1417
  540SOL     OW 2861   3.276   2.250   4.630 -0.1334  0.2071  0.7196
  540SOL    HW1 2862   3.217   2.304   4.683 -1.3557 -1.3589  1.0154
  540SOL    HW2 2863   3.343   2.220   4.692 -0.0109  0.5743  0.7671
  541SOL     OW 2864   2.651   1.880   2.887  0.4286 -0.6388  0.0187
  541SOL    HW1 2865   2.665   1.872   2.981 -0.4686  1.9066  0.3991
  541SOL    HW2 2866   2.556   1.872   2.876  0.2479  1.5200 -0.3417
  542SOL     OW 2867   3.322   6.341   6.673  0.5424  0.6962  0.2517
  542SOL    HW1 2868   3.300   6.432   6.692  1.0766  1.2525 -1.7211
  542SOL    HW2 2869   3.362   6.343   6.586  0.9079 -1.3723  0.3432
  543SOL     OW 2870   1.661   1.245   6.578 -0.1584  0.5109  0.2397
  543SOL    HW1 2871   1.705   1.249   6.493  0.2805  1.3015  0.4960
  543SOL    HW2 2872   1.578   1.202   6.560 -1.4428  3.4436 -1.1928
  544SOL     OW 2873   7.360   2.273   1.832 -0.0002 -0.0232  0.5167
  544SOL    HW1 2874   7.357   2.333   1.758  1.7662  1.5412  1.6616
  544SOL    HW2 2875   7.310   2.317   1.901  3.0809  1.2423  2.0696
  545SOL     OW 2876   5.524   2.959   4.595 -0.3573  0.1510  0.2554
  545SOL    HW1 2877   5.517   3.002   4.510 -0.8865  1.6248  1.0169
  545SOL    HW2 2878   5.603   2.997   4.634 -1.1951  0.9453  1.2058
  546SOL     OW 2879   4.751   5.477   5.466 -0.0503  0.3592 -0.0578
  546SOL    HW1 2880   4.765   5.382   5.474  2.1963  0.8157  1.8133
  546SOL    HW2 2881   4.795   5.501   5.384  2.0619  0.2550  1.0179
  547SOL     OW 2882   3.009   1.266   3.400 -0.7904  0.2601 -0.1597
  547SOL    HW1 2883   2.962   1.340   3.439  0.3342  1.3758 -0.8846
  547SOL    HW2 2884   2.943   1.198   3.392 -1.4066  0.5260  2.2687
  548SOL     OW 2885   1.989   1.233   5.863 -0.9231 -0.4571 -0.2944
  548SOL    HW1 2886   1.912   1.256   5.811 -0.5565  0.0496 -0.6185
  548SOL    HW2 2887   2.060   1.226   5.799 -1.3791 -4.3019 -0.4470
  549SOL     OW 2888   0.262   5.598   0.614 -0.6209 -0.0685  0.1576
  549SOL    HW1 2889   0.182   5.642   0.644  0.1183 -0.0642  2.1910
  549SOL    HW2 2890   0.283   5.536   0.684  0.9807 -0.2979 -0.5092
  550SOL     OW 2891   5.769   0.974   3.779  0.3579  0.9443  0.2844
  550SOL    HW1 2892   5.851   0.988   3.732 -0.6338 -0.2913 -1.8959
  550SOL    HW2 2893   5.706   1.031   3.735 -0.4658  0.1704  0.4379
  551SOL     OW 2894   5.016   3.362   1.220  0.3506 -0.2200  0.0556
  551SOL    HW1 2895   5.090   3.364   1.281 -0.1246 -2.7634  0.7948
  551SOL    HW2 2896   5.053   3.386   1.135  1.8090 -0.4719  0.6097
  552SOL     OW 2897   5.146   4.795   2.182  0.0705 -0.2224  0.9304
  552SOL    HW1 2898   5.221   4.740   2.205  0.2261 -0.1555  0.5830
  552SOL    HW2 2899   5.131   4.778   2.089 -1.5167 -1.6297  1.4287
  553SOL     OW 2900   2.528   3.305   2.602  0.3280  0.0158 -0.4341
  553SOL    HW1 2901   2.474   3.235   2.639  1.5397 -0.0228  1.3249
  553SOL    HW2 2902   2.571   3.265   2.527 -0.2221 -0.6529 -0.3970
  554SOL     OW 2903   6.542   6.787   0.893  0.0127 -0.0073 -0.0556
  554SOL    HW1 2904   6.635   6.770   0.878 -0.2264 -1.1031 -0.3245
  554SOL    HW2 2905   6.519   6.731   0.967 -0.4485  0.1998 -0.0404
  555SOL     OW 2906   0.408   5.007   0.460 -0.2307 -0.3651 -0.4526
  555SOL    HW1 2907   0.404   4.964   0.546  0.1774 -0.1594 -0.3289
  555SOL    HW2 2908   0.317   5.029   0.441 -0.2392  0.3352  0.3177
  556SOL     OW 2909   5.385   6.733   4.102  0.6168 -0.0231  0.4001
  556SOL    HW1 2910   5.296   6.711   4.126  0.4444 -0.0527 -0.2443
  556SOL    HW2 2911   5.376   6.806   4.041  0.9408 -0.8820 -0.7133
  557SOL     OW 2912   6.044   7.023   0.551  0.2255 -0.5211 -0.2732
  557SOL    HW1 2913   6.108   6.952   0.554  1.2660  0.4236 -0.1322
  557SOL    HW2 2914   6.095   7.101   0.530 -0.8243  0.3058  0.2252
  558SOL     OW 2915   5.109   0.327   5.196  0.0873 -0.3471  0.2393
  558SOL    HW1 2916   5.016   0.302   5.202 -0.7359  2.6612  0.9191
  558SOL    HW2 2917   5.122   0.345   5.103 -1.3147  3.6757  0.7375
  559SOL     OW 2918   7.252   6.568   0.030 -0.7743 -0.6257  0.7858
  559SOL    HW1 2919   7.165   6.584  -0.008 -0.3365 -2.0177 -0.8619
  559SOL    HW2 2920   7.294   6.508  -0.031  2.2984  1.9591  0.2723
  560SOL     OW 2921   6.138   1.893   1.550  0.1093  0.0543  0.3878
  560SOL    HW1 2922   6.112   1.922   1.463  0.5557 -0.6895 -0.0042
  560SOL    HW2 2923   6.057   1.892   1.601 -0.6753 -2.3311 -0.8306
  561SOL     OW 2924   5.502   0.548   5.851 -0.7444  0.1864  0.2015
  561SOL    HW1 2925   5.460   0.464   5.867  0.0346  0.0898  1.8625
  561SOL    HW2 2926   5.595   0.530   5.856 -0.5754  1.2863  1.4277
  562SOL     OW 2927   6.343   2.336   0.856 -0.2727  0.2211  0.2264
  562SOL    HW1 2928   6.353   2.403   0.788  0.0707  0.4012  0.4537
  562SOL    HW2 2929   6.342   2.254   0.807  0.0450  0.3464  0.0031
  563SOL     OW 2930   6.702   7.957   8.244 -0.4813 -0.2421 -0.6105
  563SOL    HW1 2931   6.741   8.024   8.187 -0.2271  0.3922  0.3122
  563SOL    HW2 2932   6.774   7.930   8.301 -1.3991  1.0376  1.2079
  564SOL     OW 2933   2.910   7.578   0.226  0.2472  0.0709 -0.2278
  564SOL    HW1 2934   2.991   7.527   0.234  0.2935  0.1819  0.0343
  564SOL    HW2 2935   2.856   7.528   0.166  0.7157  0.2612 -0.8080
  565SOL     OW 2936   2.102   8.253   4.004 -0.5171 -0.0414  0.0977
  565SOL    HW1 2937   2.174   8.256   3.940 -1.6775  1.0301 -1.2144
  565SOL    HW2 2938   2.135   8.302   4.079  0.6931 -0.8891  0.1372
  566SOL     OW 2939   4.072   0.164   0.067 -0.3778 -0.2139 -0.4183
  566SOL    HW1 2940   4.050   0.137  -0.022 -0.6546  1.0487 -0.7421
  566SOL    HW2 2941   4.118   0.248   0.056  2.1040 -1.3990  0.4377
  567SOL     OW 2942   1.671   7.120   5.533 -0.3631  0.0944 -0.5212
  567SOL    HW1 2943   1.681   7.214   5.519 -2.3670  0.5207  0.6960
  567SOL    HW2 2944   1.637   7.112   5.622  0.8162 -1.8650 -0.2129
  568SOL     OW 2945   4.426   7.712   2.576  0.5677  0.0881 -0.4782
  568SOL    HW1 2946   4.514   7.676   2.567 -0.3884 -2.0188 -1.7784
  568SOL    HW2 2947   4.368   7.636   2.568 -1.4217  1.6360 -1.2334
  569SOL     OW 2948   1.773   6.619   6.723 -0.0766  0.2585 -0.1304
  569SOL    HW1 2949   1.820   6.644   6.644 -0.6268  1.1711 -0.1736
  569SOL    HW2 2950   1.746   6.528   6.708  0.5971  0.1366 -0.6139
  570SOL     OW 2951   7.725   3.277   6.692 -0.0740 -0.5484  0.1384
  570SOL    HW1 2952   7.769   3.327   6.761  0.4740 -1.6508  0.5895
  570SOL    HW2 2953   7.704   3.343   6.625  1.4199  0.1506  0.3409
  571SOL     OW 2954   0.067   0.107   5.013  0.8279  0.7581 -0.3126
  571SOL    HW1 2955   0.103   0.046   4.948  0.4897  0.2388 -0.0165
  571SOL    HW2 2956   0.045   0.185   4.962  0.2584  0.2298 -0.8866
  572SOL     OW 2957   6.728   1.612   6.120  0.3151 -0.2938  0.6607
  572SOL    HW1 2958   6.760   1.653   6.039  0.1164  0.0006  0.7307
  572SOL    HW2 2959   6.643   1.574   6.095 -0.7179  1.5904  1.2516
  573SOL     OW 2960   6.149   3.635   4.050 -0.2318 -0.1271 -0.1134
  573SOL    HW1 2961   6.162   3.578   4.126 -1.3117 -1.0749 -0.6265
  573SOL    HW2 2962   6.115   3.577   3.982 -2.7909  1.4129 -0.1732
  574SOL     OW 2963   2.242   6.170   3.151  0.1704 -0.0588  0.2472
  574SOL    HW1 2964   2.261   6.227   3.226  1.1958 -0.2304  0.1344
  574SOL    HW2 2965   2.235   6.231   3.077 -0.5123  0.0805  0.4245
  575SOL     OW 2966   2.336   5.149   2.408  0.4765 -0.0796 -0.3764
  575SOL    HW1 2967   2.301   5.196   2.333  0.1534 -1.6387 -1.2123
  575SOL    HW2 2968   2.278   5.172   2.480 -0.0058  0.3461 -0.9001
  576SOL     OW 2969   0.284   6.502   4.480 -0.1274  0.0069  0.3447
  576SOL    HW1 2970   0.349   6.571   4.489  1.7116 -1.8820  1.9252
  576SOL    HW2 2971   0.329   6.433   4.432 -0.8109 -1.4731  1.7883
  577SOL     OW 2972   8.272   8.052   7.558  0.4543 -0.5328  0.2419
  577SOL    HW1 2973   8.334   8.032   7.488  1.2419 -1.3831  1.1755
  577SOL    HW2 2974   8.193   8.003   7.534 -0.1227  1.1260 -1.3197
  578SOL     OW 2975   6.501   0.258   4.968 -0.1017  0.1671 -0.8322
  578SOL    HW1 2976   6.460   0.264   4.882 -2.9343  0.6473  0.4783
  578SOL    HW2 2977   6.584   0.306   4.959  0.0972 -0.6187 -3.5152
  579SOL     OW 2978   2.812   7.295   6.825  0.0735  0.5734  0.0670
  579SOL    HW1 2979   2.874   7.364   6.801 -1.8775  1.3257 -3.0048
  579SOL    HW2 2980   2.777   7.323   6.910  1.7962  1.5792  0.4804
  580SOL     OW 2981   4.803   2.273   4.302  0.1860  0.4154 -0.2013
  580SOL    HW1 2982   4.778   2.232   4.219  1.5511 -2.3798  0.6859
  580SOL    HW2 2983   4.856   2.349   4.276  0.9231 -0.6431 -1.9077
  581SOL     OW 2984   2.130   2.955   1.768  0.0608  0.3126  0.1908
  581SOL    HW1 2985   2.159   2.864   1.766  1.5416  0.7904 -1.5045
  581SOL    HW2 2986   2.103   2.973   1.678 -0.0772  1.6041  0.4906
  582SOL     OW 2987   6.902   3.424   0.373  0.0974 -0.2107 -0.0310
  582SOL    HW1 2988   6.976   3.367   0.352 -1.5147 -1.8056 -1.5341
  582SOL    HW2 2989   6.880   3.467   0.290 -0.7300  0.1687  0.3758
  583SOL     OW 2990   1.921   1.130   1.189  0.3416  0.2974  0.0067
  583SOL    HW1 2991   1.976   1.053   1.203  0.7926  0.5695 -0.2663
  583SOL    HW2 2992   1.956   1.196   1.248  0.6528  0.6467 -0.5735
  584SOL     OW 2993   3.097   4.115   4.750  0.0156  0.1831 -0.3229
  584SOL    HW1 2994   3.171   4.169   4.777  0.6057 -1.6279  1.9628
  584SOL    HW2 2995   3.136   4.045   4.698  0.0769 -1.2109  1.5298
  585SOL     OW 2996   7.553   6.287   1.780 -0.0718  0.3734  0.5255
  585SOL    HW1 2997   7.637   6.271   1.823 -0.1569  0.0327  0.5659
  585SOL    HW2 2998   7.535   6.207   1.731 -0.0615  0.6886 -0.0097
  586SOL     OW 2999   5.277   7.455   4.632  0.9647 -0.4232 -0.0359
  586SOL    HW1 3000   5.285   7.537   4.584 -0.3994 -1.2440 -1.7336
  586SOL    HW2 3001   5.191   7.459   4.673  1.0599 -0.8381  0.2140
  587SOL     OW 3002   3.757   3.225   0.986  0.2341  0.2729  0.0721
  587SOL    HW1 3003   3.749   3.288   1.057  3.0609  0.1198  0.5768
  587SOL    HW2 3004   3.838   3.178   1.003 -0.2228 -1.4045 -1.9844
  588SOL     OW 3005   2.795   7.851   4.727 -0.1107  0.1065 -0.5949
  588SOL    HW1 3006   2.790   7.923   4.664 -1.4213  0.1113 -0.4972
  588SOL    HW2 3007   2.855   7.789   4.687 -0.0762  0.6202 -1.3460
  589SOL     OW 3008   7.157   6.671   5.554  0.6597  0.1143  0.3439
  589SOL    HW1 3009   7.181   6.764   5.549 -1.4962  0.7348  0.7306
  589SOL    HW2 3010   7.082   6.663   5.494  2.2932 -1.9062 -1.4960
  590SOL     OW 3011   2.552   0.454   1.240  0.1299 -0.0314  0.3096
  590SOL    HW1 3012   2.613   0.442   1.313  1.9593  1.8203 -0.8499
  590SOL    HW2 3013   2.497   0.528   1.266 -0.1684 -0.2880  0.4132
  591SOL     OW 3014   1.631   1.599   4.639  0.2573  0.5848  0.5598
  591SOL    HW1 3015   1.649   1.505   4.637  0.3831  0.6314 -0.3111
  591SOL    HW2 3016   1.585   1.612   4.722 -1.3640 -0.5368 -0.1362
  592SOL     OW 3017   7.893   1.472   2.173  0.0923  0.3570 -0.1353
  592SOL    HW1 3018   7.835   1.485   2.247  0.1594 -0.4298  0.0610
  592SOL    HW2 3019   7.926   1.560   2.152 -0.0755  0.6027  0.6352
  593SOL     OW 3020   4.277   5.978   1.476 -0.0642 -0.0859 -0.4076
  593SOL    HW1 3021   4.207   5.998   1.414 -0.3762  1.2485  0.3440
  593SOL    HW2 3022   4.243   6.005   1.561  0.3591 -1.8830  0.3696
  594SOL     OW 3023   6.784   7.060   7.942  0.1400 -0.2777 -0.1907
  594SOL    HW1 3024   6.787   7.086   8.034 -0.6517 -2.0636  0.3671
  594SOL    HW2 3025   6.731   7.127   7.899  0.9296  0.8311  0.5580
  595SOL     OW 3026   0.420   2.884   2.397 -0.2258  0.1751 -0.0148
  595SOL    HW1 3027   0.362   2.914   2.466 -0.6976 -0.7205 -0.0250
  595SOL    HW2 3028   0.364   2.875   2.320 -0.0276 -0.4092 -0.0968
  596SOL     OW 3029   5.746   0.442   7.968 -0.2115  0.5525  0.2340
  596SOL    HW1 3030   5.657   0.437   8.002 -1.5215 -1.2956 -3.3066
  596SOL    HW2 3031   5.748   0.523   7.917  0.3798  0.9245  0.8244
  597SOL     OW 3032   0.702   6.411   0.337 -0.8150  0.0759  0.2083
  597SOL    HW1 3033   0.629   6.360   0.373 -1.5508  0.7497 -0.3140
  597SOL    HW2 3034   0.741   6.353   0.271 -1.6286  0.1642 -0.3642
  598SOL     OW 3035   7.238   5.644   2.200  0.0951  0.4061  0.2058
  598SOL    HW1 3036   7.225   5.735   2.226 -0.6804  0.7311 -1.2276
  598SOL    HW2 3037   7.203   5.592   2.273  1.5924  1.2292  1.5364
  599SOL     OW 3038   3.399   6.745   2.458  0.3787 -0.3194 -0.3137
  599SOL    HW1 3039   3.321   6.759   2.404 -0.2272 -0.5320  0.4937
  599SOL    HW2 3040   3.446   6.828   2.456  0.0679 -0.1526 -0.6959
  600SOL     OW 3041   5.160   3.002   3.596 -0.2280 -0.1124 -0.6493
  600SOL    HW1 3042   5.104   2.938   3.639 -0.9779 -0.3952 -2.0427
  600SOL    HW2 3043   5.233   3.015   3.658 -0.4207 -1.7756 -0.0500
  601SOL     OW 3044   6.194   3.684   7.726  0.1386 -0.5277  0.1188
  601SOL    HW1 3045   6.205   3.755   7.663  0.4338 -0.2533  0.4871
  601SOL    HW2 3046   6.242   3.610   7.687  1.4007  0.0124  0.6456
  602SOL     OW 3047   1.402   4.978   3.760  0.9775 -0.3345 -0.3200
  602SOL    HW1 3048   1.352   4.902   3.791 -1.3002  1.4104  0.4597
  602SOL    HW2 3049   1.376   4.986   3.668 -0.4976  0.7662  0.1700
  603SOL     OW 3050   1.017   5.639   3.734  0.0207  0.1895 -0.7096
  603SOL    HW1 3051   1.050   5.662   3.647  1.5897  1.3119  0.1595
  603SOL    HW2 3052   1.082   5.578   3.769  0.3852  1.1937  0.3961
  604SOL     OW 3053   0.562   3.808   0.967 -0.0378  0.2732 -0.3521
  604SOL    HW1 3054   0.597   3.884   1.014  0.8002  0.8056 -1.7833
  604SOL    HW2 3055   0.629   3.788   0.902 -0.8014 -0.9546 -0.7722
  605SOL     OW 3056   4.377   0.168   5.686 -0.1787  0.2990  0.0068
  605SOL    HW1 3057   4.338   0.130   5.764  0.0848 -0.5842 -0.2880
  605SOL    HW2 3058   4.471   0.148   5.694 -0.2026 -0.1195 -0.7073
  606SOL     OW 3059   0.826   3.111   1.413  0.1904  0.0541  0.2326
  606SOL    HW1 3060   0.805   3.181   1.475 -0.6450  1.3536 -1.4850
  606SOL    HW2 3061   0.741   3.075   1.388  0.5938 -1.2941  0.7684
  607SOL     OW 3062   4.576   1.927   7.087  0.1440 -0.3656  0.1339
  607SOL    HW1 3063   4.523   1.878   7.150  1.2968 -3.3497 -1.1113
  607SOL    HW2 3064   4.667   1.901   7.107  0.5916 -0.5824 -2.0721
  608SOL     OW 3065   1.722   7.579   6.756 -0.0097 -0.5604  0.0672
  608SOL    HW1 3066   1.721   7.484   6.744 -0.1465 -0.4681 -0.7365
  608SOL    HW2 3067   1.804   7.596   6.801 -0.0248 -1.0739  0.2932
  609SOL     OW 3068   6.504   3.834   1.571  0.1103  0.0188  0.0928
  609SOL    HW1 3069   6.447   3.809   1.643 -0.5936  0.9385 -0.1407
  609SOL    HW2 3070   6.590   3.845   1.611 -0.3869  1.0542  0.8836
  610SOL     OW 3071   3.083   3.566   3.764 -0.3991 -0.1158  0.4656
  610SOL    HW1 3072   3.015   3.629   3.788  0.6269  1.6743 -1.1323
  610SOL    HW2 3073   3.165   3.614   3.775  0.6523 -2.2366  2.3560
  611SOL     OW 3074   7.848   5.781   5.197 -0.2968 -0.0386 -0.4945
  611SOL    HW1 3075   7.785   5.826   5.252 -0.4043  0.9841 -1.4184
  611SOL    HW2 3076   7.864   5.698   5.240 -0.4926  0.6819  0.9836
  612SOL     OW 3077   1.194   4.666   5.964 -0.4668 -0.0747  0.5964
  612SOL    HW1 3078   1.243   4.593   6.003 -0.1057 -0.5854 -0.7848
  612SOL    HW2 3079   1.153   4.710   6.039  0.4260 -0.8745  1.5746
  613SOL     OW 3080   3.759   2.086   2.444  0.7978  0.4911  0.0266
  613SOL    HW1 3081   3.664   2.086   2.435  0.7452  0.8399  0.5509
  613SOL    HW2 3082   3.777   2.155   2.508  1.3883  0.3092  0.0592
  614SOL     OW 3083   4.247   6.132   7.530  0.0076  0.3063 -0.7118
  614SOL    HW1 3084   4.294   6.093   7.456  0.5315  1.8185 -1.2139
  614SOL    HW2 3085   4.238   6.224   7.505 -1.0950  0.5206  0.4751
  615SOL     OW 3086   8.246   1.685   4.439  0.4152 -0.3923 -0.1756
  615SOL    HW1 3087   8.303   1.693   4.516 -0.3177 -0.6767  0.3948
  615SOL    HW2 3088   8.279   1.753   4.379  0.3027  0.5652  0.8178
  616SOL     OW 3089   6.411   7.158   5.661  0.3570 -0.7434 -0.1445
  616SOL    HW1 3090   6.382   7.067   5.655  0.0778 -0.6887  0.3699
  616SOL    HW2 3091   6.406   7.179   5.754  2.2275 -0.7872 -0.0028
  617SOL     OW 3092   8.151   2.965   7.409  0.3961  0.0805 -0.0671
  617SOL    HW1 3093   8.165   2.871   7.424 -0.0009 -0.3714 -2.3441
  617SOL    HW2 3094   8.103   2.969   7.326  1.4590  2.3413 -0.6053
  618SOL     OW 3095   5.497   2.268   7.205 -0.0257 -0.0965 -0.2461
  618SOL    HW1 3096   5.530   2.308   7.125  0.9234 -1.6567 -0.6509
  618SOL    HW2 3097   5.431   2.330   7.238  0.5539  1.1957 -1.4886
  619SOL     OW 3098   7.149   8.196   5.244  0.0919  0.0147  0.0788
  619SOL    HW1 3099   7.082   8.263   5.238 -0.1836 -0.2209  0.5588
  619SOL    HW2 3100   7.165   8.170   5.153  0.4679  0.9902 -0.1383
  620SOL     OW 3101   0.501   1.458   3.827  0.3014 -0.2111 -0.1174
  620SOL    HW1 3102   0.471   1.503   3.748  0.9986  2.3132  1.0128
  620SOL    HW2 3103   0.563   1.393   3.794 -0.0267  0.2426 -1.7183
  621SOL     OW 3104   7.389   1.862   6.699 -0.0999  0.4465  0.0120
  621SOL    HW1 3105   7.415   1.913   6.776  1.7271 -1.6830  0.8503
  621SOL    HW2 3106   7.293   1.859   6.704  0.0063 -0.3114  2.6534
  622SOL     OW 3107   8.259   4.115   0.076 -0.0225  0.3887  0.5422
  622SOL    HW1 3108   8.337   4.116   0.021  0.8050  0.2084  1.6862
  622SOL    HW2 3109   8.260   4.200   0.121 -0.8320  0.6428  0.0881
  623SOL     OW 3110   1.453   0.571   7.588 -0.4036  0.0965 -0.1134
  623SOL    HW1 3111   1.427   0.550   7.678  1.8005 -1.0201  0.2795
  623SOL    HW2 3112   1.408   0.506   7.534  1.6149 -1.9389  0.5807
  624SOL     OW 3113   4.928   0.215   6.251 -0.5992  0.0256 -0.2327
  624SOL    HW1 3114   5.021   0.193   6.249 -0.3259  0.9474  1.5449
  624SOL    HW2 3115   4.885   0.132   6.275  0.0582  0.3682  2.2055
  625SOL     OW 3116   0.644   2.154   3.498  0.0825 -0.0980 -0.1023
  625SOL    HW1 3117   0.673   2.130   3.411  1.9069  1.3752  0.0758
  625SOL    HW2 3118   0.566   2.208   3.483  1.1386  1.2385 -0.9049
  626SOL     OW 3119   4.664   0.149   0.106  0.1801 -0.3230  0.1668
  626SOL    HW1 3120   4.702   0.091   0.039 -2.7264 -1.7448 -0.3635
  626SOL    HW2 3121   4.574   0.164   0.075 -0.8258  0.0117  3.1087
  627SOL     OW 3122   7.523   1.455   3.542  0.3034  0.0635  0.2499
  627SOL    HW1 3123   7.473   1.492   3.615 -0.2194  1.4385 -0.7941
  627SOL    HW2 3124   7.595   1.517   3.527 -0.3687  0.5144 -1.2620
  628SOL     OW 3125   5.864   6.842   1.238  0.4928  0.5575 -0.4411
  628SOL    HW1 3126   5.811   6.762   1.241 -0.3363  1.1239  0.7060
  628SOL    HW2 3127   5.954   6.812   1.225  0.0814 -0.5147 -0.8228
  629SOL     OW 3128   5.266   3.145   5.049  0.3500  0.4005  0.0978
  629SOL    HW1 3129   5.240   3.107   4.965  0.2960 -0.5060  0.5167
  629SOL    HW2 3130   5.325   3.080   5.087  0.5783  0.9270  0.6449
  630SOL     OW 3131   2.340   3.784   3.247 -0.0570 -0.1408 -0.4646
  630SOL    HW1 3132   2.271   3.804   3.184  0.7782 -0.0440 -1.3627
  630SOL    HW2 3133   2.377   3.701   3.218 -1.8337 -1.7915  1.8042
  631SOL     OW 3134   0.367   6.454   1.578  0.1871 -0.0214 -0.1196
  631SOL    HW1 3135   0.287   6.489   1.618 -0.3895 -1.3930 -0.0048
  631SOL    HW2 3136   0.408   6.403   1.648  1.3996  1.0140 -0.0569
  632SOL     OW 3137   4.867   4.271   6.819  0.2696  0.6372 -0.7379
  632SOL    HW1 3138   4.787   4.220   6.826 -0.0529  1.0344 -1.5655
  632SOL    HW2 3139   4.855   4.326   6.742  1.4428  0.5102 -1.0291
  633SOL     OW 3140   2.226   3.735   1.844 -0.2101  0.0251  0.1363
  633SOL    HW1 3141   2.275   3.737   1.762  0.2779  0.7401  0.4364
  633SOL    HW2 3142   2.279   3.682   1.903  0.7435  1.6385  0.7780
  634SOL     OW 3143   0.248   1.821   1.754 -0.3714  0.2985  0.4548
  634SOL    HW1 3144   0.173   1.786   1.803 -0.5599 -0.8889 -0.6628
  634SOL    HW2 3145   0.320   1.761   1.774  0.1874  1.1930  1.1767
  635SOL     OW 3146   1.358   5.892   7.436  0.1328 -1.0169 -0.3384
  635SOL    HW1 3147   1.343   5.944   7.357 -0.6760 -1.0323 -0.1997
  635SOL    HW2 3148   1.304   5.933   7.503 -0.9597 -2.3548 -0.3645
  636SOL     OW 3149   5.907   2.039   5.835  0.0772  0.1100  0.5599
  636SOL    HW1 3150   5.828   1.990   5.859 -0.4321  1.2362  1.2041
  636SOL    HW2 3151   5.975   2.005   5.893  0.7560 -2.8217 -1.8432
  637SOL     OW 3152   8.056   6.755   5.522 -0.6839 -0.0037 -0.1869
  637SOL    HW1 3153   8.008   6.819   5.470 -1.9108  0.8289  1.9028
  637SOL    HW2 3154   8.148   6.771   5.503 -1.1158 -0.4593 -2.9168
  638SOL     OW 3155   8.213   4.466   2.177  0.6692 -0.2910  0.1010
  638SOL    HW1 3156   8.126   4.427   2.169  0.8318 -0.7774  0.6592
  638SOL    HW2 3157   8.196   4.560   2.187  0.2376 -0.3184 -0.3455
  639SOL     OW 3158   4.182   5.493   6.404 -0.2443  0.1472  0.4175
  639SOL    HW1 3159   4.211   5.423   6.346  2.4829  1.4050  0.1736
  639SOL    HW2 3160   4.237   5.484   6.482 -0.3971  1.5303  0.7068
  640SOL     OW 3161   0.025   4.933   1.383  0.6149 -0.1737 -0.3397
  640SOL    HW1 3162  -0.005   4.866   1.321  0.3407  0.1904 -0.6062
  640SOL    HW2 3163   0.087   4.985   1.332  0.2878  0.2079 -0.3489
  641SOL     OW 3164   4.237   3.865   0.567  0.3682 -0.3816  0.2280
  641SOL    HW1 3165   4.199   3.811   0.636  0.1829 -0.0151  0.4176
  641SOL    HW2 3166   4.161   3.905   0.524  0.4487 -1.1824 -0.6561
  642SOL     OW 3167   0.036   0.490   5.045 -0.0537 -0.2247  0.3281
  642SOL    HW1 3168  -0.017   0.545   4.987 -0.8156 -0.1568  1.0758
  642SOL    HW2 3169   0.061   0.414   4.992  1.5702  1.1395 -0.9249
  643SOL     OW 3170   7.295   4.173   1.772  0.4086  0.5069  0.0232
  643SOL    HW1 3171   7.361   4.239   1.794 -0.7070  1.3873  0.7720
  643SOL    HW2 3172   7.343   4.106   1.723  1.8350  1.1862  0.4746
  644SOL     OW 3173   3.984   6.636   8.137  0.1778  0.1002 -0.3483
  644SOL    HW1 3174   3.921   6.589   8.191  1.8912 -2.2081 -0.2621
  644SOL    HW2 3175   3.988   6.724   8.175 -1.4276 -0.3526  0.8986
  645SOL     OW 3176   5.923   7.748   5.783 -0.0328  0.0590 -0.1403
  645SOL    HW1 3177   6.008   7.730   5.743  0.4768 -0.7505  1.2478
  645SOL    HW2 3178   5.908   7.674   5.842 -0.8962  1.0626  0.9333
  646SOL     OW 3179   7.494   4.796   3.399  0.2667 -0.3012  0.3514
  646SOL    HW1 3180   7.513   4.809   3.493  0.0276 -0.2281  0.3896
  646SOL    HW2 3181   7.514   4.881   3.360 -0.3621 -0.1042  0.4533
  647SOL     OW 3182   8.181   1.637   6.197 -0.4435  0.2296 -0.0593
  647SOL    HW1 3183   8.262   1.623   6.247 -0.9374 -0.0773  0.6605
  647SOL    HW2 3184   8.189   1.726   6.163  0.2287  0.1750 -0.0550
  648SOL     OW 3185   0.720   4.439   1.156 -0.1256 -0.4538 -0.1996
  648SOL    HW1 3186   0.778   4.495   1.209  0.0321  0.9123 -1.7815
  648SOL    HW2 3187   0.671   4.388   1.220 -0.0918  1.3234  1.2745
  649SOL     OW 3188   4.211   1.580   0.337 -0.3761 -0.0080  0.4999
  649SOL    HW1 3189   4.164   1.576   0.421 -1.8682  0.8428 -0.2702
  649SOL    HW2 3190   4.221   1.488   0.312 -0.9106 -0.2291  1.0692
  650SOL     OW 3191   7.101   4.440   5.542  0.1719 -0.0444  0.2621
  650SOL    HW1 3192   7.173   4.377   5.541 -0.0851 -0.3430  0.4765
  650SOL    HW2 3193   7.046   4.413   5.616  0.5636  0.9928  0.9552
  651SOL     OW 3194   2.421   5.617   6.197  0.0844 -0.0380  0.5892
  651SOL    HW1 3195   2.516   5.618   6.186  0.0889 -0.2197  0.6175
  651SOL    HW2 3196   2.398   5.709   6.209 -0.2043  0.5306 -3.4212
  652SOL     OW 3197   1.460   7.493   6.799  0.6917 -0.3632  0.7232
  652SOL    HW1 3198   1.443   7.585   6.781  1.5833  0.1775  2.5361
  652SOL    HW2 3199   1.554   7.488   6.815  0.4585 -1.3627  1.9160
  653SOL     OW 3200   7.714   8.010   8.068 -0.6634 -0.1894  0.2838
  653SOL    HW1 3201   7.677   8.077   8.126 -0.3903 -1.1357  1.5734
  653SOL    HW2 3202   7.691   8.040   7.980 -0.8742  1.3996  0.8514
  654SOL     OW 3203   5.384   3.441   7.873 -0.0667 -0.0328 -0.0018
  654SOL    HW1 3204   5.335   3.427   7.792  0.9513 -3.1659 -0.1584
  654SOL    HW2 3205   5.476   3.443   7.845  0.1392  2.0466  0.7278
  655SOL     OW 3206   6.537   5.706   5.237 -0.1215  0.2446  0.2484
  655SOL    HW1 3207   6.536   5.669   5.325 -3.8804  1.3622  0.7533
  655SOL    HW2 3208   6.478   5.781   5.241 -0.4804  0.2441 -3.2787
  656SOL     OW 3209   4.019   4.898   3.174  0.3521 -0.2906  0.1025
  656SOL    HW1 3210   3.971   4.927   3.096  0.7601  0.5338  0.1529
  656SOL    HW2 3211   3.951   4.869   3.235 -0.0473  0.3245 -0.0464
  657SOL     OW 3212   7.536   8.173   3.226 -0.3541 -0.0988 -0.3557
  657SOL    HW1 3213   7.623   8.214   3.234 -0.2111 -0.2958 -0.9301
  657SOL    HW2 3214   7.491   8.224   3.159 -1.0716  0.6722  0.6984
  658SOL     OW 3215   4.117   3.886   7.073 -0.0187  0.3213 -0.0667
  658SOL    HW1 3216   4.126   3.862   7.165  0.0471 -1.2396 -0.4671
  658SOL    HW2 3217   4.022   3.888   7.058 -0.0156 -0.7133 -0.2777
  659SOL     OW 3218   5.123   5.775   3.304  0.5888  0.7787 -0.3291
  659SOL    HW1 3219   5.063   5.846   3.327 -0.3225 -0.4672  1.1849
  659SOL    HW2 3220   5.204   5.796   3.351 -0.3377 -0.2297  1.7583
  660SOL     OW 3221   4.946   3.902   5.233 -0.4542 -0.3034 -0.9126
  660SOL    HW1 3222   4.925   3.893   5.140 -1.1927 -0.8400 -0.7070
  660SOL    HW2 3223   4.947   3.812   5.266  1.3023 -0.2297 -0.7067
  661SOL     OW 3224   7.536   5.479   0.285 -0.2738  0.5770 -0.2684
  661SOL    HW1 3225   7.498   5.400   0.325  0.7305 -0.2669 -0.9422
  661SOL    HW2 3226   7.463   5.540   0.278 -2.1158 -1.8417 -3.7265
  662SOL     OW 3227   1.360   6.703   0.617  0.0482  0.4143 -0.1577
  662SOL    HW1 3228   1.292   6.638   0.602  0.6138 -0.1668 -0.1885
  662SOL    HW2 3229   1.436   6.653   0.646  0.4755  1.0603 -0.1472
  663SOL     OW 3230   3.832   0.350   1.662  0.3377 -0.9764 -0.2398
  663SOL    HW1 3231   3.847   0.269   1.612  1.1011 -0.2996 -1.1307
  663SOL    HW2 3232   3.797   0.320   1.746 -1.4244 -2.1303 -1.3244
  664SOL     OW 3233   4.009   0.572   2.858  0.1727 -0.3118  0.0644
  664SOL    HW1 3234   4.042   0.630   2.789 -0.5276 -2.5717 -2.2299
  664SOL    HW2 3235   3.951   0.628   2.910  0.2092  1.2780 -1.5449
  665SOL     OW 3236   0.041   4.412   3.273 -0.3872 -0.2425 -0.4765
  665SOL    HW1 3237   0.099   4.336   3.273 -1.7378 -1.2916 -0.7794
  665SOL    HW2 3238  -0.005   4.406   3.189  0.1318  1.4151 -0.9037
  666SOL     OW 3239   2.977   4.924   6.545 -0.3127 -0.1348  0.1471
  666SOL    HW1 3240   2.928   5.004   6.529 -0.9817 -0.2156  1.6918
  666SOL    HW2 3241   2.990   4.886   6.459 -0.8318  1.1439 -0.5035
  667SOL     OW 3242   4.271   5.071   6.028  0.2262  0.0533  0.2355
  667SOL    HW1 3243   4.326   5.104   5.956  0.6413 -2.8419 -0.8253
  667SOL    HW2 3244   4.181   5.084   5.997  0.3530  1.2092  0.3253
  668SOL     OW 3245   0.106   1.289   5.350 -0.3233  0.1742  0.3913
  668SOL    HW1 3246   0.167   1.274   5.422 -0.4617  0.0200  0.4788
  668SOL    HW2 3247   0.020   1.290   5.392 -0.3631  0.5861  0.2944
  669SOL     OW 3248   7.789   4.071   2.289 -0.2348 -0.6310 -0.1312
  669SOL    HW1 3249   7.796   4.161   2.320 -0.6619 -0.2111 -1.2678
  669SOL    HW2 3250   7.828   4.019   2.360 -0.3549  0.4035  0.7046
  670SOL     OW 3251   4.171   3.684   7.360 -0.5331  0.1155 -0.1674
  670SOL    HW1 3252   4.236   3.626   7.399 -1.8638 -0.9264  0.5315
  670SOL    HW2 3253   4.174   3.763   7.415  0.0299  0.0203 -0.0528
  671SOL     OW 3254   3.073   6.256   1.430  0.3298 -0.0352  0.3582
  671SOL    HW1 3255   3.004   6.264   1.364  0.3234  0.2326  0.3976
  671SOL    HW2 3256   3.149   6.225   1.381  0.1575 -0.4142  0.3299
  672SOL     OW 3257   2.701   6.499   4.259 -0.0371  0.8567  0.2274
  672SOL    HW1 3258   2.628   6.443   4.285 -0.9064  1.3000 -1.1877
  672SOL    HW2 3259   2.776   6.466   4.308 -0.1570 -2.5871 -1.7502
  673SOL     OW 3260   7.688   3.750   0.815  0.7905  0.3336 -0.2197
  673SOL    HW1 3261   7.762   3.693   0.791  1.4264  0.6695  0.9396
  673SOL    HW2 3262   7.702   3.830   0.765 -0.9542 -1.0515 -3.1032
  674SOL     OW 3263   0.302   5.168   1.515 -0.6559 -0.2651  0.2399
  674SOL    HW1 3264   0.356   5.189   1.592 -1.5674 -0.9598  1.0842
  674SOL    HW2 3265   0.327   5.234   1.450 -1.1118  1.4224  1.7212
  675SOL     OW 3266   6.981   5.587   4.066 -0.0401  0.0701 -0.2019
  675SOL    HW1 3267   6.966   5.677   4.097  1.3133  0.6190 -1.1449
  675SOL    HW2 3268   7.006   5.597   3.975 -0.9335 -1.3591 -0.6143
  676SOL     OW 3269   3.679   1.929   3.108 -0.3021  0.3966  0.4604
  676SOL    HW1 3270   3.711   1.895   3.024 -1.2686  2.7119 -0.8944
  676SOL    HW2 3271   3.588   1.901   3.112 -0.5276  1.0769  0.2658
  677SOL     OW 3272   5.756   1.525   5.696  0.4650 -0.1799 -0.8525
  677SOL    HW1 3273   5.845   1.510   5.727  0.3047  1.2674  0.3537
  677SOL    HW2 3274   5.751   1.620   5.680 -1.3654  0.0222  0.7361
  678SOL     OW 3275   2.524   1.160   1.813  0.4094  0.0636 -0.3317
  678SOL    HW1 3276   2.556   1.182   1.725  1.3839  0.3858  0.1027
  678SOL    HW2 3277   2.599   1.176   1.871 -0.9399  2.2373  0.9018
  679SOL     OW 3278   1.858   1.171   6.124 -0.4092 -0.0474 -0.2843
  679SOL    HW1 3279   1.935   1.195   6.074 -0.8103  1.6609 -0.0934
  679SOL    HW2 3280   1.872   1.079   6.147  0.9809 -0.0942 -1.2959
  680SOL     OW 3281   2.205   6.574   3.269 -0.5118  0.1375  0.2042
  680SOL    HW1 3282   2.199   6.658   3.223 -0.9435  0.9101  1.6335
  680SOL    HW2 3283   2.284   6.533   3.233 -0.6441  0.8649 -0.9608
  681SOL     OW 3284   0.893   6.249   8.087  0.4596  0.0921 -0.3017
  681SOL    HW1 3285   0.873   6.288   8.002  0.7184  0.5774 -0.1400
  681SOL    HW2 3286   0.954   6.311   8.128  1.0149 -0.5706 -0.1220
  682SOL     OW 3287   5.648   6.706   5.391 -0.1653 -0.1881  0.0487
  682SOL    HW1 3288   5.566   6.721   5.438  1.4940 -0.9876  3.3618
  682SOL    HW2 3289   5.633   6.625   5.342 -1.0511 -0.8751  1.4152
  683SOL     OW 3290   0.565   1.873   6.082 -0.0915 -0.2888  0.6473
  683SOL    HW1 3291   0.566   1.811   6.155  0.6595 -0.4918  0.4689
  683SOL    HW2 3292   0.635   1.935   6.102  0.0138 -0.2555  0.1736
  684SOL     OW 3293   1.867   8.141   0.902 -0.2094  0.5016  0.2617
  684SOL    HW1 3294   1.776   8.122   0.878  0.2829 -1.4329 -0.1834
  684SOL    HW2 3295   1.860   8.207   0.970 -1.8466  2.1312 -1.4297
  685SOL     OW 3296   2.259   7.188   1.038  0.4422 -0.4485  0.8155
  685SOL    HW1 3297   2.339   7.241   1.045 -0.0654  0.1134  2.7527
  685SOL    HW2 3298   2.209   7.229   0.967  1.8093 -0.7212 -0.3111
  686SOL     OW 3299   3.295   3.429   1.125  0.3857  0.2014 -0.4044
  686SOL    HW1 3300   3.270   3.408   1.035  1.8826  2.1129 -1.2799
  686SOL    HW2 3301   3.361   3.363   1.148  1.3097  0.7943 -1.3393
  687SOL     OW 3302   4.734   2.429   1.771  0.4450 -0.0799  0.3411
  687SOL    HW1 3303   4.772   2.408   1.686  2.2816  1.4342  0.7566
  687SOL    HW2 3304   4.728   2.344   1.816 -4.6023 -1.5877 -2.7985
  688SOL     OW 3305   2.698   1.345   2.612  0.2226  0.1657 -0.1698
  688SOL    HW1 3306   2.627   1.286   2.638 -0.1417  0.0741 -1.3467
  688SOL    HW2 3307   2.776   1.308   2.653 -0.6391  1.2163  2.5705
  689SOL     OW 3308   3.481   2.350   7.383 -0.0351  0.2354  0.3723
  689SOL    HW1 3309   3.537   2.332   7.308  1.0750  0.0465  1.2441
  689SOL    HW2 3310   3.394   2.322   7.354  0.0283  1.7687 -1.4655
  690SOL     OW 3311   2.584   8.185   2.776  0.3030 -0.4189 -0.3652
  690SOL    HW1 3312   2.579   8.101   2.822 -1.5403 -0.7345 -1.1079
  690SOL    HW2 3313   2.627   8.164   2.693  0.6828 -0.4539 -0.1606
  691SOL     OW 3314   5.508   4.435   7.251 -0.3146 -0.4097 -0.1709
  691SOL    HW1 3315   5.566   4.442   7.327  0.6195 -0.0892 -0.8896
  691SOL    HW2 3316   5.497   4.341   7.236  1.6975 -0.5002 -1.2533
  692SOL     OW 3317   1.628   4.413   6.236  0.9254 -0.0754 -0.1853
  692SOL    HW1 3318   1.550   4.361   6.255  0.4156  0.0580 -1.8563
  692SOL    HW2 3319   1.614   4.447   6.148  1.3320  2.7227  0.7445
  693SOL     OW 3320   4.042   4.182   7.765  0.2700 -0.0868 -0.1414
  693SOL    HW1 3321   4.108   4.140   7.820  0.0772 -1.8235 -1.2176
  693SOL    HW2 3322   3.973   4.208   7.827  0.6626 -0.7968  0.6088
  694SOL     OW 3323   1.870   0.880   2.850 -0.0942 -0.2395  0.1207
  694SOL    HW1 3324   1.900   0.896   2.760 -2.5047  0.9737 -0.4975
  694SOL    HW2 3325   1.894   0.958   2.898  0.2352 -0.4405  0.2839
  695SOL     OW 3326   0.152   0.749   0.102  0.0841  0.0383 -0.2743
  695SOL    HW1 3327   0.217   0.776   0.037  1.6832 -1.1342  0.7763
  695SOL    HW2 3328   0.075   0.725   0.051  1.0525 -0.1345 -1.6731
  696SOL     OW 3329   2.174   6.045   6.860  0.0062  0.0241  0.3130
  696SOL    HW1 3330   2.213   6.081   6.781 -0.1857  1.1651  0.7231
  696SOL    HW2 3331   2.179   6.117   6.924 -0.9366 -0.4755  0.9619
  697SOL     OW 3332   3.500   3.648   0.934 -0.0228  0.6446  0.4283
  697SOL    HW1 3333   3.577   3.593   0.919 -0.4571 -0.4288  2.0195
  697SOL    HW2 3334   3.482   3.639   1.028 -1.5355  1.6113  0.2459
  698SOL     OW 3335   2.194   0.325   7.844 -0.1149  0.1444  0.1959
  698SOL    HW1 3336   2.227   0.349   7.930 -0.8621  0.7763  0.3137
  698SOL    HW2 3337   2.258   0.361   7.782  0.3543 -0.2005  0.4794
  699SOL     OW 3338   6.588   4.995   4.742 -0.1218 -0.1436  0.3383
  699SOL    HW1 3339   6.626   4.973   4.657  0.8274  0.7014  0.5346
  699SOL    HW2 3340   6.499   5.024   4.722  0.0929  0.0345 -0.3677
  700SOL     OW 3341   0.023   0.542   3.946 -0.0880  0.6117  0.3998
  700SOL    HW1 3342  -0.070   0.558   3.929 -0.3010  1.2302  2.1014
  700SOL    HW2 3343   0.026   0.450   3.973 -0.0556  0.3007 -0.6224
  701SOL     OW 3344   1.149   7.846   7.786  0.2065  0.0872 -0.4547
  701SOL    HW1 3345   1.184   7.844   7.875  0.4317  1.4588 -0.5036
  701SOL    HW2 3346   1.112   7.933   7.777  0.7904  0.1936 -1.9494
  702SOL     OW 3347   2.385   6.408   4.645 -0.5396  0.2694  0.0901
  702SOL    HW1 3348   2.303   6.457   4.634  0.3305  1.9183  0.8002
  702SOL    HW2 3349   2.453   6.469   4.616  0.5922 -0.4638  1.1693
  703SOL     OW 3350   0.610   2.275   5.994 -0.0158 -0.6352  0.4395
  703SOL    HW1 3351   0.589   2.196   5.945  2.5072 -1.2523  0.2624
  703SOL    HW2 3352   0.616   2.246   6.085 -1.9398 -0.0374  0.7867
  704SOL     OW 3353   0.913   7.628   7.704 -0.1671  0.6173  0.4227
  704SOL    HW1 3354   0.901   7.662   7.615 -1.4370  0.1160  0.3933
  704SOL    HW2 3355   0.989   7.676   7.737  1.2054 -0.2162 -1.4256
  705SOL     OW 3356   4.274   1.590   7.508  0.5674  0.3281  0.4672
  705SOL    HW1 3357   4.336   1.517   7.509 -0.4959 -0.6398 -2.0746
  705SOL    HW2 3358   4.243   1.595   7.418 -1.7687  1.9192  1.3076
  706SOL     OW 3359   4.643   6.956   3.091 -0.3164  0.9314  0.3772
  706SOL    HW1 3360   4.685   6.899   3.026 -0.1570  1.0769  0.3540
  706SOL    HW2 3361   4.549   6.943   3.076 -0.2985  2.3830 -1.1610
  707SOL     OW 3362   7.567   4.518   6.850 -0.3185  0.2597 -0.3351
  707SOL    HW1 3363   7.549   4.607   6.822  1.0587  0.6075 -0.1017
  707SOL    HW2 3364   7.534   4.514   6.940 -1.5640  0.1414 -0.7800
  708SOL     OW 3365   3.558   2.305   1.935 -0.9353  0.5059 -0.1628
  708SOL    HW1 3366   3.466   2.277   1.936 -0.4190 -1.2189  0.6727
  708SOL    HW2 3367   3.608   2.225   1.948  0.7460  1.2722 -1.7097
  709SOL     OW 3368   1.627   5.885   7.516 -0.1039  1.0005  0.1268
  709SOL    HW1 3369   1.531   5.894   7.519  0.0044  2.1870  0.1684
  709SOL    HW2 3370   1.651   5.858   7.604 -0.4626  0.0063 -0.0704
  710SOL     OW 3371   5.703   7.994   8.154  0.2167  0.9612  0.5220
  710SOL    HW1 3372   5.739   8.050   8.223 -1.4791  0.7456  1.6082
  710SOL    HW2 3373   5.630   8.044   8.117 -0.3839  0.1011  0.5082
  711SOL     OW 3374   1.589   1.713   2.911  0.6913 -0.1886 -0.4332
  711SOL    HW1 3375   1.590   1.650   2.839  0.5592 -0.4510 -0.2057
  711SOL    HW2 3376   1.503   1.701   2.953  0.6378  0.1880 -0.4301
  712SOL     OW 3377   1.681   6.329   3.967 -0.1551  0.7245 -0.1063
  712SOL    HW1 3378   1.627   6.340   3.888 -0.4721  2.2579  0.2958
  712SOL    HW2 3379   1.646   6.251   4.010  0.2365 -0.3137 -1.6446
  713SOL     OW 3380   0.055   5.626   7.651  0.0842 -0.1060 -0.3317
  713SOL    HW1 3381   0.031   5.534   7.663 -0.5522  0.1312  0.2501
  713SOL    HW2 3382  -0.019   5.665   7.605 -0.0575  0.3207  0.2519
  714SOL     OW 3383   7.341   4.924   5.947 -0.1222  0.1390 -0.1533
  714SOL    HW1 3384   7.366   4.871   5.871 -0.2086  1.5831 -1.2201
  714SOL    HW2 3385   7.382   5.009   5.931  1.9474 -0.2683  2.6829
  715SOL     OW 3386   6.444   6.122   5.460 -0.0372  0.2217  0.3265
  715SOL    HW1 3387   6.491   6.204   5.478 -1.3555  1.6833 -2.6013
  715SOL    HW2 3388   6.486   6.087   5.382  0.6856 -2.0990  1.7127
  716SOL     OW 3389   0.894   7.417   6.040 -0.4018 -0.0322  0.2424
  716SOL    HW1 3390   0.980   7.406   6.000 -0.2871  0.6341  0.3106
  716SOL    HW2 3391   0.890   7.348   6.106 -0.3533 -0.7609 -0.4943
  717SOL     OW 3392   3.520   3.271   2.157 -0.4705  0.1216 -0.0659
  717SOL    HW1 3393   3.531   3.176   2.158 -0.3330  0.1405  2.2186
  717SOL    HW2 3394   3.442   3.285   2.104  0.3762 -1.1493 -1.7192
  718SOL     OW 3395   6.085   4.061   3.951  0.8017 -0.2145 -0.1660
  718SOL    HW1 3396   6.049   4.130   4.007  0.2608 -0.0761 -0.6724
  718SOL    HW2 3397   6.127   4.001   4.012  1.5908  0.7439  0.2446
  719SOL     OW 3398   6.878   6.705   6.495 -0.0661  0.3146 -0.0243
  719SOL    HW1 3399   6.908   6.780   6.444 -1.5806  0.1693 -1.1703
  719SOL    HW2 3400   6.813   6.741   6.555  1.4464  0.4232  1.5875
  720SOL     OW 3401   2.533   2.563   2.560  0.0835  0.3306 -0.1424
  720SOL    HW1 3402   2.603   2.510   2.597  1.2572  2.0926  0.2218
  720SOL    HW2 3403   2.527   2.533   2.469 -0.4005 -1.5456  0.4824
  721SOL     OW 3404   6.926   2.042   6.941  0.1800  0.0655 -0.0047
  721SOL    HW1 3405   6.887   2.087   6.866 -2.5738 -0.1376  1.2614
  721SOL    HW2 3406   6.919   2.105   7.013 -0.5072 -1.0649  0.9368
  722SOL     OW 3407   1.091   7.551   6.335  0.3327 -0.0402 -0.2404
  722SOL    HW1 3408   1.173   7.536   6.288  0.0025 -1.3576 -0.4148
  722SOL    HW2 3409   1.090   7.485   6.404 -0.8420 -0.3969 -0.5876
  723SOL     OW 3410   4.263   4.541   5.456 -0.2262 -0.1383 -0.4709
  723SOL    HW1 3411   4.334   4.602   5.474 -0.9975  0.9893 -1.1248
  723SOL    HW2 3412   4.283   4.507   5.368 -1.4279  1.5783 -1.4457
  724SOL     OW 3413   6.780   3.470   0.131  0.3396  0.1287  0.0443
  724SOL    HW1 3414   6.720   3.397   0.118  1.4980 -0.6439 -1.0151
  724SOL    HW2 3415   6.739   3.544   0.085  0.8255 -0.7213 -1.7756
  725SOL     OW 3416   1.721   7.974   7.070  0.0940 -0.4501  0.1370
  725SOL    HW1 3417   1.739   7.946   6.980 -0.4464 -0.7999  0.1323
  725SOL    HW2 3418   1.797   8.026   7.095  0.1927 -0.2513 -0.5649
  726SOL     OW 3419   4.107   2.210   6.419  0.1560  0.0165  0.5283
  726SOL    HW1 3420   4.091   2.175   6.506 -2.8866 -0.5822 -0.2081
  726SOL    HW2 3421   4.142   2.135   6.370  1.3458  0.2082  1.0677
  727SOL     OW 3422   8.041   7.224   5.834  0.2060 -0.7100  0.0184
  727SOL    HW1 3423   8.087   7.192   5.912  0.7510  0.2081  0.0715
  727SOL    HW2 3424   8.062   7.159   5.767  0.0213 -1.3174  0.5435
  728SOL     OW 3425   3.067   7.346   7.364 -0.0050  0.1003 -0.1055
  728SOL    HW1 3426   3.045   7.434   7.334 -0.9481 -0.2047 -0.3303
  728SOL    HW2 3427   3.029   7.288   7.297  0.9688 -0.4589 -0.1806
  729SOL     OW 3428   1.813   4.488   2.053 -0.0723 -0.0690 -0.3549
  729SOL    HW1 3429   1.842   4.474   2.143  0.6515 -0.6269 -0.6727
  729SOL    HW2 3430   1.722   4.516   2.061 -0.2934 -1.0301  0.4994
  730SOL     OW 3431   4.068   2.384   4.488  0.5528  0.4175 -0.0894
  730SOL    HW1 3432   4.050   2.392   4.394 -2.4002 -0.7035  0.3264
  730SOL    HW2 3433   4.141   2.321   4.493  0.2051 -0.1402 -1.6046
  731SOL     OW 3434   1.291   6.284   0.564  0.0797 -0.4652  0.3245
  731SOL    HW1 3435   1.384   6.280   0.588 -0.0911 -0.2384  1.0447
  731SOL    HW2 3436   1.265   6.374   0.586 -0.2797 -0.4933  0.0104
  732SOL     OW 3437   4.525   5.452   5.033  0.7946 -0.3084 -0.1867
  732SOL    HW1 3438   4.537   5.531   4.981 -1.9549  0.0253 -0.3785
  732SOL    HW2 3439   4.495   5.485   5.118  0.5174 -1.0896  0.0191
  733SOL     OW 3440   3.394   2.236   8.126  0.1769 -0.3720  0.1563
  733SOL    HW1 3441   3.457   2.165   8.141  1.3658  0.9291  1.4709
  733SOL    HW2 3442   3.394   2.286   8.208  0.3107  1.8721 -1.1638
  734SOL     OW 3443   5.372   4.733   4.046 -0.2653 -0.3510  0.6331
  734SOL    HW1 3444   5.438   4.775   4.100  1.2089  0.6541 -1.8441
  734SOL    HW2 3445   5.310   4.804   4.026 -0.7631 -0.6984  0.9312
  735SOL     OW 3446   5.468   7.935   7.094  0.2468 -0.2298  0.8994
  735SOL    HW1 3447   5.451   7.947   7.001  2.4678 -0.8599  0.3805
  735SOL    HW2 3448   5.445   8.019   7.134  0.4875  0.4653 -0.3992
  736SOL     OW 3449   4.408   1.384   6.172  0.0167 -0.0319 -0.3778
  736SOL    HW1 3450   4.373   1.409   6.257 -1.4462 -0.2818 -0.9041
  736SOL    HW2 3451   4.453   1.463   6.141  0.2659  0.1623  0.4731
  737SOL     OW 3452   6.685   3.201   7.170 -0.3342 -0.2749 -0.6454
  737SOL    HW1 3453   6.760   3.144   7.148 -0.2651 -0.0181 -1.0644
  737SOL    HW2 3454   6.689   3.208   7.266 -0.3843 -1.0345 -0.5825
  738SOL     OW 3455   0.102   5.202   0.728 -0.4561  0.4531  0.3542
  738SOL    HW1 3456   0.075   5.192   0.637  1.6860  1.1506 -0.3865
  738SOL    HW2 3457   0.085   5.116   0.767 -0.8158 -0.0395 -0.8539
  739SOL     OW 3458   6.332   7.848   5.421 -0.4614  0.2729  0.0358
  739SOL    HW1 3459   6.318   7.903   5.344 -0.8166 -1.1040 -0.9193
  739SOL    HW2 3460   6.416   7.876   5.457 -0.8179  1.6749 -0.2147
  740SOL     OW 3461   0.281   6.973   6.719  0.0559  0.0837 -0.2542
  740SOL    HW1 3462   0.212   6.999   6.657 -0.0243  0.2458 -0.0954
  740SOL    HW2 3463   0.247   6.998   6.804 -0.4176 -1.3499 -0.0018
  741SOL     OW 3464   0.822   7.668   0.768  0.0739  0.3291  0.0237
  741SOL    HW1 3465   0.834   7.574   0.751 -1.3457  0.0117  0.6010
  741SOL    HW2 3466   0.844   7.711   0.686  1.1514 -0.4733 -0.1208
  742SOL     OW 3467   6.872   4.758   4.565  0.0279  0.2300  0.0567
  742SOL    HW1 3468   6.926   4.809   4.505  0.3466 -1.5728 -1.2433
  742SOL    HW2 3469   6.788   4.748   4.521  0.3099 -1.2302 -0.2002
  743SOL     OW 3470   8.104   4.232   7.419  0.4292  0.1122  0.7094
  743SOL    HW1 3471   8.091   4.144   7.383  1.0216  0.8502 -1.3685
  743SOL    HW2 3472   8.019   4.256   7.455  0.3507 -1.4334  1.6076
  744SOL     OW 3473   8.137   6.536   5.331  0.3531 -0.2093 -0.3543
  744SOL    HW1 3474   8.075   6.482   5.381 -0.0612  0.3496 -0.2569
  744SOL    HW2 3475   8.140   6.494   5.245 -2.2284  1.2784 -1.2379
  745SOL     OW 3476   4.916   7.805   6.629  0.2933  0.2270  0.0182
  745SOL    HW1 3477   4.940   7.822   6.721 -2.3434  1.0213  0.5945
  745SOL    HW2 3478   4.978   7.858   6.579  0.3305  1.5697  1.4251
  746SOL     OW 3479   2.071   5.524   4.920 -0.3371 -0.1521  0.0985
  746SOL    HW1 3480   1.991   5.528   4.867  0.1077  0.7722 -0.5215
  746SOL    HW2 3481   2.083   5.431   4.938 -1.9894 -0.2438  0.8766
  747SOL     OW 3482   6.231   4.927   1.931 -0.2797 -0.0124  0.2440
  747SOL    HW1 3483   6.160   4.863   1.921 -0.9541  0.7079  0.3741
  747SOL    HW2 3484   6.284   4.917   1.851  0.6222 -1.9464  1.0661
  748SOL     OW 3485   4.250   1.994   0.375 -0.1022  0.4019  0.0626
  748SOL    HW1 3486   4.326   2.008   0.318 -0.0962  0.4254  0.0763
  748SOL    HW2 3487   4.175   2.018   0.321  0.0161  2.1017  0.6279
  749SOL     OW 3488   3.961   0.832   1.673  0.2081  0.0749 -0.5034
  749SOL    HW1 3489   3.870   0.851   1.649  0.3022  1.4173  0.1540
  749SOL    HW2 3490   3.957   0.747   1.719 -0.4333 -0.8000 -2.1453
  750SOL     OW 3491   2.236   7.353   5.315 -0.0886  0.0712  0.4418
  750SOL    HW1 3492   2.322   7.393   5.332  0.4409 -0.9512  0.2220
  750SOL    HW2 3493   2.243   7.319   5.226 -1.2237  1.2350 -0.1090
  751SOL     OW 3494   2.033   2.472   7.059  0.4075 -0.0414 -0.1006
  751SOL    HW1 3495   2.115   2.422   7.059  0.1676 -0.4488  0.7692
  751SOL    HW2 3496   2.034   2.520   6.976  1.1304 -0.6892 -0.4743
  752SOL     OW 3497   3.128   4.817   1.102  0.4788 -0.4923 -0.8294
  752SOL    HW1 3498   3.201   4.873   1.128 -1.4508  1.7293  0.0277
  752SOL    HW2 3499   3.150   4.731   1.137  2.7119  0.0958 -0.6702
  753SOL     OW 3500   4.403   5.371   0.317 -0.2140  0.2020 -0.2240
  753SOL    HW1 3501   4.337   5.336   0.257  0.4100 -0.4969 -0.5145
  753SOL    HW2 3502   4.359   5.442   0.364 -2.0270 -1.9460  1.4486
  754SOL     OW 3503   0.223   6.001   6.779 -0.5532  0.0938 -0.0883
  754SOL    HW1 3504   0.193   6.080   6.823 -0.8300 -0.6996  1.1667
  754SOL    HW2 3505   0.241   6.029   6.689  2.4415  2.3225  1.1019
  755SOL     OW 3506   5.077   1.383   4.457 -0.5316  0.0960 -0.1648
  755SOL    HW1 3507   5.132   1.399   4.533  0.1337  0.7417 -0.7735
  755SOL    HW2 3508   5.073   1.467   4.411 -0.9944 -0.2593 -0.7920
  756SOL     OW 3509   5.603   6.128   6.492 -0.2714  0.3730  0.0500
  756SOL    HW1 3510   5.515   6.121   6.528  0.0205 -0.5325  0.6133
  756SOL    HW2 3511   5.603   6.068   6.418 -0.2176  0.6045 -0.1386
  757SOL     OW 3512   4.576   5.054   1.183  0.0433  0.3004 -0.0141
  757SOL    HW1 3513   4.491   5.034   1.223  0.2264  0.5242  0.4862
  757SOL    HW2 3514   4.593   4.980   1.124 -1.5919  1.3633 -1.8826
  758SOL     OW 3515   7.903   7.440   6.904  0.1073 -0.1898 -0.3777
  758SOL    HW1 3516   7.825   7.405   6.861 -1.1155 -0.6585  2.1265
  758SOL    HW2 3517   7.911   7.530   6.871 -3.1015  0.8066  1.3019
  759SOL     OW 3518   8.229   0.830   5.073 -0.2802  0.4070 -0.5150
  759SOL    HW1 3519   8.190   0.745   5.095 -0.2744  0.6507  0.4265
  759SOL    HW2 3520   8.159   0.893   5.090  0.3786  0.8047  0.7674
  760SOL     OW 3521   7.742   3.235   0.608 -0.2594 -1.0002  0.2316
  760SOL    HW1 3522   7.721   3.224   0.701 -0.3322 -1.0214  0.2124
  760SOL    HW2 3523   7.736   3.147   0.571 -0.3771 -0.9687  0.1762
  761SOL     OW 3524   3.079   1.019   0.201  0.0507 -0.0608  0.3042
  761SOL    HW1 3525   3.058   0.944   0.257 -4.7818  1.6655  1.0671
  761SOL    HW2 3526   3.035   0.999   0.118 -2.2994  2.3521  0.8992
  762SOL     OW 3527   1.472   3.932   7.879  0.6866  0.1426  0.5622
  762SOL    HW1 3528   1.509   3.854   7.921  1.2451  0.2548  0.2828
  762SOL    HW2 3529   1.435   3.900   7.796  4.3160  0.7546 -1.4100
  763SOL     OW 3530   4.982   3.106   6.943  0.2593 -0.1811 -0.2848
  763SOL    HW1 3531   5.072   3.109   6.910  0.4182 -1.4433  0.0111
  763SOL    HW2 3532   4.928   3.117   6.865  0.6546  0.7733 -0.4429
  764SOL     OW 3533   2.852   6.704   5.118  0.4446  0.1813 -0.1102
  764SOL    HW1 3534   2.758   6.711   5.102  0.4052 -0.4708 -0.1863
  764SOL    HW2 3535   2.875   6.785   5.165 -0.2698  0.0604  0.4586
  765SOL     OW 3536   2.524   0.700   2.350  0.1571  0.7361 -0.0009
  765SOL    HW1 3537   2.498   0.698   2.442  0.6223 -1.6335  0.1029
  765SOL    HW2 3538   2.489   0.619   2.313  2.8594 -0.0055 -1.0845
  766SOL     OW 3539   1.097   1.047   5.732  0.3944  0.1254 -0.0426
  766SOL    HW1 3540   1.146   1.023   5.654  2.7630 -0.0058  1.4421
  766SOL    HW2 3541   1.008   1.063   5.700  0.8165 -1.9323 -2.4303
  767SOL     OW 3542   6.235   4.487   3.730 -0.7049 -0.0082  0.5628
  767SOL    HW1 3543   6.278   4.504   3.646  0.3312 -0.9427  0.8897
  767SOL    HW2 3544   6.228   4.391   3.733 -2.1244  0.1028  0.8595
  768SOL     OW 3545   6.355   5.344   7.238  0.0114  0.8097  0.3836
  768SOL    HW1 3546   6.330   5.435   7.251 -1.6784  0.3647  0.4707
  768SOL    HW2 3547   6.402   5.320   7.318 -1.6674  0.9250  1.4361
  769SOL     OW 3548   4.388   3.721   2.624 -0.1418 -0.1717  0.4104
  769SOL    HW1 3549   4.356   3.633   2.606 -0.8614  0.0950  0.3992
  769SOL    HW2 3550   4.369   3.735   2.717  0.2198 -0.1300  0.4811
  770SOL     OW 3551   4.572   1.131   1.273 -0.7274 -0.4174 -0.4373
  770SOL    HW1 3552   4.478   1.115   1.259 -0.5654 -0.3386 -1.6790
  770SOL    HW2 3553   4.614   1.049   1.249 -0.5681 -0.8473  1.2921
  771SOL     OW 3554   3.553   3.572   5.620  0.0645  0.0006  0.3246
  771SOL    HW1 3555   3.489   3.637   5.647 -0.1362 -0.3459  0.6890
  771SOL    HW2 3556   3.505   3.513   5.562 -0.1343 -0.6494  1.1276
  772SOL     OW 3557   1.180   1.245   6.972  0.5803  0.1007  0.5830
  772SOL    HW1 3558   1.220   1.194   7.042  0.3613 -1.4162 -0.3589
  772SOL    HW2 3559   1.085   1.236   6.986  0.5258 -0.6910 -0.2198
  773SOL     OW 3560   4.250   8.232   7.069  0.3099 -0.3083  0.4543
  773SOL    HW1 3561   4.265   8.185   7.151 -1.9096  0.7270  1.4955
  773SOL    HW2 3562   4.290   8.177   7.001 -0.5963 -2.7433  1.8619
  774SOL     OW 3563   0.675   1.588   8.072  0.3034 -0.1115 -0.9749
  774SOL    HW1 3564   0.638   1.653   8.133  1.0968  0.3637 -0.9963
  774SOL    HW2 3565   0.664   1.628   7.986  2.1612  0.6921 -0.8745
  775SOL     OW 3566   2.518   4.543   6.588  0.2413  0.3631 -0.1830
  775SOL    HW1 3567   2.541   4.495   6.508 -0.8035 -1.3587  0.5103
  775SOL    HW2 3568   2.600   4.581   6.618  1.1760 -1.2213 -0.6538
  776SOL     OW 3569   1.263   1.463   5.689  0.1329 -0.1094 -0.0939
  776SOL    HW1 3570   1.347   1.441   5.731  0.4468  1.0630 -0.0895
  776SOL    HW2 3571   1.288   1.512   5.610 -0.5640  0.9966  0.3587
  777SOL     OW 3572   6.513   7.858   4.525 -0.0335 -0.5863  0.4010
  777SOL    HW1 3573   6.524   7.879   4.618 -1.0152 -0.0698  0.4131
  777SOL    HW2 3574   6.437   7.911   4.498 -0.1043 -1.1703 -0.5523
  778SOL     OW 3575   2.221   6.277   0.660  0.1022  0.3833 -0.5944
  778SOL    HW1 3576   2.201   6.198   0.610  1.0264 -0.3366  0.1345
  778SOL    HW2 3577   2.145   6.334   0.648 -0.7345 -0.7720 -0.8256
  779SOL     OW 3578   4.882   2.278   5.501 -0.2210 -0.5586 -0.1825
  779SOL    HW1 3579   4.845   2.294   5.588  0.7770 -0.4707  0.2310
  779SOL    HW2 3580   4.869   2.185   5.485 -1.1329 -0.4167 -0.2832
  780SOL     OW 3581   3.078   4.967   6.994  0.2832 -0.1958  0.0137
  780SOL    HW1 3582   3.038   4.898   7.046 -0.3587 -0.0938 -0.3429
  780SOL    HW2 3583   3.016   4.982   6.922  0.5576  0.5520 -0.0679
  781SOL     OW 3584   3.535   0.784   4.557 -0.5210  0.0995  0.0256
  781SOL    HW1 3585   3.582   0.765   4.638 -0.1153  0.6541 -0.0819
  781SOL    HW2 3586   3.580   0.732   4.490 -2.5330 -2.5444  0.6031
  782SOL     OW 3587   0.628   2.416   0.725  0.3339  0.3591  0.2573
  782SOL    HW1 3588   0.643   2.324   0.745  0.1609  0.3800  0.4861
  782SOL    HW2 3589   0.674   2.431   0.643  0.8133  0.2021  0.4942
  783SOL     OW 3590   7.592   2.105   1.716 -0.2179  0.4474 -0.2861
  783SOL    HW1 3591   7.526   2.162   1.676 -2.0031  0.0475  1.9986
  783SOL    HW2 3592   7.553   2.018   1.714  0.4336  0.1271  0.7055
  784SOL     OW 3593   7.788   1.458   1.215  0.4161 -0.1215  0.3613
  784SOL    HW1 3594   7.846   1.400   1.264  0.6261 -1.0950 -1.0061
  784SOL    HW2 3595   7.844   1.531   1.187  1.2344 -1.4731 -1.6776
  785SOL     OW 3596   2.555   6.727   8.173 -0.1359  0.2261 -0.1713
  785SOL    HW1 3597   2.650   6.740   8.182  0.1028 -1.5730  0.1121
  785SOL    HW2 3598   2.547   6.643   8.127 -1.5946 -0.2352  0.8801
  786SOL     OW 3599   4.616   2.011   2.982 -0.0842  0.6164  0.6775
  786SOL    HW1 3600   4.610   1.930   3.033  0.2863 -0.6007 -1.1912
  786SOL    HW2 3601   4.710   2.028   2.976 -0.0976  0.4383 -0.0828
  787SOL     OW 3602   0.490   0.920   7.754  0.3782  0.1086 -0.6328
  787SOL    HW1 3603   0.459   1.010   7.769  1.9263  0.3194  1.3862
  787SOL    HW2 3604   0.583   0.922   7.778  0.3039 -2.1615 -0.0725
  788SOL     OW 3605   7.837   6.464   6.614  0.2156  0.1846  0.1218
  788SOL    HW1 3606   7.919   6.502   6.582 -0.6691  3.2194  1.2444
  788SOL    HW2 3607   7.864   6.407   6.686  1.3661  0.9542  0.3216
  789SOL     OW 3608   4.904   5.805   5.632 -0.3006 -0.0993 -0.1439
  789SOL    HW1 3609   4.996   5.792   5.653 -0.0512  0.4460 -0.8900
  789SOL    HW2 3610   4.903   5.880   5.573 -1.1989 -0.2504 -0.3267
  790SOL     OW 3611   1.580   2.397   2.110 -0.4943 -0.6140  0.0574
  790SOL    HW1 3612   1.522   2.472   2.124  2.1461  1.6076 -0.3348
  790SOL    HW2 3613   1.580   2.383   2.015 -2.0497 -2.0220  0.2534
  791SOL     OW 3614   1.656   0.706   4.658 -0.0276 -0.1318  0.0387
  791SOL    HW1 3615   1.668   0.667   4.744 -0.4737 -0.7093 -0.1596
  791SOL    HW2 3616   1.606   0.787   4.675 -0.6472 -0.5560  0.2593
  792SOL     OW 3617   2.427   4.384   0.551 -0.2307 -0.0545 -0.3120
  792SOL    HW1 3618   2.363   4.316   0.530  0.6792 -1.2326  0.6091
  792SOL    HW2 3619   2.462   4.411   0.466 -1.0693 -0.2896 -0.7329
  793SOL     OW 3620   2.425   1.493   2.601 -0.0409 -0.3399 -0.1113
  793SOL    HW1 3621   2.492   1.554   2.571  0.1243 -0.2842  0.3619
  793SOL    HW2 3622   2.408   1.437   2.526 -1.0105  1.0106 -0.9380
  794SOL     OW 3623   1.792   1.815   6.031  0.2288 -0.4535 -0.0013
  794SOL    HW1 3624   1.840   1.803   5.949 -0.8621  0.0245 -0.7200
  794SOL    HW2 3625   1.846   1.876   6.081 -0.4876  1.5409 -1.5590
  795SOL     OW 3626   6.145   0.451   6.471  0.1270  0.5430 -0.0700
  795SOL    HW1 3627   6.219   0.509   6.488  2.1963 -2.0867  0.1385
  795SOL    HW2 3628   6.113   0.478   6.384  2.3937  0.6365 -0.9149
  796SOL     OW 3629   2.135   5.215   7.551 -0.2055 -0.0336 -0.3957
  796SOL    HW1 3630   2.161   5.254   7.468  1.9468 -0.7431 -0.0959
  796SOL    HW2 3631   2.059   5.266   7.579  0.7290  1.9957 -1.4576
  797SOL     OW 3632   3.858   1.688   4.866  0.6132  0.4696 -0.3870
  797SOL    HW1 3633   3.818   1.602   4.852  1.5900  0.3642 -2.9999
  797SOL    HW2 3634   3.785   1.746   4.889 -0.2608 -0.7591 -0.0317
  798SOL     OW 3635   3.689   5.653   6.685 -0.0960 -0.2224  0.2861
  798SOL    HW1 3636   3.698   5.674   6.778 -3.0977 -2.0152  1.0596
  798SOL    HW2 3637   3.739   5.573   6.672 -0.2184 -0.3350  0.5138
  799SOL     OW 3638   8.134   5.803   0.974 -0.1224  0.4669 -0.4369
  799SOL    HW1 3639   8.171   5.753   1.047 -0.6270  0.3392 -0.2636
  799SOL    HW2 3640   8.072   5.863   1.015 -1.3143 -0.4329 -0.8473
  800SOL     OW 3641   0.581   3.771   4.103  0.2193  0.0689  0.3585
  800SOL    HW1 3642   0.569   3.741   4.193 -2.1978 -1.3879 -0.4093
  800SOL    HW2 3643   0.669   3.740   4.079  1.0333  0.8031  2.3079
  801SOL     OW 3644   6.791   6.304   1.479 -0.0477 -0.3809 -0.1779
  801SOL    HW1 3645   6.792   6.221   1.432 -0.1128  0.4031 -1.6144
  801SOL    HW2 3646   6.738   6.362   1.424 -1.9426 -0.0329  1.9416
  802SOL     OW 3647   3.138   2.234   7.339  0.0249  0.1856  0.6324
  802SOL    HW1 3648   3.062   2.176   7.333 -0.7381  1.0452  1.7405
  802SOL    HW2 3649   3.108   2.317   7.302  1.2081 -0.2106 -1.2310
  803SOL     OW 3650   4.617   3.839   5.299 -0.4717  0.2864 -0.4330
  803SOL    HW1 3651   4.648   3.929   5.310 -0.1322  0.1963 -0.6724
  803SOL    HW2 3652   4.688   3.794   5.254 -1.1861  0.2351 -1.5435
  804SOL     OW 3653   1.930   4.376   0.724 -0.3051  0.3898 -1.0074
  804SOL    HW1 3654   1.977   4.296   0.748  0.5354  1.1166 -0.2031
  804SOL    HW2 3655   1.999   4.441   0.710 -1.0519  1.3255 -0.3627
  805SOL     OW 3656   4.233   4.738   5.968 -0.1842 -0.2154 -0.1013
  805SOL    HW1 3657   4.289   4.693   6.031  0.2270  0.3950 -0.0309
  805SOL    HW2 3658   4.171   4.671   5.940  1.0764 -1.1069 -0.7906
  806SOL     OW 3659   3.825   3.149   7.773  0.4566  0.4324  0.2700
  806SOL    HW1 3660   3.839   3.231   7.820 -1.4901 -0.3024  2.2431
  806SOL    HW2 3661   3.905   3.098   7.790 -0.2522  0.1218  3.0413
  807SOL     OW 3662   4.026   6.232   5.072  0.1817 -0.4719  0.2666
  807SOL    HW1 3663   4.051   6.323   5.056  1.3696 -0.7487  0.4768
  807SOL    HW2 3664   4.010   6.227   5.166  0.1729 -0.4792  0.2648
  808SOL     OW 3665   6.716   3.891   1.945  0.3382  0.2281 -0.6019
  808SOL    HW1 3666   6.747   3.807   1.980 -0.9094  0.7708  1.8933
  808SOL    HW2 3667   6.736   3.955   2.014 -2.9360  1.1763 -0.4614
  809SOL     OW 3668   6.424   2.146   1.175 -0.7858  0.5112 -0.2586
  809SOL    HW1 3669   6.463   2.150   1.262 -1.5744 -0.4126  0.1401
  809SOL    HW2 3670   6.478   2.206   1.122  2.2910 -2.0855 -0.1923
  810SOL     OW 3671   3.290   6.030   0.573 -0.2673  0.1505 -0.7624
  810SOL    HW1 3672   3.215   6.065   0.621  0.3856  0.5565 -0.0289
  810SOL    HW2 3673   3.300   5.941   0.604 -1.1753 -0.3119 -1.7395
  811SOL     OW 3674   3.530   5.445   7.978  0.6335 -0.3649  0.4539
  811SOL    HW1 3675   3.486   5.378   7.926  2.7818 -0.3847 -1.4348
  811SOL    HW2 3676   3.477   5.524   7.967  0.2776 -0.7442 -0.6229
  812SOL     OW 3677   5.132   3.932   3.597 -0.0025 -0.1724 -0.1860
  812SOL    HW1 3678   5.168   4.013   3.633  1.4151 -0.8035 -0.1778
  812SOL    HW2 3679   5.200   3.899   3.539 -0.4739 -1.4885 -0.0062
  813SOL     OW 3680   3.658   2.124   5.258 -0.8493  1.0341 -0.1245
  813SOL    HW1 3681   3.606   2.203   5.245 -1.8276  0.3969 -0.0487
  813SOL    HW2 3682   3.599   2.052   5.237  0.2766  0.3435 -0.9664
  814SOL     OW 3683   0.304   0.870   3.405 -0.2155 -0.1027  0.0143
  814SOL    HW1 3684   0.339   0.789   3.443  1.2799  1.7494  2.8285
  814SOL    HW2 3685   0.370   0.897   3.342  1.5622  1.2725  2.3992
  815SOL     OW 3686   5.921   4.645   7.541 -0.7338 -0.5070 -0.4620
  815SOL    HW1 3687   5.908   4.649   7.636 -0.9064 -2.5236 -0.3872
  815SOL    HW2 3688   6.006   4.686   7.527 -1.1507  0.7101  0.4529
  816SOL     OW 3689   1.548   2.205   0.274  0.1720 -0.7563  0.1830
  816SOL    HW1 3690   1.534   2.185   0.367 -1.1356  0.8795  0.3441
  816SOL    HW2 3691   1.620   2.268   0.274  0.7427 -1.3918  0.0043
  817SOL     OW 3692   6.520   3.776   0.593 -0.0148 -0.9512  0.1612
  817SOL    HW1 3693   6.577   3.742   0.525 -0.2424 -0.6328 -0.1965
  817SOL    HW2 3694   6.507   3.868   0.570  0.3723 -0.6955  0.9598
  818SOL     OW 3695   5.616   0.871   0.333  0.0827  0.3349 -0.1030
  818SOL    HW1 3696   5.688   0.933   0.323  1.0556 -0.9594 -1.2908
  818SOL    HW2 3697   5.619   0.845   0.426  1.7731 -0.4481 -0.3560
  819SOL     OW 3698   1.494   5.372   1.364 -0.4486 -0.1922  0.4217
  819SOL    HW1 3699   1.532   5.364   1.277 -0.8719  0.2581  0.1958
  819SOL    HW2 3700   1.400   5.355   1.352 -0.2157 -2.1561  1.1108
  820SOL     OW 3701   3.467   2.736   5.665 -0.0105 -0.5865  0.3631
  820SOL    HW1 3702   3.451   2.830   5.667  1.1167 -0.3711 -0.0276
  820SOL    HW2 3703   3.455   2.707   5.755  1.3544  0.2354  0.8170
  821SOL     OW 3704   5.319   3.382   1.625 -0.2182 -0.4806  0.6528
  821SOL    HW1 3705   5.286   3.378   1.715 -0.2235 -0.4416  0.6527
  821SOL    HW2 3706   5.395   3.325   1.625  0.1820  0.0448  0.8516
  822SOL     OW 3707   5.237   1.386   5.460 -0.3040  0.1332 -0.7600
  822SOL    HW1 3708   5.192   1.438   5.392 -1.0605  0.6841  0.1545
  822SOL    HW2 3709   5.237   1.297   5.425  0.4375  0.6230 -2.0532
  823SOL     OW 3710   6.136   2.753   4.772 -0.3904  0.4257  0.4207
  823SOL    HW1 3711   6.106   2.683   4.714 -2.1411  2.6238 -1.3781
  823SOL    HW2 3712   6.226   2.769   4.745 -1.1627  1.3746 -1.6547
  824SOL     OW 3713   0.640   2.873   3.434 -0.6648 -0.5570  0.1845
  824SOL    HW1 3714   0.572   2.871   3.366  0.3469  0.1816 -0.8642
  824SOL    HW2 3715   0.637   2.785   3.472 -3.4368 -0.0023  1.4007
  825SOL     OW 3716   5.954   4.108   7.192 -0.2878 -0.4750  1.0100
  825SOL    HW1 3717   5.869   4.142   7.166 -0.0497  0.0770  0.9466
  825SOL    HW2 3718   5.955   4.115   7.288 -0.6825 -1.3661  1.0842
  826SOL     OW 3719   6.035   5.062   2.222  0.0894  0.9154 -0.6859
  826SOL    HW1 3720   6.018   5.130   2.157  1.7919 -0.0822 -2.2196
  826SOL    HW2 3721   5.988   4.985   2.189 -1.5813  1.2205  0.8870
  827SOL     OW 3722   3.544   6.147   3.128 -0.7886  0.2398  0.2754
  827SOL    HW1 3723   3.475   6.203   3.166  0.9664  2.8710 -0.2595
  827SOL    HW2 3724   3.542   6.168   3.035 -0.9827 -1.6175 -0.1424
  828SOL     OW 3725   4.379   4.326   2.324 -0.2502 -0.8416 -0.0527
  828SOL    HW1 3726   4.439   4.251   2.326  0.5611 -0.2060  0.0479
  828SOL    HW2 3727   4.313   4.306   2.389  0.0664 -1.3868  0.1040
  829SOL     OW 3728   5.899   5.107   3.859 -0.1811  0.1730  0.1556
  829SOL    HW1 3729   5.810   5.091   3.891 -0.6575 -2.0142 -2.1443
  829SOL    HW2 3730   5.952   5.042   3.905 -0.1741 -0.1409 -0.2953
  830SOL     OW 3731   4.034   3.429   0.968 -0.0351  0.2237  0.5398
  830SOL    HW1 3732   4.054   3.349   0.918 -1.2414  0.2036  0.0899
  830SOL    HW2 3733   3.951   3.410   1.011  0.1786  0.8684  1.2323
  831SOL     OW 3734   6.703   1.055   1.290  0.4730 -0.3238  0.2237
  831SOL    HW1 3735   6.679   1.122   1.227 -0.6954  1.0548  2.1040
  831SOL    HW2 3736   6.706   1.100   1.374  0.1869 -2.5061  1.4525
  832SOL     OW 3737   0.333   3.929   3.024  0.0761  0.3610 -0.2868
  832SOL    HW1 3738   0.348   4.017   2.989 -0.8190  0.2763 -0.8960
  832SOL    HW2 3739   0.410   3.880   2.997 -0.6498  0.2556 -2.3228
  833SOL     OW 3740   3.454   6.349   5.206 -0.2419 -0.2443 -0.6270
  833SOL    HW1 3741   3.442   6.254   5.214 -0.1525 -0.1419  0.9002
  833SOL    HW2 3742   3.368   6.386   5.223  0.2817  0.0621  1.4755
  834SOL     OW 3743   5.987   6.519   5.658  0.5860  0.0789  0.8582
  834SOL    HW1 3744   5.932   6.582   5.703  1.5257  1.0869  0.5976
  834SOL    HW2 3745   6.033   6.570   5.591  1.2850 -0.8907  0.5874
  835SOL     OW 3746   7.992   4.365   2.054  0.3971  0.0327 -1.0944
  835SOL    HW1 3747   8.005   4.271   2.067 -0.8619  0.2493  2.2724
  835SOL    HW2 3748   7.909   4.371   2.007 -0.3694 -0.5145  0.1615
  836SOL     OW 3749   3.109   0.434   1.535  0.0830  0.1775  0.7977
  836SOL    HW1 3750   3.071   0.375   1.469  0.9550 -0.0533  0.4887
  836SOL    HW2 3751   3.047   0.432   1.607  0.7102 -2.1409  1.3313
  837SOL     OW 3752   4.255   7.424   7.029  0.1269 -0.0475 -0.2702
  837SOL    HW1 3753   4.166   7.406   6.999  0.0980  0.3754 -0.4347
  837SOL    HW2 3754   4.280   7.346   7.079 -1.4762  1.0397  2.3731
  838SOL     OW 3755   3.763   3.006   1.257 -0.1543 -0.1650 -0.0349
  838SOL    HW1 3756   3.796   3.088   1.294  2.1003 -1.4444  0.9052
  838SOL    HW2 3757   3.668   3.015   1.260  0.0456  2.1713  0.5773
  839SOL     OW 3758   1.116   6.721   2.268 -0.3448  0.4746 -0.0927
  839SOL    HW1 3759   1.125   6.663   2.192  0.0342  1.4002 -0.7593
  839SOL    HW2 3760   1.088   6.805   2.231 -0.6775  0.7789  0.8446
  840SOL     OW 3761   5.202   3.817   0.982 -0.2653  0.2044  0.0182
  840SOL    HW1 3762   5.137   3.747   0.973 -1.8650  1.5974  0.4186
  840SOL    HW2 3763   5.159   3.882   1.037  0.4604  2.3616 -1.8926
  841SOL     OW 3764   6.158   5.546   6.524  0.4559 -0.5502  0.4458
  841SOL    HW1 3765   6.247   5.563   6.554  0.4245  0.6371 -0.1242
  841SOL    HW2 3766   6.111   5.518   6.603  1.1060 -0.3055  0.9204
  842SOL     OW 3767   2.991   6.932   2.317  0.2213  0.1334  0.2058
  842SOL    HW1 3768   3.080   6.954   2.346 -0.1806  0.4988  1.1765
  842SOL    HW2 3769   2.977   6.843   2.347  0.3795 -0.0370 -0.2298
  843SOL     OW 3770   5.029   4.443   4.927  0.0354 -0.1258  0.1420
  843SOL    HW1 3771   5.029   4.465   4.834  0.0730 -2.2557 -0.3725
  843SOL    HW2 3772   5.029   4.348   4.930  2.0539 -0.1174  2.3159
  844SOL     OW 3773   1.001   2.838   5.710  0.0279 -0.4672 -0.0146
  844SOL    HW1 3774   0.944   2.769   5.744 -0.6258  0.3013  0.4775
  844SOL    HW2 3775   0.988   2.911   5.770  1.4937 -0.2550  0.0646
  845SOL     OW 3776   2.593   6.646   4.624 -0.1972 -0.4546 -0.1163
  845SOL    HW1 3777   2.680   6.657   4.662 -0.2949 -2.0750  0.6105
  845SOL    HW2 3778   2.608   6.649   4.529  0.8658 -2.1083 -0.0300
  846SOL     OW 3779   1.029   0.952   6.416 -0.1778  0.2827  0.4754
  846SOL    HW1 3780   0.979   1.032   6.404 -1.2682 -0.3840  0.5210
  846SOL    HW2 3781   1.003   0.896   6.343 -0.4077 -0.5191  1.1634
  847SOL     OW 3782   7.620   7.894   0.720  0.9116  0.1084  0.4521
  847SOL    HW1 3783   7.568   7.924   0.645 -0.2526 -1.4533  0.6187
  847SOL    HW2 3784   7.693   7.846   0.681  0.2618 -0.7748  0.3029
  848SOL     OW 3785   6.690   6.718   2.148 -0.4944  0.3236  0.4399
  848SOL    HW1 3786   6.766   6.678   2.191 -1.5628 -2.2283  0.0723
  848SOL    HW2 3787   6.691   6.680   2.060 -2.6718 -0.4082  0.7041
  849SOL     OW 3788   2.686   3.763   5.525 -0.1903  0.3884 -0.1398
  849SOL    HW1 3789   2.732   3.763   5.441 -2.3093 -2.7543 -1.3817
  849SOL    HW2 3790   2.617   3.829   5.514 -0.2243  0.2548 -0.7289
  850SOL     OW 3791   0.711   3.202   7.567  0.4658  0.6426 -0.5975
  850SOL    HW1 3792   0.641   3.194   7.502 -0.4186  1.8690  0.1855
  850SOL    HW2 3793   0.704   3.292   7.598  1.5303  0.3571  0.4752
  851SOL     OW 3794   6.707   5.815   2.124  1.0117 -0.7225  0.2870
  851SOL    HW1 3795   6.700   5.887   2.062 -0.3790 -1.6155 -0.6078
  851SOL    HW2 3796   6.793   5.828   2.165  1.7783  0.1065 -1.5022
  852SOL     OW 3797   3.051   3.164   6.438  0.2150  0.4082 -0.9119
  852SOL    HW1 3798   3.124   3.162   6.376  1.1655  0.7757  0.1996
  852SOL    HW2 3799   3.009   3.079   6.427  0.5283  0.3631 -1.8718
  853SOL     OW 3800   1.930   3.373   7.147 -0.3659  0.0254 -0.1179
  853SOL    HW1 3801   1.847   3.325   7.156 -0.7412  0.2843 -1.8981
  853SOL    HW2 3802   1.995   3.305   7.132 -0.1384 -0.2215  1.8342
  854SOL     OW 3803   8.181   3.298   3.696 -0.1826 -0.3961  0.3421
  854SOL    HW1 3804   8.179   3.297   3.601 -0.2782  0.5488  0.3241
  854SOL    HW2 3805   8.210   3.386   3.718  2.4178 -1.4275  1.1705
  855SOL     OW 3806   7.035   6.833   1.149 -0.0804  0.2228  0.1265
  855SOL    HW1 3807   7.106   6.851   1.211 -0.6487 -0.9803  1.1454
  855SOL    HW2 3808   7.069   6.764   1.093 -0.6822 -0.8795  1.0818
  856SOL     OW 3809   8.028   4.158   3.238 -0.1857 -0.6523 -0.4256
  856SOL    HW1 3810   8.009   4.082   3.183 -1.1780 -0.1967 -0.7379
  856SOL    HW2 3811   8.022   4.233   3.178  2.1315 -0.4365 -0.4094
  857SOL     OW 3812   4.328   2.887   5.927 -0.4134  0.6343 -0.0402
  857SOL    HW1 3813   4.293   2.926   6.007  0.8218  1.8731 -0.0860
  857SOL    HW2 3814   4.394   2.825   5.957 -0.9830  0.0168 -0.0503
  858SOL     OW 3815   5.066   0.064   4.143  0.2097 -0.6110  0.3217
  858SOL    HW1 3816   4.982   0.055   4.187  0.0952 -2.3147 -0.1952
  858SOL    HW2 3817   5.129   0.080   4.214 -0.6540  1.5246  0.6257
  859SOL     OW 3818   5.605   2.228   4.385 -0.6893  0.9707 -0.1442
  859SOL    HW1 3819   5.511   2.213   4.375 -0.6978  2.0757 -1.8723
  859SOL    HW2 3820   5.613   2.318   4.414 -0.2215  0.4129  1.5112
  860SOL     OW 3821   0.133   1.536   3.606 -0.1871  0.0263 -0.0541
  860SOL    HW1 3822   0.081   1.473   3.657  0.1242 -0.0311  0.1901
  860SOL    HW2 3823   0.073   1.609   3.591 -0.3031  0.0109  0.3281
  861SOL     OW 3824   7.163   5.770   4.650  0.8804 -0.2678  0.1777
  861SOL    HW1 3825   7.221   5.725   4.711  2.8711  1.7293 -0.2076
  861SOL    HW2 3826   7.221   5.810   4.585 -0.9854  0.6679 -0.9789
  862SOL     OW 3827   2.804   5.359   0.783  0.1510  0.3305  0.1968
  862SOL    HW1 3828   2.767   5.319   0.861 -0.7247  1.1648  0.2215
  862SOL    HW2 3829   2.738   5.345   0.715 -0.3127  1.9739  0.2750
  863SOL     OW 3830   7.185   4.437   5.247 -0.1921 -0.0035  0.3557
  863SOL    HW1 3831   7.208   4.397   5.331  1.0911 -1.5388 -0.7123
  863SOL    HW2 3832   7.222   4.525   5.251  0.8139 -0.4490  0.9719
  864SOL     OW 3833   6.067   0.907   6.373  0.4134  0.1689 -0.3991
  864SOL    HW1 3834   6.023   0.848   6.312 -1.3627  2.0977 -1.0423
  864SOL    HW2 3835   6.024   0.992   6.360  2.4885  1.4799  0.9302
  865SOL     OW 3836   0.720   2.731   1.673  0.7347  0.3041  0.1478
  865SOL    HW1 3837   0.751   2.664   1.734  0.3840 -0.4506 -0.4976
  865SOL    HW2 3838   0.669   2.683   1.608  1.9905  0.9518 -1.3598
  866SOL     OW 3839   2.677   5.825   3.017  1.0357  0.9061  0.6810
  866SOL    HW1 3840   2.595   5.874   3.008  1.3210  0.9866 -2.1400
  866SOL    HW2 3841   2.740   5.873   2.962  1.4385 -2.2803 -1.7672
  867SOL     OW 3842   5.883   0.237   0.430  0.6018  0.3423  0.1123
  867SOL    HW1 3843   5.880   0.201   0.518  0.7463 -3.0101 -1.2020
  867SOL    HW2 3844   5.961   0.293   0.430  1.0872 -0.3070  1.8649
  868SOL     OW 3845   1.410   3.554   2.054 -0.1159 -0.3438 -0.5441
  868SOL    HW1 3846   1.399   3.482   1.993 -0.4636 -0.3664 -0.4602
  868SOL    HW2 3847   1.501   3.581   2.045  0.6982 -2.3985  1.1922
  869SOL     OW 3848   8.101   6.393   2.933  0.2807  0.0512 -0.1319
  869SOL    HW1 3849   8.161   6.465   2.915 -1.4561  2.2931  2.5891
  869SOL    HW2 3850   8.110   6.334   2.858  3.0734  2.1908 -1.5439
  870SOL     OW 3851   2.904   2.964   1.113  0.2790  0.9837  0.7106
  870SOL    HW1 3852   2.950   2.986   1.032 -0.0493 -1.2035 -0.1089
  870SOL    HW2 3853   2.819   3.007   1.106  0.1918  0.6679 -0.1874
  871SOL     OW 3854   1.395   7.715   1.524  0.0821 -0.6684  0.2109
  871SOL    HW1 3855   1.447   7.667   1.589 -0.5916 -0.9278  0.5633
  871SOL    HW2 3856   1.310   7.671   1.525 -0.0929 -0.3412 -0.4730
  872SOL     OW 3857   2.348   8.225   7.740  0.0801 -0.1380  0.0861
  872SOL    HW1 3858   2.405   8.291   7.777  1.0218  0.8785 -3.0744
  872SOL    HW2 3859   2.272   8.273   7.708 -0.6225 -0.9751  0.4505
  873SOL     OW 3860   1.980   1.711   1.677 -0.6740 -0.0691 -0.0536
  873SOL    HW1 3861   2.055   1.706   1.736 -0.2582 -2.6443 -0.7305
  873SOL    HW2 3862   2.017   1.699   1.590 -1.8649 -1.6080 -0.3764
  874SOL     OW 3863   1.724   5.734   1.376 -0.0682  0.3920 -0.3392
  874SOL    HW1 3864   1.712   5.643   1.403 -0.0931  0.3225 -0.5813
  874SOL    HW2 3865   1.785   5.770   1.439  0.8357 -0.1138 -0.9183
  875SOL     OW 3866   5.882   6.541   3.267  0.1306 -0.1436 -0.4242
  875SOL    HW1 3867   5.966   6.533   3.223  0.4170  0.4826  0.0098
  875SOL    HW2 3868   5.903   6.568   3.356 -0.6448  2.5051 -0.9913
  876SOL     OW 3869   2.184   1.685   5.828 -0.6563 -0.8280  0.3935
  876SOL    HW1 3870   2.163   1.598   5.859  1.7344 -1.5003  0.2335
  876SOL    HW2 3871   2.252   1.717   5.887 -1.5443  0.9658  0.4974
  877SOL     OW 3872   2.956   0.450   4.896 -0.1954 -0.0860  0.5358
  877SOL    HW1 3873   2.884   0.467   4.956 -1.0104  0.3300 -0.5455
  877SOL    HW2 3874   3.002   0.534   4.890 -1.4457  0.5109 -1.1471
  878SOL     OW 3875   1.249   4.379   3.138 -0.1307  0.0392 -0.0034
  878SOL    HW1 3876   1.274   4.357   3.227 -0.9645 -0.5064  0.1117
  878SOL    HW2 3877   1.160   4.343   3.129 -0.6305  1.3839 -0.5740
  879SOL     OW 3878   5.452   7.633   6.578 -0.3390 -0.8538 -0.7848
  879SOL    HW1 3879   5.368   7.655   6.619 -0.6444 -2.7857 -0.3516
  879SOL    HW2 3880   5.441   7.658   6.486 -0.9478  0.0427 -0.4812
  880SOL     OW 3881   5.679   6.737   7.481  0.1001  0.2450  0.0562
  880SOL    HW1 3882   5.651   6.699   7.564 -0.9935  0.0872 -0.3778
  880SOL    HW2 3883   5.723   6.818   7.506  1.3904 -0.6948  0.9018
  881SOL     OW 3884   3.583   7.876   3.813  0.0028  0.0372  0.3079
  881SOL    HW1 3885   3.558   7.840   3.898  2.4037 -1.5104  0.4304
  881SOL    HW2 3886   3.516   7.843   3.752 -0.9378 -0.0226  1.3656
  882SOL     OW 3887   7.739   0.005   7.890 -0.1958  0.5621 -0.1454
  882SOL    HW1 3888   7.764   0.029   7.801 -0.0648  0.1781 -0.2146
  882SOL    HW2 3889   7.777   0.074   7.945  1.0148 -0.0016 -0.2523
  883SOL     OW 3890   6.528   3.953   7.430  0.5671 -0.3630  0.0665
  883SOL    HW1 3891   6.477   3.884   7.472 -1.9689  1.1436 -0.4621
  883SOL    HW2 3892   6.469   3.992   7.366  0.5693  4.8437  2.9111
  884SOL     OW 3893   5.520   3.088   0.344  0.7418  0.3228 -0.0160
  884SOL    HW1 3894   5.535   3.024   0.413  0.3036  0.2878  0.0485
  884SOL    HW2 3895   5.532   3.039   0.262 -0.2996 -0.0149  0.0308
  885SOL     OW 3896   7.641   0.971   7.311  0.3242 -0.2271  0.0721
  885SOL    HW1 3897   7.618   0.996   7.401  0.9237 -1.3149  0.5469
  885SOL    HW2 3898   7.736   0.959   7.314  0.1931 -1.4676 -0.3902
  886SOL     OW 3899   4.801   6.153   4.052 -0.3965 -0.4545 -0.3041
  886SOL    HW1 3900   4.859   6.080   4.030  0.2616 -0.1888  0.5044
  886SOL    HW2 3901   4.843   6.195   4.127  0.6762  2.4637 -2.5054
  887SOL     OW 3902   3.529   2.463   4.621  0.3660  0.2405  0.8289
  887SOL    HW1 3903   3.624   2.472   4.622  0.3259  0.6941  1.1288
  887SOL    HW2 3904   3.512   2.378   4.662  0.7227 -0.7446 -1.0223
  888SOL     OW 3905   4.346   0.647   0.666 -0.0424  0.0687  0.5668
  888SOL    HW1 3906   4.437   0.662   0.639  0.2738 -1.7999  0.5700
  888SOL    HW2 3907   4.352   0.626   0.759 -0.6722  1.6700  0.9967
  889SOL     OW 3908   1.193   2.952   5.048  0.0828 -0.1077  0.0373
  889SOL    HW1 3909   1.200   3.021   5.114  0.2238  0.5329 -0.6372
  889SOL    HW2 3910   1.283   2.928   5.028  0.0631  0.1215 -0.3480
  890SOL     OW 3911   1.685   2.320   0.980 -0.3859  0.1382 -0.1697
  890SOL    HW1 3912   1.696   2.227   0.961 -2.5983 -0.0480 -0.6492
  890SOL    HW2 3913   1.764   2.361   0.946 -0.0480 -1.3803 -1.2677
  891SOL     OW 3914   6.015   5.078   0.105  0.1442  0.1605  0.3144
  891SOL    HW1 3915   5.968   5.007   0.062  1.0103 -0.2146 -0.0266
  891SOL    HW2 3916   6.011   5.150   0.042  0.3083  0.0245  0.1480
  892SOL     OW 3917   4.581   3.895   2.303  0.7563  0.2170  0.0409
  892SOL    HW1 3918   4.568   3.833   2.375  0.4560 -2.3629 -2.1442
  892SOL    HW2 3919   4.502   3.887   2.250  1.7730  0.6575 -1.5853
  893SOL     OW 3920   6.955   3.987   7.287 -0.2340  0.5694 -0.0622
  893SOL    HW1 3921   7.022   4.026   7.230 -0.2108 -1.8193 -1.7272
  893SOL    HW2 3922   6.942   3.899   7.252 -2.8401  0.3092  1.4581
  894SOL     OW 3923   2.124   6.956   3.886 -0.1016 -0.0774  0.6264
  894SOL    HW1 3924   2.092   7.010   3.958 -1.5079 -0.7918  0.5479
  894SOL    HW2 3925   2.155   6.875   3.928 -0.8403 -0.4586  0.4480
  895SOL     OW 3926   4.273   7.131   4.188  0.0933  0.2449 -0.3533
  895SOL    HW1 3927   4.324   7.056   4.158  0.7751 -0.0889  1.5500
  895SOL    HW2 3928   4.316   7.158   4.269 -4.2915 -1.7386  2.8356
  896SOL     OW 3929   6.997   1.855   2.311  0.0411 -0.1283  0.3976
  896SOL    HW1 3930   6.936   1.917   2.353 -0.3378  0.0686 -0.4249
  896SOL    HW2 3931   7.074   1.856   2.367 -0.2607  0.5212  0.8143
  897SOL     OW 3932   6.991   6.977   7.258 -0.3518  0.1782  0.0087
  897SOL    HW1 3933   7.058   6.989   7.190 -1.0550  0.6716 -0.5965
  897SOL    HW2 3934   6.912   7.015   7.221 -0.8270  0.1362  0.9747
  898SOL     OW 3935   2.657   6.664   3.987 -0.4785  0.2257 -0.2323
  898SOL    HW1 3936   2.600   6.737   4.013  0.4030  0.7222  0.3607
  898SOL    HW2 3937   2.735   6.676   4.041 -1.0073 -2.1463  1.1103
  899SOL     OW 3938   7.994   5.708   3.403  0.4417  0.1479  0.2362
  899SOL    HW1 3939   7.993   5.695   3.498 -0.1202  2.9840  0.6574
  899SOL    HW2 3940   8.085   5.730   3.382  0.4375  0.1326  0.2018
  900SOL     OW 3941   6.258   2.060   3.831  0.1798  0.0989  0.2475
  900SOL    HW1 3942   6.184   2.114   3.858 -0.7691 -1.0110 -0.0750
  900SOL    HW2 3943   6.245   2.046   3.737  0.8472 -0.0242  0.1683
  901SOL     OW 3944   6.334   1.104   4.485 -0.5877 -0.2580  0.2696
  901SOL    HW1 3945   6.395   1.146   4.425  0.3326 -0.7425  0.8647
  901SOL    HW2 3946   6.250   1.145   4.466 -0.2057 -0.0666 -1.0095
  902SOL     OW 3947   6.712   3.334   3.049 -0.4178  0.5181  0.4710
  902SOL    HW1 3948   6.717   3.424   3.015 -2.2441  0.9183  1.1860
  902SOL    HW2 3949   6.698   3.280   2.971  0.6395  0.8477  0.0416
  903SOL     OW 3950   7.097   2.551   2.290 -0.1674 -0.3960  0.2074
  903SOL    HW1 3951   7.118   2.479   2.230  2.2176  0.0455  0.4422
  903SOL    HW2 3952   7.051   2.615   2.235  0.3128 -0.8307 -0.7223
  904SOL     OW 3953   5.633   6.573   6.160  0.2882 -0.0083 -0.4592
  904SOL    HW1 3954   5.662   6.498   6.211 -1.3217  0.3857  1.1003
  904SOL    HW2 3955   5.577   6.536   6.092  0.2719 -0.3066 -0.2823
  905SOL     OW 3956   0.988   3.445   7.386 -0.5768 -0.1405 -0.1768
  905SOL    HW1 3957   1.033   3.530   7.380  0.6810 -0.9169 -2.4076
  905SOL    HW2 3958   1.055   3.385   7.418 -0.9732 -0.6597 -0.3246
  906SOL     OW 3959   6.888   5.920   4.005 -0.3849  0.3403  0.3420
  906SOL    HW1 3960   6.868   5.884   4.091 -3.5989 -0.6114 -0.7210
  906SOL    HW2 3961   6.826   5.993   3.994  0.8084  1.2318 -0.6856
  907SOL     OW 3962   1.312   6.305   6.544 -0.4444 -0.4935 -0.1120
  907SOL    HW1 3963   1.339   6.219   6.511 -1.3932 -0.6727 -0.4520
  907SOL    HW2 3964   1.298   6.358   6.465 -0.0133 -0.0757  0.0918
  908SOL     OW 3965   7.977   5.478   1.821 -0.1570  0.3912  0.2952
  908SOL    HW1 3966   8.062   5.435   1.808 -1.3942 -1.5736 -1.7540
  908SOL    HW2 3967   7.995   5.571   1.809  1.7267  0.0249  0.0472
  909SOL     OW 3968   3.518   3.662   0.207 -0.4703  0.1128 -0.4077
  909SOL    HW1 3969   3.486   3.733   0.151 -0.5842  0.1797 -0.2585
  909SOL    HW2 3970   3.592   3.624   0.159  0.5115  1.2634  0.1538
  910SOL     OW 3971   2.742   1.190   1.614 -0.4280  0.2662 -0.0728
  910SOL    HW1 3972   2.729   1.112   1.560 -0.3715  0.2411 -0.0504
  910SOL    HW2 3973   2.683   1.256   1.576  1.7575  1.1766 -2.0489
  911SOL     OW 3974   0.089   0.168   7.918 -0.2291  0.0426  0.0835
  911SOL    HW1 3975   0.007   0.149   7.964 -0.5324 -1.4292 -1.0306
  911SOL    HW2 3976   0.110   0.087   7.872  1.5309  0.6082 -0.1529
  912SOL     OW 3977   4.156   6.897   2.837 -0.2978  0.0091  0.2003
  912SOL    HW1 3978   4.158   6.822   2.779 -0.1579  0.3753 -0.2713
  912SOL    HW2 3979   4.069   6.896   2.876 -0.3533 -0.2956  0.0649
  913SOL     OW 3980   5.119   6.214   3.875 -0.3031 -0.0661 -0.4434
  913SOL    HW1 3981   5.099   6.139   3.820 -0.5324 -2.3294  2.6156
  913SOL    HW2 3982   5.209   6.200   3.903 -0.2950  0.8819  0.0297
  914SOL     OW 3983   1.911   8.233   4.296  0.1290 -0.2797  0.2407
  914SOL    HW1 3984   1.877   8.300   4.355  1.8083 -0.0494  0.9753
  914SOL    HW2 3985   1.965   8.281   4.234  0.0978 -0.7827 -0.1873
  915SOL     OW 3986   2.385   4.796   6.460 -0.7951 -0.1917  0.2041
  915SOL    HW1 3987   2.364   4.888   6.479  0.2973  0.2389 -0.5903
  915SOL    HW2 3988   2.390   4.754   6.545  0.5407  0.9132  0.6976
  916SOL     OW 3989   4.128   0.897   0.916  0.1977  0.2655  0.5634
  916SOL    HW1 3990   4.115   0.842   0.994 -0.8822 -0.2980 -0.0008
  916SOL    HW2 3991   4.054   0.876   0.860  2.6599 -1.7794 -2.0679
  917SOL     OW 3992   6.207   1.555   1.707  0.2663  0.2577 -0.0425
  917SOL    HW1 3993   6.163   1.471   1.695  1.9956 -0.5831 -0.6119
  917SOL    HW2 3994   6.170   1.612   1.639 -0.4852 -0.2066 -0.0236
  918SOL     OW 3995   0.516   7.808   4.371 -0.2044  0.5839  0.1136
  918SOL    HW1 3996   0.524   7.763   4.455 -0.5275  1.2716  0.5158
  918SOL    HW2 3997   0.561   7.750   4.309 -2.4489 -1.3741  0.2177
  919SOL     OW 3998   6.070   2.109   7.090  0.1344 -0.2084 -0.8488
  919SOL    HW1 3999   6.091   2.039   7.152 -1.6983  0.7612  0.9743
  919SOL    HW2 4000   5.979   2.093   7.066 -0.5304  1.8788  0.1200
  920SOL     OW 4001   3.228   4.791   3.766 -0.5354 -0.2500 -0.2323
  920SOL    HW1 4002   3.210   4.725   3.833  0.9450  0.9717  1.4017
  920SOL    HW2 4003   3.145   4.838   3.754 -0.8607 -0.6289  0.5588
  921SOL     OW 4004   1.378   4.072   4.909 -0.5007 -0.3541  0.2643
  921SOL    HW1 4005   1.313   4.110   4.849  0.6562 -0.1542 -0.8999
  921SOL    HW2 4006   1.440   4.027   4.851  0.5080 -0.3600  1.3360
  922SOL     OW 4007   0.832   4.441   3.142  0.0199  0.0993  0.0682
  922SOL    HW1 4008   0.820   4.433   3.237 -0.1084  1.5507  0.1794
  922SOL    HW2 4009   0.877   4.524   3.131 -0.7891  0.3701 -1.2243
  923SOL     OW 4010   1.029   4.484   6.602  0.2678 -0.3922  0.1830
  923SOL    HW1 4011   1.015   4.495   6.508  0.3686  0.8467  0.3093
  923SOL    HW2 4012   1.004   4.568   6.641 -0.9499 -1.2820  1.3961
  924SOL     OW 4013   6.257   7.499   6.716  0.2041 -0.2196 -0.1203
  924SOL    HW1 4014   6.225   7.587   6.697 -0.7270 -1.2018 -3.3941
  924SOL    HW2 4015   6.179   7.443   6.711  1.0356 -1.4618  0.4138
  925SOL     OW 4016   3.946   4.477   6.225 -0.6181 -0.1944  0.4017
  925SOL    HW1 4017   3.915   4.557   6.182 -1.1645  0.4754  2.0127
  925SOL    HW2 4018   3.875   4.452   6.284  1.5531  1.0200  3.6995
  926SOL     OW 4019   6.558   2.457   3.595  0.3879  0.2174 -0.7561
  926SOL    HW1 4020   6.640   2.416   3.622  0.8722 -0.1273 -2.6894
  926SOL    HW2 4021   6.583   2.545   3.566 -0.1211  0.5667 -0.1642
  927SOL     OW 4022   6.197   7.805   0.184  0.2562  0.1883  0.5181
  927SOL    HW1 4023   6.278   7.805   0.133 -0.8807  0.3578 -1.3008
  927SOL    HW2 4024   6.182   7.897   0.205  0.3132  0.2007  0.5023
  928SOL     OW 4025   3.996   8.021   4.794 -0.2330 -0.6829 -0.2456
  928SOL    HW1 4026   3.960   8.054   4.877  0.2675 -1.4861  0.3055
  928SOL    HW2 4027   3.959   8.078   4.727  0.4087  0.8128  0.6530
  929SOL     OW 4028   3.407   4.859   1.995 -0.0106  0.7339 -0.2377
  929SOL    HW1 4029   3.401   4.810   2.077 -0.9238  0.4105 -0.4941
  929SOL    HW2 4030   3.496   4.893   1.995  0.4912 -0.5311  0.1696
  930SOL     OW 4031   5.920   3.575   7.598 -0.4101  0.2718 -0.5546
  930SOL    HW1 4032   5.928   3.665   7.567  0.2690  1.1680  2.0574
  930SOL    HW2 4033   5.884   3.584   7.687 -0.5307 -2.0380 -0.3429
  931SOL     OW 4034   1.531   1.046   3.858 -0.3796 -0.3215  0.1806
  931SOL    HW1 4035   1.545   1.003   3.942  1.2882  2.0445  1.1644
  931SOL    HW2 4036   1.453   1.100   3.870  0.6840  1.1264  0.6878
  932SOL     OW 4037   3.889   6.083   6.199  0.5587 -0.1862 -0.0509
  932SOL    HW1 4038   3.797   6.103   6.218  0.1698 -1.4070 -0.5959
  932SOL    HW2 4039   3.933   6.094   6.284  0.0349  1.0406  0.0722
  933SOL     OW 4040   4.603   4.197   3.121 -0.1055 -0.0854  0.5285
  933SOL    HW1 4041   4.698   4.200   3.109 -0.2680 -1.6096 -1.3401
  933SOL    HW2 4042   4.567   4.201   3.032 -1.7655 -0.4779  1.1556
  934SOL     OW 4043   2.283   1.673   7.443  0.5885 -0.2401  0.3255
  934SOL    HW1 4044   2.340   1.603   7.474  2.1555  0.5669 -0.6978
  934SOL    HW2 4045   2.317   1.752   7.484  0.5806  0.3283 -0.7338
  935SOL     OW 4046   7.841   1.825   7.970 -0.4431  0.4966 -0.0105
  935SOL    HW1 4047   7.847   1.739   8.011  1.3275  0.6051  0.0005
  935SOL    HW2 4048   7.906   1.878   8.016 -0.1768  1.3068 -1.2853
  936SOL     OW 4049   2.266   4.905   0.232 -0.0512 -0.0805  0.6731
  936SOL    HW1 4050   2.225   4.847   0.168 -0.3299  0.0754  0.7132
  936SOL    HW2 4051   2.315   4.967   0.179 -0.0154 -0.1520  0.6210
  937SOL     OW 4052   0.896   4.355   7.972  0.1535 -1.0247 -0.4461
  937SOL    HW1 4053   0.967   4.337   8.035 -0.4517  0.3804  0.6750
  937SOL    HW2 4054   0.824   4.298   8.000 -0.5437  0.4787  0.9415
  938SOL     OW 4055   0.057   6.265   4.918 -0.0844  0.1561  0.4791
  938SOL    HW1 4056   0.050   6.303   4.831  2.4015  2.6494  1.2810
  938SOL    HW2 4057   0.063   6.170   4.903 -0.8110  0.4555 -1.9403
  939SOL     OW 4058   1.280   6.681   1.646 -0.0806 -0.3170  0.3783
  939SOL    HW1 4059   1.260   6.592   1.673  0.2506 -0.4628  0.1479
  939SOL    HW2 4060   1.344   6.671   1.576 -0.2570  0.0906  0.1556
  940SOL     OW 4061   2.328   3.188   0.200 -0.3600 -0.4530 -0.2110
  940SOL    HW1 4062   2.238   3.217   0.211 -0.2321  0.0066 -0.3666
  940SOL    HW2 4063   2.323   3.092   0.196 -0.6004 -0.5599  2.0864
  941SOL     OW 4064   0.584   4.572   0.745  0.1949  0.0519 -0.1260
  941SOL    HW1 4065   0.582   4.519   0.824 -1.0555  0.6944  0.2821
  941SOL    HW2 4066   0.544   4.655   0.770  0.7021  0.6268 -1.1666
  942SOL     OW 4067   0.203   5.505   6.137  0.6444  0.0162 -0.1033
  942SOL    HW1 4068   0.265   5.465   6.076 -0.0193  0.8307 -1.3410
  942SOL    HW2 4069   0.148   5.560   6.082 -0.8403 -0.2863  1.0598
  943SOL     OW 4070   3.301   1.727   0.466 -0.7184  0.1063  0.1309
  943SOL    HW1 4071   3.275   1.695   0.552 -1.7188  0.3643 -0.0654
  943SOL    HW2 4072   3.225   1.775   0.434 -1.2739 -2.0597 -1.9494
  944SOL     OW 4073   3.499   0.684   4.108 -0.1591  0.5810 -0.3252
  944SOL    HW1 4074   3.537   0.632   4.037 -1.5135 -0.9299  0.0148
  944SOL    HW2 4075   3.570   0.697   4.170  0.5292  0.2144 -1.0345
  945SOL     OW 4076   4.856   5.387   4.091 -0.4761  0.1849  0.3447
  945SOL    HW1 4077   4.935   5.360   4.042 -0.3428  1.1426  0.0100
  945SOL    HW2 4078   4.807   5.440   4.028 -0.6036  0.9214  1.0626
  946SOL     OW 4079   5.897   7.948   3.953 -0.8256 -0.0310 -0.0335
  946SOL    HW1 4080   5.842   7.876   3.986 -2.1090 -0.5133 -3.0661
  946SOL    HW2 4081   5.955   7.906   3.890 -0.1380  1.2534 -0.2586
  947SOL     OW 4082   5.080   2.444   3.378  0.0114  0.1227  0.3382
  947SOL    HW1 4083   4.988   2.426   3.397 -0.0413  0.2842  0.2390
  947SOL    HW2 4084   5.105   2.511   3.442 -0.7220  2.1312 -1.4500
  948SOL     OW 4085   5.351   0.845   4.996 -0.0182  0.2426 -0.0727
  948SOL    HW1 4086   5.438   0.870   4.965 -0.5721  3.0444  0.5476
  948SOL    HW2 4087   5.344   0.883   5.083 -1.1260 -1.6938  0.7206
  949SOL     OW 4088   8.107   4.612   2.654  0.3281  0.6817  0.3431
  949SOL    HW1 4089   8.082   4.519   2.649  2.2342  0.1359  0.3200
  949SOL    HW2 4090   8.108   4.631   2.748  0.6531  0.4593  0.3871
  950SOL     OW 4091   7.451   4.559   7.091 -0.4410  0.2412 -0.2076
  950SOL    HW1 4092   7.364   4.523   7.110 -0.8175  0.6563 -1.1102
  950SOL    HW2 4093   7.463   4.628   7.156 -1.4041  1.1488 -0.9777
  951SOL     OW 4094   1.437   2.742   1.613 -0.1618  0.1778 -0.2534
  951SOL    HW1 4095   1.384   2.795   1.554 -1.5998  0.1167  0.9833
  951SOL    HW2 4096   1.495   2.804   1.656 -0.5113  0.4828 -0.2258
  952SOL     OW 4097   2.140   3.245   0.423 -0.0447  0.0065  0.3908
  952SOL    HW1 4098   2.149   3.253   0.518  1.3381 -0.4476  0.3135
  952SOL    HW2 4099   2.163   3.332   0.390 -2.9042  0.8938  0.5829
  953SOL     OW 4100   7.214   0.212   4.122 -0.0008 -0.2107  0.4806
  953SOL    HW1 4101   7.139   0.272   4.121 -0.6797 -1.0588  0.2956
  953SOL    HW2 4102   7.270   0.243   4.050 -2.2463 -2.1739 -2.1952
  954SOL     OW 4103   2.230   3.585   3.709  0.3800 -0.4386  0.1429
  954SOL    HW1 4104   2.151   3.603   3.759  0.7087 -0.4100  0.6546
  954SOL    HW2 4105   2.283   3.665   3.716  0.1062 -0.1584 -0.8684
  955SOL     OW 4106   2.968   8.120   3.119 -0.1784  0.2424  0.5188
  955SOL    HW1 4107   2.946   8.045   3.063  0.9122  0.0903  0.2723
  955SOL    HW2 4108   3.009   8.080   3.196 -1.2742  0.4787  1.2270
  956SOL     OW 4109   8.009   8.145   5.228 -0.4181 -0.4783 -0.8911
  956SOL    HW1 4110   7.997   8.107   5.315  0.0102  0.2200 -0.5198
  956SOL    HW2 4111   7.964   8.229   5.232  2.9328  1.3709 -0.0361
  957SOL     OW 4112   1.094   5.833   6.922  0.3929 -0.5602 -0.5414
  957SOL    HW1 4113   1.157   5.768   6.890 -1.4794 -2.5421 -0.2715
  957SOL    HW2 4114   1.113   5.842   7.015  0.9348 -0.3662 -0.6669
  958SOL     OW 4115   2.931   5.149   5.475 -0.7476 -0.3821 -0.3314
  958SOL    HW1 4116   3.008   5.197   5.443  0.2701 -1.4312  0.5332
  958SOL    HW2 4117   2.893   5.112   5.396 -0.5622  0.4233 -0.8095
  959SOL     OW 4118   1.499   5.553   2.152 -0.3810 -0.7483 -0.0155
  959SOL    HW1 4119   1.531   5.628   2.102 -1.6934 -0.5171 -0.5298
  959SOL    HW2 4120   1.441   5.506   2.091 -1.1309 -1.0729  0.9241
  960SOL     OW 4121   5.737   4.405   6.920  0.3845 -0.3450  0.0026
  960SOL    HW1 4122   5.812   4.464   6.929  1.5902 -1.8504  0.1246
  960SOL    HW2 4123   5.765   4.341   6.855 -0.9853 -0.6578 -0.2892
  961SOL     OW 4124   0.048   0.013   7.386 -0.8593  0.0398  0.3745
  961SOL    HW1 4125   0.114   0.010   7.317 -2.5181 -1.8655 -1.2253
  961SOL    HW2 4126   0.087  -0.036   7.458  0.0524  0.1667 -0.0249
  962SOL     OW 4127   7.564   2.912   2.284 -0.4213 -0.3827 -0.4583
  962SOL    HW1 4128   7.602   2.939   2.200 -1.5965 -0.0940 -0.9155
  962SOL    HW2 4129   7.487   2.860   2.259 -0.1274 -1.2656  0.4400
  963SOL     OW 4130   1.271   7.632   7.700  0.6378  0.6639  0.0542
  963SOL    HW1 4131   1.314   7.661   7.619 -0.1497 -0.8015 -0.9081
  963SOL    HW2 4132   1.214   7.705   7.724 -0.3524  0.4530 -1.6249
  964SOL     OW 4133   6.186   8.019   1.842  0.5142  0.7639  0.4341
  964SOL    HW1 4134   6.099   8.010   1.804  0.5062  0.1365  0.5961
  964SOL    HW2 4135   6.174   8.076   1.917  0.8696  3.6976 -1.6535
  965SOL     OW 4136   1.785   1.326   6.349 -0.2515 -0.3905  0.3596
  965SOL    HW1 4137   1.833   1.281   6.279 -0.9859 -0.3914 -0.1496
  965SOL    HW2 4138   1.729   1.388   6.303 -2.9726 -2.4895  0.7405
  966SOL     OW 4139   6.282   5.485   8.248  0.1357 -0.6240  0.4841
  966SOL    HW1 4140   6.214   5.554   8.243 -0.6505 -1.2282  2.6394
  966SOL    HW2 4141   6.234   5.404   8.234  1.1819 -0.7600 -2.8445
  967SOL     OW 4142   6.409   2.799   4.697 -0.3018 -0.0139  0.0843
  967SOL    HW1 4143   6.436   2.758   4.614  0.1016  0.0027  0.2050
  967SOL    HW2 4144   6.432   2.891   4.686 -1.0141  0.1453 -0.1042
  968SOL     OW 4145   6.869   5.997   7.717 -0.0779 -0.0029  0.2362
  968SOL    HW1 4146   6.902   5.939   7.649 -3.1169 -1.7824  0.1866
  968SOL    HW2 4147   6.926   5.982   7.792  0.9260 -0.9036 -0.7046
  969SOL     OW 4148   5.521   3.990   7.477 -0.0596  0.0224 -0.6752
  969SOL    HW1 4149   5.566   4.007   7.559 -0.0699  0.2993 -0.7281
  969SOL    HW2 4150   5.429   3.983   7.501  0.1499 -1.9861 -0.3449
  970SOL     OW 4151   6.005   2.851   7.794 -0.0373 -0.3200  0.5544
  970SOL    HW1 4152   5.909   2.843   7.790 -0.2444  1.6352  1.1964
  970SOL    HW2 4153   6.032   2.851   7.702 -0.7442  0.0117  0.3391
  971SOL     OW 4154   6.470   5.986   2.162 -0.5132  0.1400 -0.3362
  971SOL    HW1 4155   6.490   5.993   2.068 -1.2272  0.5308 -0.4620
  971SOL    HW2 4156   6.447   6.075   2.188 -2.2811 -0.3224 -0.2436
  972SOL     OW 4157   2.778   1.398   2.184 -0.0763  0.0276  0.2719
  972SOL    HW1 4158   2.862   1.355   2.203  0.8404  1.9244  0.6013
  972SOL    HW2 4159   2.799   1.491   2.180 -1.8886  0.3947 -1.3121
  973SOL     OW 4160   4.000   4.885   5.957  0.4439 -0.1760  0.4989
  973SOL    HW1 4161   3.957   4.834   6.026 -1.0617 -0.1653 -0.4072
  973SOL    HW2 4162   4.089   4.850   5.954 -0.0253 -1.4947  1.1428
  974SOL     OW 4163   5.297   1.553   1.984 -0.1869  0.2528  0.7678
  974SOL    HW1 4164   5.216   1.502   1.974 -0.1775  0.1705  1.0961
  974SOL    HW2 4165   5.344   1.509   2.055  2.2435 -2.4280 -2.3839
  975SOL     OW 4166   4.296   6.298   2.194 -0.3540  0.2762  0.0678
  975SOL    HW1 4167   4.352   6.367   2.156 -0.4999 -0.3198 -1.2451
  975SOL    HW2 4168   4.289   6.322   2.287  2.0110  0.4213  0.2547
  976SOL     OW 4169   3.690   5.764   0.172 -0.2557  0.1551  0.2008
  976SOL    HW1 4170   3.701   5.764   0.077 -1.1246  1.3955  0.0863
  976SOL    HW2 4171   3.777   5.743   0.206  0.2971  0.6798 -0.8545
  977SOL     OW 4172   4.637   7.781   4.583 -0.4099  0.1206  0.3444
  977SOL    HW1 4173   4.545   7.771   4.561 -0.6420  2.2104  0.2308
  977SOL    HW2 4174   4.640   7.775   4.678 -1.1494  3.0873  0.6223
  978SOL     OW 4175   4.018   2.248   5.039  0.2347 -0.1336  0.2178
  978SOL    HW1 4176   3.966   2.178   5.077  1.3831 -0.5806  0.9857
  978SOL    HW2 4177   4.064   2.287   5.113 -1.4703  2.3832  0.0078
  979SOL     OW 4178   4.534   2.196   1.414 -0.4489 -0.0008 -0.0586
  979SOL    HW1 4179   4.487   2.179   1.332  0.3575  0.1946 -0.5710
  979SOL    HW2 4180   4.612   2.245   1.387 -1.2493  1.9506  1.0646
  980SOL     OW 4181   6.625   0.271   5.361 -0.3555 -0.0334 -0.4131
  980SOL    HW1 4182   6.670   0.342   5.317 -0.8895 -0.3077 -1.4130
  980SOL    HW2 4183   6.648   0.193   5.311  1.0956 -0.7526  1.2998
  981SOL     OW 4184   1.927   4.822   6.820  0.3809  0.1515  0.6545
  981SOL    HW1 4185   1.959   4.733   6.836  0.7469 -0.0121 -0.8736
  981SOL    HW2 4186   1.884   4.817   6.735  2.3382  1.8968 -0.5005
  982SOL     OW 4187   2.406   4.019   2.829 -0.1098  0.4303  0.9198
  982SOL    HW1 4188   2.401   3.936   2.782  0.9576  1.3745 -0.9100
  982SOL    HW2 4189   2.489   4.015   2.877  0.2210  0.6932  0.3631
  983SOL     OW 4190   2.408   2.657   6.745 -0.5429  0.0966 -0.4211
  983SOL    HW1 4191   2.389   2.722   6.677 -2.6638  0.5235  0.5126
  983SOL    HW2 4192   2.425   2.576   6.698  1.9926  1.2544 -1.6083
  984SOL     OW 4193   2.564   7.497   6.285 -0.2190 -0.1340 -0.1948
  984SOL    HW1 4194   2.571   7.404   6.262  0.7536 -0.0600 -0.2369
  984SOL    HW2 4195   2.632   7.539   6.233  0.1686  0.4293  0.7524
  985SOL     OW 4196   0.847   0.271   1.287 -0.4869 -0.0145  0.2635
  985SOL    HW1 4197   0.928   0.249   1.332 -1.5819 -1.7901  1.4047
  985SOL    HW2 4198   0.848   0.219   1.207  0.2641  1.2315 -0.5584
  986SOL     OW 4199   5.057   4.563   3.286  0.2554 -0.1718  0.7080
  986SOL    HW1 4200   4.966   4.544   3.307 -0.2505 -1.0370 -1.9756
  986SOL    HW2 4201   5.063   4.659   3.288 -1.0093 -0.0621 -0.1569
  987SOL     OW 4202   6.477   3.116   1.764 -0.5466 -0.2302  0.3204
  987SOL    HW1 4203   6.412   3.119   1.834 -1.4958  1.8075 -0.6164
  987SOL    HW2 4204   6.496   3.208   1.743  2.7670 -0.7541  0.6701
  988SOL     OW 4205   2.515   5.505   3.010 -0.2710 -0.5130 -0.1487
  988SOL    HW1 4206   2.522   5.409   3.010  0.1420 -0.4934  1.4899
  988SOL    HW2 4207   2.605   5.535   3.027 -0.2769  0.1883 -1.2891
  989SOL     OW 4208   6.087   2.835   1.612  0.7610 -0.4184  0.3135
  989SOL    HW1 4209   5.992   2.822   1.625  0.9295 -1.0717  0.9454
  989SOL    HW2 4210   6.121   2.746   1.601  1.0761 -0.0862 -1.6068
  990SOL     OW 4211   1.016   0.848   4.352  0.1208 -0.2755  0.2020
  990SOL    HW1 4212   1.103   0.888   4.359 -0.4232  0.9480  0.0504
  990SOL    HW2 4213   0.967   0.885   4.426 -0.3471 -0.7798  0.1449
  991SOL     OW 4214   5.600   4.778   7.550 -0.3317 -0.1153 -0.2326
  991SOL    HW1 4215   5.518   4.817   7.518 -1.0292  0.0319  1.6720
  991SOL    HW2 4216   5.592   4.685   7.528 -1.3838 -0.2481  0.6647
  992SOL     OW 4217   5.535   4.051   7.995  0.0964 -0.3902  0.0589
  992SOL    HW1 4218   5.570   3.988   8.058 -0.3361  0.3877  1.1063
  992SOL    HW2 4219   5.589   4.041   7.917  0.6501 -1.3709  0.5655
  993SOL     OW 4220   2.362   3.580   5.366  0.3592  0.0422  0.2880
  993SOL    HW1 4221   2.366   3.614   5.277 -0.2250 -0.6246 -0.0044
  993SOL    HW2 4222   2.310   3.644   5.415  1.5401  0.9260  0.4013
  994SOL     OW 4223   0.930   0.936   6.692 -0.2019  0.7054 -0.2122
  994SOL    HW1 4224   0.966   1.023   6.704 -1.6540  1.4596 -1.1855
  994SOL    HW2 4225   0.939   0.918   6.599  1.5781 -0.8825  0.2238
  995SOL     OW 4226   2.370   1.989   7.868  0.6140  0.4445 -0.5582
  995SOL    HW1 4227   2.375   2.030   7.955  1.1757  0.3365 -0.5392
  995SOL    HW2 4228   2.376   1.895   7.886  1.3100  0.4478 -0.7558
  996SOL     OW 4229   3.194   6.534   3.536 -0.0011  0.0654  0.2018
  996SOL    HW1 4230   3.230   6.494   3.616 -1.4557 -0.3922  0.6387
  996SOL    HW2 4231   3.111   6.571   3.563  0.5312  1.9062 -0.6181
  997SOL     OW 4232   1.133   8.194   4.790  0.2835 -0.0150 -0.1897
  997SOL    HW1 4233   1.123   8.281   4.751  0.9531  1.0217  1.9330
  997SOL    HW2 4234   1.074   8.194   4.865  0.1272 -1.4919 -0.2925
  998SOL     OW 4235   1.706   1.171   4.873 -0.5593 -0.1112  0.1321
  998SOL    HW1 4236   1.728   1.090   4.827 -0.3250  0.4203 -0.7021
  998SOL    HW2 4237   1.772   1.178   4.942  1.3217  0.9198 -1.6898
  999SOL     OW 4238   3.034   1.145   7.371 -0.1278  0.6747  0.7595
  999SOL    HW1 4239   3.036   1.177   7.461 -1.7743  0.5173  0.8538
  999SOL    HW2 4240   3.114   1.180   7.332  0.7799  0.4465  2.3803
 1000SOL     OW 4241   6.009   1.868   3.810 -0.1069  0.1685  0.1179
 1000SOL    HW1 4242   6.041   1.936   3.750 -0.1607 -0.4092 -0.5733
 1000SOL    HW2 4243   5.936   1.909   3.856 -0.8391  0.2312 -1.0774
 1001SOL     OW 4244   0.245   4.308   4.828  0.2564  0.3555 -0.3233
 1001SOL    HW1 4245   0.155   4.282   4.847  0.3491 -0.3459 -0.8104
 1001SOL    HW2 4246   0.298   4.233   4.854  1.0345  1.9265  2.9019
 1002SOL     OW 4247   3.209   3.064   8.148  0.2171 -0.7557  0.2163
 1002SOL    HW1 4248   3.246   3.034   8.231 -0.6439 -3.0299 -0.2062
 1002SOL    HW2 4249   3.282   3.064   8.087  0.5358 -0.4868  0.5910
 1003SOL     OW 4250   4.234   6.875   2.424 -0.4096  0.3136 -0.3832
 1003SOL    HW1 4251   4.315   6.842   2.462 -1.2600 -2.3007 -0.7203
 1003SOL    HW2 4252   4.167   6.813   2.452 -2.2819  2.3396 -0.2413
 1004SOL     OW 4253   5.343   0.337   2.939 -0.2429 -0.4056 -0.0770
 1004SOL    HW1 4254   5.329   0.296   2.853  0.3688 -1.1233  0.1564
 1004SOL    HW2 4255   5.418   0.290   2.975 -1.1350 -0.8023  1.2893
 1005SOL     OW 4256   5.852   7.973   2.426  0.2416 -0.3302 -0.0700
 1005SOL    HW1 4257   5.935   7.925   2.438 -0.1790 -0.8141  1.0222
 1005SOL    HW2 4258   5.856   8.042   2.493  0.4775  0.6555 -1.0949
 1006SOL     OW 4259   5.773   4.723   2.957 -0.3206 -0.8571  0.1490
 1006SOL    HW1 4260   5.797   4.734   3.049  0.7286 -1.1066 -0.0855
 1006SOL    HW2 4261   5.699   4.662   2.958 -0.7538 -0.3238  0.8714
 1007SOL     OW 4262   6.653   5.449   6.312  0.5292 -0.2106  0.7716
 1007SOL    HW1 4263   6.618   5.533   6.343  4.5911  1.4431  1.2139
 1007SOL    HW2 4264   6.678   5.466   6.221  1.3752 -0.9203  0.8719
 1008SOL     OW 4265   3.730   4.277   0.899 -0.4829 -0.0126  0.2211
 1008SOL    HW1 4266   3.726   4.246   0.809 -1.2346 -1.9554  0.9115
 1008SOL    HW2 4267   3.812   4.241   0.933 -0.7158 -0.1480  0.6359
 1009SOL     OW 4268   2.478   7.995   7.693 -0.1020  0.0728 -0.0682
 1009SOL    HW1 4269   2.525   7.949   7.763 -1.3960 -0.9245  0.1614
 1009SOL    HW2 4270   2.440   8.072   7.736 -1.0338 -0.6274  0.3670
 1010SOL     OW 4271   6.285   4.762   4.049  0.2842  0.5916 -0.2987
 1010SOL    HW1 4272   6.309   4.773   3.956  0.2862 -0.1687 -0.3971
 1010SOL    HW2 4273   6.329   4.681   4.075 -0.5500  0.2566  0.0856
 1011SOL     OW 4274   4.123   6.479   3.384  0.2187 -0.7705 -0.0721
 1011SOL    HW1 4275   4.049   6.538   3.370  0.8421 -0.7198 -3.5240
 1011SOL    HW2 4276   4.093   6.395   3.351  1.2063 -1.0773 -0.1881
 1012SOL     OW 4277   6.184   3.561   5.555  0.3387  0.0953  0.3456
 1012SOL    HW1 4278   6.276   3.540   5.539 -0.0073 -1.8002  0.6822
 1012SOL    HW2 4279   6.163   3.516   5.637 -1.2368 -0.6371 -0.4334
 1013SOL     OW 4280   1.442   3.756   3.037 -0.2029  0.0059 -0.7479
 1013SOL    HW1 4281   1.501   3.813   2.988  0.7430 -0.9075 -0.7155
 1013SOL    HW2 4282   1.389   3.713   2.971  0.3252 -0.4114 -0.9088
 1014SOL     OW 4283   3.008   0.074   0.010 -0.0417 -0.4282  0.6192
 1014SOL    HW1 4284   3.008   0.161   0.049 -0.7072  0.6204 -1.6174
 1014SOL    HW2 4285   3.090   0.070  -0.040  0.5869 -1.5784  1.6996
 1015SOL     OW 4286   7.634   4.038   6.207  0.1771  0.1417 -0.5053
 1015SOL    HW1 4287   7.717   4.062   6.249  0.2328 -0.6376 -0.1602
 1015SOL    HW2 4288   7.657   4.023   6.116 -0.4094  4.4148 -1.4234
 1016SOL     OW 4289   4.770   4.013   5.884 -0.6864 -0.0262  0.1410
 1016SOL    HW1 4290   4.722   3.969   5.814  1.7546 -2.2874 -0.1914
 1016SOL    HW2 4291   4.804   4.094   5.843 -2.6139  0.6657 -0.1202
 1017SOL     OW 4292   3.558   8.105   3.092  0.3042  0.4888 -1.1914
 1017SOL    HW1 4293   3.571   8.114   3.186  1.8518  0.1832 -1.3622
 1017SOL    HW2 4294   3.557   8.194   3.059  1.5466  0.5350 -1.1092
 1018SOL     OW 4295   1.722   6.099   0.116 -0.6230 -0.5009 -0.2070
 1018SOL    HW1 4296   1.788   6.148   0.164 -0.9394  0.2564 -0.5453
 1018SOL    HW2 4297   1.645   6.099   0.173 -0.4068 -1.2058  0.0967
 1019SOL     OW 4298   4.210   2.554   5.214 -0.3475 -0.3193 -0.0262
 1019SOL    HW1 4299   4.133   2.611   5.223  0.0097  0.6642 -2.9312
 1019SOL    HW2 4300   4.178   2.467   5.236 -2.0963  0.2054 -0.4542
 1020SOL     OW 4301   0.914   4.937   7.655 -0.3804 -0.0199  0.2188
 1020SOL    HW1 4302   0.978   4.882   7.701 -0.6293 -0.1789  0.3759
 1020SOL    HW2 4303   0.846   4.876   7.626 -0.7936  0.2372  0.6271
 1021SOL     OW 4304   1.512   4.420   3.099 -0.0516 -0.0104 -0.8053
 1021SOL    HW1 4305   1.418   4.405   3.099 -0.4704  2.2179 -2.7089
 1021SOL    HW2 4306   1.533   4.442   3.190 -1.0289 -2.1741 -0.0171
 1022SOL     OW 4307   4.605   5.255   2.198 -0.1706 -0.8112 -0.2893
 1022SOL    HW1 4308   4.514   5.264   2.228 -0.3112 -0.3251 -0.8647
 1022SOL    HW2 4309   4.600   5.192   2.126 -0.2193  0.0989 -1.0896
 1023SOL     OW 4310   8.219   1.304   1.652 -0.4221  0.5068  0.5154
 1023SOL    HW1 4311   8.236   1.301   1.558 -0.3977 -0.2563  0.5420
 1023SOL    HW2 4312   8.146   1.244   1.666  0.7349 -0.7587  1.2213
 1024SOL     OW 4313   2.653   0.685   2.877 -0.2374  0.2724 -0.0332
 1024SOL    HW1 4314   2.642   0.698   2.971 -0.0662 -1.1286  0.1920
 1024SOL    HW2 4315   2.578   0.630   2.851 -0.0387  0.2734 -0.6241
 1025SOL     OW 4316   5.240   0.252   0.620 -0.3269 -0.3337  0.1999
 1025SOL    HW1 4317   5.325   0.279   0.585 -0.9132 -1.8037 -2.5375
 1025SOL    HW2 4318   5.236   0.158   0.603 -2.5386 -0.2585  0.1349
 1026SOL     OW 4319   4.810   0.462   4.848 -0.1690  0.2919  0.7271
 1026SOL    HW1 4320   4.874   0.498   4.787  1.3214 -0.6448  1.7203
 1026SOL    HW2 4321   4.733   0.518   4.837  0.7798  1.3834 -0.5377
 1027SOL     OW 4322   0.893   8.006   3.416 -0.8744  0.4459  0.2002
 1027SOL    HW1 4323   0.855   7.943   3.478  2.8425 -1.4087  0.7498
 1027SOL    HW2 4324   0.960   7.956   3.369  0.0741  3.2268 -1.5422
 1028SOL     OW 4325   7.674   3.688   5.361  0.5608 -0.3783 -0.3413
 1028SOL    HW1 4326   7.661   3.782   5.354  2.5194 -0.0419  0.1243
 1028SOL    HW2 4327   7.765   3.674   5.333 -0.0278 -2.2589 -1.4198
 1029SOL     OW 4328   3.399   1.353   3.011 -0.0306 -0.0283  0.1214
 1029SOL    HW1 4329   3.339   1.398   2.952  1.9657  1.2380 -1.0092
 1029SOL    HW2 4330   3.407   1.411   3.087  0.3870  0.2111 -0.1010
 1030SOL     OW 4331   8.221   7.611   8.213  0.2777 -0.1130  0.4648
 1030SOL    HW1 4332   8.185   7.530   8.249  2.5884 -1.3391  0.1210
 1030SOL    HW2 4333   8.235   7.592   8.120  0.2837  0.9014  0.2469
 1031SOL     OW 4334   0.379   6.238   6.972  0.1073 -0.4195 -0.8016
 1031SOL    HW1 4335   0.347   6.222   7.061 -1.6019  1.6116 -1.0323
 1031SOL    HW2 4336   0.326   6.310   6.939  2.3881  0.5194 -2.5841
 1032SOL     OW 4337   2.528   3.945   4.927  0.7476 -0.4471 -0.2441
 1032SOL    HW1 4338   2.477   4.024   4.908  0.0786 -1.1869 -1.5892
 1032SOL    HW2 4339   2.516   3.890   4.850  0.8704 -2.0562  0.8706
 1033SOL     OW 4340   6.696   2.940   3.842  0.0096  0.3804  0.6407
 1033SOL    HW1 4341   6.749   2.949   3.922  1.7792  1.6035 -0.6270
 1033SOL    HW2 4342   6.668   2.849   3.841 -1.1198  0.6409  3.3120
 1034SOL     OW 4343   7.183   7.424   8.143  0.0715  0.3206  0.0732
 1034SOL    HW1 4344   7.203   7.365   8.215 -0.2307  0.7172  0.4847
 1034SOL    HW2 4345   7.121   7.487   8.180  0.6777  1.1205 -0.2581
 1035SOL     OW 4346   0.423   1.448   0.086  0.5735 -0.0431  0.2251
 1035SOL    HW1 4347   0.464   1.414   0.007  1.1961 -1.5977  1.1948
 1035SOL    HW2 4348   0.494   1.493   0.132  0.1406  1.1306 -0.2321
 1036SOL     OW 4349   1.223   2.810   1.415  0.6726 -0.0489 -0.3884
 1036SOL    HW1 4350   1.208   2.735   1.357 -1.1483 -0.8903  1.0934
 1036SOL    HW2 4351   1.144   2.814   1.469  1.2688  2.2212  0.3815
 1037SOL     OW 4352   6.779   1.866   4.619 -0.3388  0.0163 -0.3908
 1037SOL    HW1 4353   6.837   1.857   4.695  2.0423 -1.3271 -2.3014
 1037SOL    HW2 4354   6.692   1.851   4.654  0.5100  1.1429  2.4042
 1038SOL     OW 4355   5.761   6.246   0.479  0.8340  0.0951 -0.4291
 1038SOL    HW1 4356   5.740   6.250   0.386 -0.1304 -1.4748 -0.2860
 1038SOL    HW2 4357   5.683   6.282   0.523  1.0171  0.2107 -0.1957
 1039SOL     OW 4358   7.696   1.794   3.961 -0.3021  0.5955  0.3064
 1039SOL    HW1 4359   7.663   1.880   3.988 -1.1081  0.1437  0.7665
 1039SOL    HW2 4360   7.791   1.799   3.977 -0.2323  1.6577 -0.3733
 1040SOL     OW 4361   2.508   5.069   8.082 -0.0793  0.3461 -0.2968
 1040SOL    HW1 4362   2.425   5.070   8.033 -0.4023  1.6676  0.2539
 1040SOL    HW2 4363   2.544   5.157   8.069  0.6492  0.1633  0.4745
 1041SOL     OW 4364   2.549   0.491   0.102  0.6014  0.6887  0.4107
 1041SOL    HW1 4365   2.498   0.465   0.179  0.3774 -1.3148 -0.4022
 1041SOL    HW2 4366   2.601   0.414   0.080  0.6586  1.2480 -1.4701
 1042SOL     OW 4367   7.952   6.321   7.934 -0.6438 -0.1708 -0.3847
 1042SOL    HW1 4368   7.895   6.311   8.011 -0.1703 -0.1310 -0.0271
 1042SOL    HW2 4369   7.995   6.406   7.947 -1.3860  0.3447 -1.2436
 1043SOL     OW 4370   5.497   2.947   1.817 -0.4003  0.4724  0.0702
 1043SOL    HW1 4371   5.443   2.877   1.854 -0.3217 -0.6783 -1.9368
 1043SOL    HW2 4372   5.477   3.024   1.871 -2.5740 -0.4099  0.5674
 1044SOL     OW 4373   5.246   7.246   0.450  0.2036  0.0522 -0.6293
 1044SOL    HW1 4374   5.192   7.197   0.512  0.8896 -0.3614 -0.3593
 1044SOL    HW2 4375   5.315   7.284   0.503 -0.4170  1.4576 -0.8172
 1045SOL     OW 4376   1.497   3.036   6.521  0.1574  0.0931 -0.5077
 1045SOL    HW1 4377   1.536   3.065   6.438  0.5393 -1.4500 -0.8918
 1045SOL    HW2 4378   1.503   2.940   6.518  2.5679  0.0564  2.4399
 1046SOL     OW 4379   1.371   4.012   2.777  0.1936  0.2709  0.1153
 1046SOL    HW1 4380   1.366   4.107   2.788 -1.6373  0.3484 -1.2130
 1046SOL    HW2 4381   1.461   3.990   2.804  0.7868  2.4254  0.0141
 1047SOL     OW 4382   8.042   0.875   6.269  0.4572 -0.2763 -0.6059
 1047SOL    HW1 4383   8.011   0.818   6.199 -0.6616  0.2798 -0.5664
 1047SOL    HW2 4384   7.965   0.891   6.324  2.0747 -3.7658  2.9453
 1048SOL     OW 4385   1.471   5.885   3.292  0.1370 -0.8307 -0.2841
 1048SOL    HW1 4386   1.433   5.971   3.280  0.5795 -0.4095  1.1644
 1048SOL    HW2 4387   1.522   5.869   3.213 -1.9329 -0.8279 -1.6460
 1049SOL     OW 4388   7.071   1.520   1.261 -0.3543  0.2357  0.1721
 1049SOL    HW1 4389   7.100   1.455   1.196 -0.4626  0.3402  0.0190
 1049SOL    HW2 4390   7.069   1.603   1.213  2.1182  0.7943  0.9926
 1050SOL     OW 4391   7.325   7.785   6.692 -0.7044 -0.3513 -0.0159
 1050SOL    HW1 4392   7.235   7.785   6.725 -1.0329 -1.0860 -0.8727
 1050SOL    HW2 4393   7.315   7.776   6.597  0.3260 -1.9349  0.0171
 1051SOL     OW 4394   5.572   1.428   1.808  0.1848 -0.3955 -0.1770
 1051SOL    HW1 4395   5.535   1.514   1.828 -0.0288 -0.6939  0.7432
 1051SOL    HW2 4396   5.496   1.370   1.806  0.3592 -0.6070 -0.5048
 1052SOL     OW 4397   1.852   4.544   1.358  0.0163  0.0149 -0.0970
 1052SOL    HW1 4398   1.850   4.488   1.435  0.6608  0.8886  0.5669
 1052SOL    HW2 4399   1.944   4.545   1.331 -0.3428 -1.0253 -1.4388
 1053SOL     OW 4400   6.979   5.837   1.193 -0.0104  0.7447 -0.2893
 1053SOL    HW1 4401   7.055   5.797   1.149  1.2787  1.1908  1.4725
 1053SOL    HW2 4402   6.914   5.766   1.197  1.1185 -0.2939  0.0707
 1054SOL     OW 4403   1.854   4.301   5.946  0.4064 -0.1152 -0.3351
 1054SOL    HW1 4404   1.815   4.377   5.989 -2.0853 -2.4344  1.7717
 1054SOL    HW2 4405   1.921   4.271   6.007  1.3749  0.3822 -1.1543
 1055SOL     OW 4406   7.902   2.065   3.529 -0.5854 -0.3895 -0.1707
 1055SOL    HW1 4407   7.975   2.058   3.468  1.1493  0.0897  1.7965
 1055SOL    HW2 4408   7.863   2.151   3.511  0.9102  0.4390  0.4212
 1056SOL     OW 4409   7.512   0.652   0.031  0.2827  0.2462  0.4642
 1056SOL    HW1 4410   7.458   0.710   0.085  0.9932  0.6314  0.7682
 1056SOL    HW2 4411   7.524   0.573   0.085 -0.2801  0.0092  0.2478
 1057SOL     OW 4412   0.458   6.834   4.030 -0.6723 -0.0929  0.3403
 1057SOL    HW1 4413   0.524   6.815   3.964 -1.0184  2.6985 -0.9070
 1057SOL    HW2 4414   0.389   6.771   4.015 -0.7426  0.5050 -2.0044
 1058SOL     OW 4415   0.990   1.843   6.483  0.0361  0.5705  0.1387
 1058SOL    HW1 4416   1.007   1.937   6.471 -1.6144  0.8926  0.1263
 1058SOL    HW2 4417   1.049   1.816   6.553  1.1659  1.4168 -0.4691
 1059SOL     OW 4418   4.380   5.748   4.647 -0.4465 -0.5846  0.2957
 1059SOL    HW1 4419   4.299   5.797   4.660  0.1826  0.8735 -1.0154
 1059SOL    HW2 4420   4.446   5.816   4.632  0.6270 -1.8173 -0.6752
 1060SOL     OW 4421   1.838   7.220   4.390 -0.1438  0.1855 -0.1613
 1060SOL    HW1 4422   1.808   7.194   4.303  0.4739 -0.3811 -0.2062
 1060SOL    HW2 4423   1.786   7.298   4.410  0.1894  0.7289 -1.3234
 1061SOL     OW 4424   4.453   7.558   3.141  0.8490 -0.1402 -0.6663
 1061SOL    HW1 4425   4.480   7.573   3.050 -0.7615  1.0792 -0.9587
 1061SOL    HW2 4426   4.381   7.619   3.155 -0.0196 -1.4996  0.9175
 1062SOL     OW 4427   4.194   7.241   2.020  0.4919  0.5295 -0.4093
 1062SOL    HW1 4428   4.218   7.202   2.104  1.8087  1.2969 -0.4176
 1062SOL    HW2 4429   4.200   7.335   2.035 -3.1679  0.8220 -0.2403
 1063SOL     OW 4430   1.295   2.459   4.241  0.3571 -0.4974 -0.0615
 1063SOL    HW1 4431   1.346   2.484   4.318 -0.0772  1.4585 -0.3671
 1063SOL    HW2 4432   1.293   2.539   4.187 -0.5204 -1.4248 -1.4323
 1064SOL     OW 4433   3.404   0.048   8.084  0.3030  0.2260  0.4546
 1064SOL    HW1 4434   3.395  -0.044   8.058  1.0358  0.5732 -1.0746
 1064SOL    HW2 4435   3.315   0.079   8.098  0.0528 -0.7097  0.9680
 1065SOL     OW 4436   4.928   6.026   7.419  0.0978  0.0152 -0.3291
 1065SOL    HW1 4437   5.006   5.972   7.422  0.5287  0.4649 -2.7517
 1065SOL    HW2 4438   4.863   5.973   7.373 -0.0558  0.8382 -1.0678
 1066SOL     OW 4439   2.168   7.070   6.205  0.1803  0.0616  0.3196
 1066SOL    HW1 4440   2.116   7.062   6.284 -0.7812 -1.1456 -0.4118
 1066SOL    HW2 4441   2.214   6.986   6.199  1.2035  0.6189  0.2586
 1067SOL     OW 4442   5.929   1.211   6.945 -0.2391  0.1163  0.0487
 1067SOL    HW1 4443   5.837   1.236   6.961 -0.2685 -0.0520  0.1457
 1067SOL    HW2 4444   5.969   1.214   7.032 -0.1590  0.1673  0.0092
 1068SOL     OW 4445   5.656   6.044   3.760  1.2240 -0.1914  0.1069
 1068SOL    HW1 4446   5.674   5.997   3.678  1.3826  0.4260 -0.2185
 1068SOL    HW2 4447   5.561   6.048   3.765  1.2131  1.2716 -0.9329
 1069SOL     OW 4448   0.098   0.602   2.404 -0.0081  0.2266 -0.3952
 1069SOL    HW1 4449   0.182   0.557   2.414 -0.5690 -0.8317 -0.3928
 1069SOL    HW2 4450   0.120   0.682   2.357  1.0090 -0.0378 -0.3949
 1070SOL     OW 4451   2.804   7.828   4.999 -0.5249  0.0367  0.1181
 1070SOL    HW1 4452   2.763   7.852   4.916  2.3202 -0.9836 -1.6667
 1070SOL    HW2 4453   2.816   7.733   4.993 -1.5203 -0.2483  2.3020
 1071SOL     OW 4454   1.729   4.332   2.343 -0.3176  0.5704  0.2808
 1071SOL    HW1 4455   1.785   4.410   2.341  0.6338  0.0346  3.4212
 1071SOL    HW2 4456   1.765   4.279   2.413 -1.8289 -2.0697 -0.8858
 1072SOL     OW 4457   4.326   3.332   4.582  0.6528  0.4995  0.4935
 1072SOL    HW1 4458   4.268   3.370   4.648 -0.7004  0.0923 -0.4361
 1072SOL    HW2 4459   4.286   3.248   4.560  1.4395  0.3365 -0.3625
 1073SOL     OW 4460   6.044   4.627   3.880 -0.8253  0.2502 -0.2551
 1073SOL    HW1 4461   6.119   4.585   3.840  0.4655  1.8671  0.3884
 1073SOL    HW2 4462   6.062   4.721   3.873 -2.4965  0.6535  0.4377
 1074SOL     OW 4463   3.489   6.046   2.245  0.0778 -0.1347  0.6034
 1074SOL    HW1 4464   3.565   5.990   2.256  2.6560  2.8538 -1.1390
 1074SOL    HW2 4465   3.471   6.045   2.151 -1.1160  0.3285  0.8097
 1075SOL     OW 4466   2.456   0.454   5.896  0.1268  0.0165 -0.0844
 1075SOL    HW1 4467   2.404   0.454   5.815 -0.0484  1.5019  0.0008
 1075SOL    HW2 4468   2.412   0.391   5.953 -0.6909  0.1312 -0.5766
 1076SOL     OW 4469   2.739   3.341   8.298 -0.2667  0.1340 -0.2218
 1076SOL    HW1 4470   2.650   3.312   8.279  0.4376 -1.6680 -0.8175
 1076SOL    HW2 4471   2.727   3.420   8.351 -2.2161 -0.5130  0.3417
 1077SOL     OW 4472   1.367   2.560   0.881  0.2498  0.2679  0.2902
 1077SOL    HW1 4473   1.319   2.511   0.947 -0.0468 -1.1016 -0.9218
 1077SOL    HW2 4474   1.427   2.615   0.931 -2.8802  2.4142  1.8884
 1078SOL     OW 4475   2.749   2.408   2.631 -0.0805  0.2451 -0.3681
 1078SOL    HW1 4476   2.741   2.354   2.710  0.4310  0.6511 -0.0382
 1078SOL    HW2 4477   2.825   2.464   2.648  0.6728 -0.4022 -1.5883
 1079SOL     OW 4478   3.573   7.131   4.031 -0.2991 -0.2761 -0.0509
 1079SOL    HW1 4479   3.597   7.070   4.101  0.0731 -1.5986 -1.3123
 1079SOL    HW2 4480   3.480   7.115   4.015 -0.3057 -0.1989 -0.0919
 1080SOL     OW 4481   1.528   7.216   6.076 -0.2347 -0.2091 -0.0228
 1080SOL    HW1 4482   1.579   7.295   6.094 -2.9518  0.9743  2.8808
 1080SOL    HW2 4483   1.508   7.222   5.982  0.2739  2.1819 -0.0156
 1081SOL     OW 4484   6.808   0.958   4.733  0.3872  0.4620  0.2543
 1081SOL    HW1 4485   6.902   0.970   4.742  0.4204  0.7958 -0.5346
 1081SOL    HW2 4486   6.794   0.944   4.640 -0.7124  3.7177 -0.1439
 1082SOL     OW 4487   1.503   7.991   0.138 -0.3461 -0.6136 -0.0619
 1082SOL    HW1 4488   1.477   8.084   0.137 -2.5342 -1.2039 -1.0041
 1082SOL    HW2 4489   1.598   7.994   0.133 -0.4099  1.6034 -1.1113
 1083SOL     OW 4490   2.955   3.507   1.031 -0.4234 -0.1235  0.3113
 1083SOL    HW1 4491   3.020   3.439   1.013 -0.8996 -0.9602  1.6813
 1083SOL    HW2 4492   3.006   3.586   1.047  0.1329 -0.1389 -1.3232
 1084SOL     OW 4493   5.712   7.991   0.258 -0.3113  0.1752 -0.6173
 1084SOL    HW1 4494   5.624   8.027   0.268 -0.2283  1.0914 -2.9198
 1084SOL    HW2 4495   5.756   8.051   0.198  1.8906 -0.3090  0.4332
 1085SOL     OW 4496   7.445   2.425   3.061 -0.6718  0.2174  0.2343
 1085SOL    HW1 4497   7.353   2.403   3.049 -0.8544  0.4917  1.0929
 1085SOL    HW2 4498   7.492   2.344   3.044 -1.0827  0.0222  0.0201
 1086SOL     OW 4499   6.835   6.181   8.288 -0.1064  0.0022 -0.0260
 1086SOL    HW1 4500   6.899   6.148   8.351 -0.3914 -2.6323 -1.0402
 1086SOL    HW2 4501   6.770   6.110   8.281  0.1220  0.0632 -3.5557
 1087SOL     OW 4502   0.537   4.680   7.876  0.2822 -0.8124 -0.6219
 1087SOL    HW1 4503   0.501   4.735   7.806 -1.1178 -2.8922 -1.5866
 1087SOL    HW2 4504   0.611   4.730   7.910 -1.0200  1.7340 -1.3742
 1088SOL     OW 4505   2.669   4.097   6.629  0.0780  0.5780  0.2760
 1088SOL    HW1 4506   2.756   4.133   6.648  0.0673  0.6330  0.2212
 1088SOL    HW2 4507   2.640   4.145   6.552 -0.8932  2.0622  1.5352
 1089SOL     OW 4508   2.585   7.588   6.921  0.8011  0.4677  0.3366
 1089SOL    HW1 4509   2.612   7.497   6.933  0.7482  0.6282  1.8356
 1089SOL    HW2 4510   2.542   7.590   6.836 -1.7367 -1.5470  1.5060
 1090SOL     OW 4511   3.500   4.874   8.275  0.1128  0.7042  0.6426
 1090SOL    HW1 4512   3.575   4.899   8.221  0.8574 -1.5150  0.6226
 1090SOL    HW2 4513   3.487   4.950   8.333  2.5021  1.0549  0.7789
 1091SOL     OW 4514   6.264   5.946   6.411  0.1507 -0.0755  0.1975
 1091SOL    HW1 4515   6.186   5.901   6.443  0.5784  0.6152  2.3021
 1091SOL    HW2 4516   6.281   5.908   6.326 -1.8870 -0.9727  0.1722
 1092SOL     OW 4517   1.653   3.987   8.158  0.0957 -0.0274  0.7467
 1092SOL    HW1 4518   1.654   3.998   8.253 -4.2461  0.4761  0.8522
 1092SOL    HW2 4519   1.586   3.921   8.142  0.2064  0.4629 -2.0189
 1093SOL     OW 4520   8.102   7.377   5.334  0.4791 -0.0209 -0.4659
 1093SOL    HW1 4521   8.085   7.358   5.426  1.3869  0.1344 -0.2537
 1093SOL    HW2 4522   8.197   7.393   5.331  0.4798 -0.2040 -1.4549
 1094SOL     OW 4523   6.966   1.639   7.773  0.2697  0.2309  0.0899
 1094SOL    HW1 4524   6.937   1.612   7.687 -0.8002 -1.1328  0.8719
 1094SOL    HW2 4525   6.917   1.719   7.791  0.4790  0.5043 -0.5369
 1095SOL     OW 4526   3.495   6.096   4.787 -0.0422  0.6020 -0.7811
 1095SOL    HW1 4527   3.551   6.131   4.857 -0.6999  2.1202 -0.9874
 1095SOL    HW2 4528   3.470   6.173   4.736 -2.1102 -0.0783 -0.8450
 1096SOL     OW 4529   4.926   0.696   7.736  0.1221  0.0674  0.3103
 1096SOL    HW1 4530   4.975   0.679   7.655  0.1394  1.3595  0.0269
 1096SOL    HW2 4531   4.835   0.707   7.707 -0.0687 -0.6490  0.6237
 1097SOL     OW 4532   6.685   2.144   0.904 -0.0161 -0.6127 -0.4619
 1097SOL    HW1 4533   6.659   2.189   0.824  1.3588 -1.7591 -1.5790
 1097SOL    HW2 4534   6.619   2.076   0.916  0.2040 -0.9401 -1.0672
 1098SOL     OW 4535   2.664   6.400   7.283  0.1947  0.4172  0.3386
 1098SOL    HW1 4536   2.571   6.390   7.262 -0.0326 -0.6860  1.8288
 1098SOL    HW2 4537   2.673   6.492   7.309 -0.5938  0.3644  0.7994
 1099SOL     OW 4538   0.421   1.758   3.726 -0.0915  0.2721 -0.0523
 1099SOL    HW1 4539   0.467   1.842   3.726  0.0909  0.1741 -0.2216
 1099SOL    HW2 4540   0.410   1.737   3.633  1.9932 -1.0275 -0.0415
 1100SOL     OW 4541   3.192   2.026   7.799  0.5972 -0.5944  0.2255
 1100SOL    HW1 4542   3.274   2.075   7.799  1.0954 -1.4081 -0.2902
 1100SOL    HW2 4543   3.189   1.984   7.712  0.3837 -1.7983  0.7974
 1101SOL     OW 4544   3.725   0.552   7.966  0.0928 -0.1768 -0.6903
 1101SOL    HW1 4545   3.634   0.535   7.992  0.0211 -0.9532 -1.4254
 1101SOL    HW2 4546   3.751   0.474   7.917  1.1962 -0.0045 -0.3900
 1102SOL     OW 4547   4.497   7.854   3.351 -0.0959  0.4692  0.8638
 1102SOL    HW1 4548   4.508   7.930   3.408  0.7176 -0.7961  2.4281
 1102SOL    HW2 4549   4.487   7.780   3.411  0.8595 -0.9051 -0.6263
 1103SOL     OW 4550   4.602   6.602   6.954 -1.0993  0.1612  0.6778
 1103SOL    HW1 4551   4.633   6.684   6.917 -0.1396 -0.3222  0.3869
 1103SOL    HW2 4552   4.681   6.548   6.962 -1.9307 -1.2834 -0.5744
 1104SOL     OW 4553   6.958   1.722   4.174  0.2815  0.5626 -0.8688
 1104SOL    HW1 4554   7.006   1.643   4.147 -1.2925 -0.3361 -1.1282
 1104SOL    HW2 4555   7.009   1.757   4.247  0.6071 -1.1395 -0.2429
 1105SOL     OW 4556   3.086   2.169   2.442 -0.3824  0.6520  0.2180
 1105SOL    HW1 4557   3.173   2.143   2.472 -0.5137  0.7842  0.7217
 1105SOL    HW2 4558   3.048   2.089   2.405  0.3082  0.8150 -0.8797
 1106SOL     OW 4559   4.897   7.772   0.330  0.3477 -0.1242 -0.2077
 1106SOL    HW1 4560   4.819   7.825   0.345 -0.2069 -0.7504 -0.8255
 1106SOL    HW2 4561   4.949   7.782   0.409 -0.6163 -0.1445  0.4381
 1107SOL     OW 4562   1.980   5.511   4.292 -0.3283 -0.1090  0.3892
 1107SOL    HW1 4563   1.970   5.588   4.347 -1.6839  0.3806 -0.5121
 1107SOL    HW2 4564   2.073   5.507   4.272 -0.3694  1.7700 -0.2258
 1108SOL     OW 4565   4.739   6.251   0.088 -0.2705 -0.3591  0.2159
 1108SOL    HW1 4566   4.787   6.283   0.165 -0.7191  1.6906 -0.3286
 1108SOL    HW2 4567   4.799   6.265   0.015 -0.8854  0.2046 -0.1763
 1109SOL     OW 4568   7.195   1.401   6.386  0.0527  0.3021 -0.1295
 1109SOL    HW1 4569   7.264   1.414   6.451 -0.6266 -1.1873  0.9027
 1109SOL    HW2 4570   7.241   1.389   6.304  0.9460  1.3508  0.1977
 1110SOL     OW 4571   4.717   7.278   4.437  0.2880 -0.1778 -0.2754
 1110SOL    HW1 4572   4.709   7.188   4.406 -0.0940 -0.1564 -0.2418
 1110SOL    HW2 4573   4.638   7.322   4.405  0.5771  0.2008 -0.4779
 1111SOL     OW 4574   0.620   2.721   3.693  0.0222  0.0515  0.1571
 1111SOL    HW1 4575   0.549   2.784   3.704  0.0116  0.3222 -1.3554
 1111SOL    HW2 4576   0.594   2.669   3.617  0.6641 -0.9206  0.5947
 1112SOL     OW 4577   0.455   4.316   4.159  0.8624 -0.2365  0.3814
 1112SOL    HW1 4578   0.494   4.234   4.191 -0.1035 -0.5894  0.6614
 1112SOL    HW2 4579   0.376   4.288   4.113  1.1741  0.4395 -0.5918
 1113SOL     OW 4580   0.321   4.276   2.274  0.2751  0.0907 -0.0283
 1113SOL    HW1 4581   0.287   4.358   2.310  0.3153  0.9623 -1.9117
 1113SOL    HW2 4582   0.300   4.210   2.340  0.2212  1.6082  1.5034
 1114SOL     OW 4583   5.935   0.923   6.615 -0.1461  0.2115  0.2420
 1114SOL    HW1 4584   5.987   0.930   6.534 -0.2484 -0.6240  0.0967
 1114SOL    HW2 4585   5.976   0.851   6.663  0.8389  1.6782  1.6411
 1115SOL     OW 4586   7.618   2.529   4.849  0.0735 -0.0563 -0.0897
 1115SOL    HW1 4587   7.586   2.573   4.928 -0.5759  0.7319 -0.7862
 1115SOL    HW2 4588   7.549   2.467   4.825  1.1849 -1.8342  1.1545
 1116SOL     OW 4589   5.167   6.753   6.076 -0.1727  0.5288 -0.1526
 1116SOL    HW1 4590   5.254   6.787   6.055 -0.2527  0.7096 -0.1894
 1116SOL    HW2 4591   5.144   6.796   6.158  0.0940 -0.0937  0.2550
 1117SOL     OW 4592   2.703   0.812   6.738 -0.7186  0.3529 -0.1164
 1117SOL    HW1 4593   2.667   0.866   6.668 -0.8277 -0.0102 -0.3399
 1117SOL    HW2 4594   2.649   0.832   6.814 -1.5523 -0.3804 -0.5134
 1118SOL     OW 4595   4.636   7.531   5.054  0.7014  0.3999  1.0576
 1118SOL    HW1 4596   4.565   7.478   5.090  1.4421 -0.3706  1.3849
 1118SOL    HW2 4597   4.629   7.614   5.101 -1.4967  1.2154 -0.6398
 1119SOL     OW 4598   4.956   0.935   4.856  0.4000 -0.2073  0.5478
 1119SOL    HW1 4599   4.926   0.914   4.944 -0.2734 -0.6754  0.2106
 1119SOL    HW2 4600   4.949   1.031   4.851  3.3337  0.1490  2.0322
 1120SOL     OW 4601   0.966   5.967   4.903 -0.3165  0.1078  0.2633
 1120SOL    HW1 4602   1.010   6.052   4.899  2.0220 -1.0012  1.5190
 1120SOL    HW2 4603   0.890   5.977   4.846  2.6580  1.4022 -3.6647
 1121SOL     OW 4604   0.870   0.451   1.063 -0.0509 -0.0857 -0.1395
 1121SOL    HW1 4605   0.855   0.386   1.132  2.4791 -0.5994 -0.0005
 1121SOL    HW2 4606   0.881   0.534   1.110  0.4406 -0.2251  0.0031
 1122SOL     OW 4607   4.744   4.031   6.137 -0.3231  0.1570  0.2228
 1122SOL    HW1 4608   4.781   4.119   6.137  2.1776 -0.8460  1.1516
 1122SOL    HW2 4609   4.746   4.003   6.045 -1.0779  1.0320 -0.0653
 1123SOL     OW 4610   2.458   8.051   6.271  0.2701 -0.4428  0.6720
 1123SOL    HW1 4611   2.529   8.078   6.212 -0.2255 -1.2908 -0.3180
 1123SOL    HW2 4612   2.497   7.983   6.326  0.3918 -0.4985  0.5174
 1124SOL     OW 4613   5.843   5.248   4.592  0.0940 -0.0832  0.1398
 1124SOL    HW1 4614   5.838   5.164   4.637 -1.4494  0.1101  0.3584
 1124SOL    HW2 4615   5.883   5.307   4.655  0.6689 -0.5077  0.1811
 1125SOL     OW 4616   2.523   3.629   8.178  0.7038 -0.3767 -0.2212
 1125SOL    HW1 4617   2.568   3.552   8.143 -0.0358 -0.5064 -0.8964
 1125SOL    HW2 4618   2.583   3.702   8.161  0.3299 -0.4298 -1.8122
 1126SOL     OW 4619   2.957   3.787   6.299 -0.0452  0.5851 -0.1640
 1126SOL    HW1 4620   2.883   3.769   6.357 -0.6717  1.8284 -0.5542
 1126SOL    HW2 4621   3.017   3.838   6.352  0.2183  0.1734 -0.0625
 1127SOL     OW 4622   8.053   6.169   5.689 -0.6956  0.2041 -0.3070
 1127SOL    HW1 4623   8.136   6.122   5.677 -1.3030  0.0153 -4.2933
 1127SOL    HW2 4624   8.051   6.190   5.782  2.9395 -1.4551  0.2262
 1128SOL     OW 4625   3.355   5.216   7.478  0.3070  0.4504  0.0529
 1128SOL    HW1 4626   3.407   5.241   7.554 -0.7096  1.7834  0.3233
 1128SOL    HW2 4627   3.368   5.288   7.416 -0.9971  0.6741  0.0253
 1129SOL     OW 4628   2.561   3.134   4.166 -0.8149  0.1772  0.0660
 1129SOL    HW1 4629   2.489   3.164   4.111 -1.4193  1.4857  1.5357
 1129SOL    HW2 4630   2.526   3.138   4.255 -0.3680 -3.3005  0.4814
 1130SOL     OW 4631   5.506   1.509   2.465  0.4758  0.1127 -0.2236
 1130SOL    HW1 4632   5.522   1.415   2.454  0.2626  0.1613 -0.9320
 1130SOL    HW2 4633   5.487   1.519   2.559 -1.0272 -0.7795 -0.4145
 1131SOL     OW 4634   1.821   3.922   0.273 -0.1693 -0.0930  0.0888
 1131SOL    HW1 4635   1.740   3.971   0.257  0.4956  0.3730 -2.1336
 1131SOL    HW2 4636   1.875   3.941   0.196  1.3987 -1.7277  0.7568
 1132SOL     OW 4637   2.650   2.029   1.857  0.0324  0.3597  0.0970
 1132SOL    HW1 4638   2.591   2.068   1.923 -0.1727 -1.1880  0.8545
 1132SOL    HW2 4639   2.602   1.954   1.824  0.6488  0.4310 -0.9694
 1133SOL     OW 4640   1.645   7.744   3.846  0.8067 -0.2056  0.1143
 1133SOL    HW1 4641   1.618   7.822   3.797  1.0899 -0.5265 -0.5601
 1133SOL    HW2 4642   1.651   7.774   3.937  0.6386  0.4883 -0.0982
 1134SOL     OW 4643   4.583   3.274   6.323 -0.5648 -0.2376  0.4804
 1134SOL    HW1 4644   4.516   3.257   6.257 -1.1596  0.0654  1.0000
 1134SOL    HW2 4645   4.666   3.266   6.276 -0.8679 -3.1178  0.3869
 1135SOL     OW 4646   6.369   2.727   5.623  0.1634 -0.3937  0.5267
 1135SOL    HW1 4647   6.363   2.713   5.718 -0.8738 -1.6609  0.2897
 1135SOL    HW2 4648   6.340   2.644   5.585  0.2733  0.2152 -0.9030
 1136SOL     OW 4649   5.924   5.147   3.569  0.7260 -0.1941 -0.0665
 1136SOL    HW1 4650   5.841   5.171   3.529  0.6576  1.6268  1.0870
 1136SOL    HW2 4651   5.904   5.142   3.663  1.9470  0.4741  0.2408
 1137SOL     OW 4652   8.129   1.348   6.288 -0.0868  0.0905 -0.5690
 1137SOL    HW1 4653   8.117   1.442   6.300  3.0572  0.2251  1.8732
 1137SOL    HW2 4654   8.100   1.309   6.371  1.4918 -0.8095 -0.4172
 1138SOL     OW 4655   5.602   0.227   5.983  0.4491  0.0308 -0.0422
 1138SOL    HW1 4656   5.640   0.149   6.024  1.5682 -1.7957 -4.2639
 1138SOL    HW2 4657   5.522   0.195   5.941 -0.9011  1.9320  1.0125
 1139SOL     OW 4658   7.785   4.745   4.550 -0.1447 -0.2052 -0.2199
 1139SOL    HW1 4659   7.789   4.826   4.601  0.2318 -0.6254  0.4341
 1139SOL    HW2 4660   7.733   4.767   4.474  1.6885  1.2316 -1.1019
 1140SOL     OW 4661   3.439   0.440   3.371  0.4472 -0.7303 -0.4111
 1140SOL    HW1 4662   3.444   0.435   3.275  0.4978 -0.3209 -0.4300
 1140SOL    HW2 4663   3.528   0.422   3.400  0.8145  0.8241 -0.5139
 1141SOL     OW 4664   3.618   5.823   1.043 -0.3151 -0.0079  0.0327
 1141SOL    HW1 4665   3.705   5.809   1.082 -0.1483 -0.9825 -0.6812
 1141SOL    HW2 4666   3.573   5.879   1.106  1.3034  1.6524 -0.2068
 1142SOL     OW 4667   5.232   5.910   7.695  0.8500 -0.6539  0.0914
 1142SOL    HW1 4668   5.240   5.981   7.630 -1.0499 -0.7230 -0.2571
 1142SOL    HW2 4669   5.241   5.830   7.644  0.2620 -0.6931  0.0440
 1143SOL     OW 4670   1.090   4.837   6.968 -0.2186 -0.2073  0.8441
 1143SOL    HW1 4671   1.056   4.787   7.042  0.9611  1.1049  2.3073
 1143SOL    HW2 4672   1.142   4.774   6.918 -2.0331 -1.4029  0.4367
 1144SOL     OW 4673   6.742   7.041   1.716  0.1700  0.1672  0.2007
 1144SOL    HW1 4674   6.649   7.029   1.736 -0.2235  1.7466 -0.6175
 1144SOL    HW2 4675   6.757   7.135   1.725  1.5776 -0.0153 -0.1390
 1145SOL     OW 4676   6.864   1.654   5.352  0.0662  0.3946 -0.0092
 1145SOL    HW1 4677   6.851   1.697   5.437 -0.4896 -0.0644  0.1352
 1145SOL    HW2 4678   6.785   1.674   5.302  1.2707  2.4087 -1.1735
 1146SOL     OW 4679   1.445   3.996   1.471  0.1970  0.0173  0.0142
 1146SOL    HW1 4680   1.394   4.003   1.552 -0.8506  1.3164 -0.7438
 1146SOL    HW2 4681   1.423   3.909   1.437 -1.0362  0.3314  0.0075
 1147SOL     OW 4682   4.084   5.619   2.146 -0.5403 -0.3015  0.6177
 1147SOL    HW1 4683   4.116   5.696   2.100 -1.3373 -0.4686 -0.2192
 1147SOL    HW2 4684   4.158   5.558   2.144  0.3637  0.7112  1.9674
 1148SOL     OW 4685   5.892   2.048   7.437  0.1746 -0.4295  0.1496
 1148SOL    HW1 4686   5.933   2.105   7.502  0.8532 -0.1118 -0.5531
 1148SOL    HW2 4687   5.932   1.962   7.451  1.3573 -0.0296 -0.7900
 1149SOL     OW 4688   0.506   4.867   4.770 -0.1584 -0.2673 -0.3224
 1149SOL    HW1 4689   0.478   4.816   4.846  0.2414  0.5032  0.3416
 1149SOL    HW2 4690   0.548   4.944   4.807 -1.4369  0.9364 -1.3239
 1150SOL     OW 4691   6.601   4.359   5.486 -0.1028  0.3229  0.7756
 1150SOL    HW1 4692   6.593   4.353   5.391  0.6308 -0.3569  0.7508
 1150SOL    HW2 4693   6.611   4.452   5.504  2.0161  0.2672 -0.0075
 1151SOL     OW 4694   4.634   7.962   0.010 -0.2292  0.0570 -0.1599
 1151SOL    HW1 4695   4.584   7.956  -0.071 -0.3192  1.9436 -0.2649
 1151SOL    HW2 4696   4.575   7.927   0.077 -1.8559  2.4884 -0.2436
 1152SOL     OW 4697   2.979   4.623   2.908  0.5662  0.2603  0.3491
 1152SOL    HW1 4698   2.896   4.577   2.892  0.2320  1.2376 -0.7628
 1152SOL    HW2 4699   3.031   4.605   2.830  1.1828  0.1553  0.7821
 1153SOL     OW 4700   0.298   4.934   7.004  0.6699 -0.1046  0.6318
 1153SOL    HW1 4701   0.243   4.933   6.926 -0.4304  1.5421  1.3536
 1153SOL    HW2 4702   0.249   4.882   7.068  1.4368 -1.2192  0.3207
 1154SOL     OW 4703   3.274   1.936   3.724 -0.0040  0.1934  0.3676
 1154SOL    HW1 4704   3.304   1.977   3.806 -2.4072 -2.1738  2.4953
 1154SOL    HW2 4705   3.233   2.008   3.675 -0.5179  1.1953  2.2261
 1155SOL     OW 4706   7.838   1.318   3.916  0.3825  0.0835 -0.2999
 1155SOL    HW1 4707   7.801   1.231   3.898 -1.6404  0.5608  1.2914
 1155SOL    HW2 4708   7.772   1.379   3.886  1.1184  1.0443  0.0106
 1156SOL     OW 4709   4.375   1.514   6.400  0.0315 -0.1042  0.4630
 1156SOL    HW1 4710   4.408   1.452   6.464 -1.2988 -1.3069 -0.0072
 1156SOL    HW2 4711   4.379   1.599   6.444 -0.1333 -0.8112  1.8504
 1157SOL     OW 4712   5.349   4.602   2.218  0.1873  0.1898  0.4258
 1157SOL    HW1 4713   5.373   4.524   2.268 -0.2510  0.1649  0.5914
 1157SOL    HW2 4714   5.340   4.570   2.128  0.1159  0.0736  0.4742
 1158SOL     OW 4715   6.073   4.601   4.857  0.4160 -0.3677 -0.2017
 1158SOL    HW1 4716   6.017   4.523   4.862 -0.5445  0.2685 -0.8061
 1158SOL    HW2 4717   6.049   4.642   4.774  0.1876  1.1069  0.5690
 1159SOL     OW 4718   5.919   6.796   6.309 -0.4387  0.2964  0.1469
 1159SOL    HW1 4719   5.949   6.706   6.300  0.3365  0.6243 -0.5767
 1159SOL    HW2 4720   5.958   6.827   6.391 -0.5056  0.0598  0.2682
 1160SOL     OW 4721   5.523   3.152   5.542  0.1548  0.0084  0.0005
 1160SOL    HW1 4722   5.439   3.189   5.566  0.5577  0.8654  0.1016
 1160SOL    HW2 4723   5.501   3.073   5.493 -0.6996  0.0011  0.3882
 1161SOL     OW 4724   2.884   7.488   6.265 -0.3872  0.0114  0.3233
 1161SOL    HW1 4725   2.869   7.579   6.242  0.1355  0.8924  3.2387
 1161SOL    HW2 4726   2.965   7.464   6.219 -1.6656  0.3396 -2.1425
 1162SOL     OW 4727   4.115   5.580   3.264  0.1790 -0.5296  0.0516
 1162SOL    HW1 4728   4.171   5.556   3.190  1.0547 -0.5580  0.7067
 1162SOL    HW2 4729   4.161   5.545   3.340  0.0173  0.7394  0.7505
 1163SOL     OW 4730   0.771   3.121   7.075 -0.3204  0.3309 -0.4255
 1163SOL    HW1 4731   0.812   3.179   7.138  0.9889 -1.2740  0.2604
 1163SOL    HW2 4732   0.792   3.159   6.989  0.9658  0.5890 -0.0061
 1164SOL     OW 4733   4.710   3.306   1.509  0.9020 -0.1086 -0.4023
 1164SOL    HW1 4734   4.686   3.271   1.594 -1.4833 -0.9272 -1.3571
 1164SOL    HW2 4735   4.769   3.380   1.528  2.3383 -1.7783  1.8015
 1165SOL     OW 4736   6.502   6.804   5.296 -0.1297 -0.3684 -0.1388
 1165SOL    HW1 4737   6.558   6.844   5.230  0.9206 -0.4710  0.6729
 1165SOL    HW2 4738   6.527   6.711   5.297  0.1198 -0.3033  0.6394
 1166SOL     OW 4739   1.739   5.913   7.808 -0.0073  0.0720  0.2272
 1166SOL    HW1 4740   1.770   5.880   7.892 -0.6242 -2.5283 -0.5165
 1166SOL    HW2 4741   1.657   5.958   7.829 -0.5293 -1.1875  0.9400
 1167SOL     OW 4742   1.022   6.555   6.480  0.2499  0.7072 -0.7338
 1167SOL    HW1 4743   1.008   6.489   6.549  2.3934  1.3041  0.3144
 1167SOL    HW2 4744   0.948   6.615   6.489  1.1904  1.5637  2.0463
 1168SOL     OW 4745   1.855   3.670   3.103 -0.1448  0.2887  0.3464
 1168SOL    HW1 4746   1.762   3.691   3.111 -0.1372  0.8537 -0.9075
 1168SOL    HW2 4747   1.861   3.618   3.023  0.5470 -0.2398  0.7363
 1169SOL     OW 4748   7.417   1.672   0.961  0.5687  0.1023  0.0253
 1169SOL    HW1 4749   7.385   1.752   0.920  0.4478  0.7832  1.4077
 1169SOL    HW2 4750   7.354   1.654   1.031  1.3633 -0.4152  0.6148
 1170SOL     OW 4751   2.830   0.449   7.845  0.2872 -0.5075 -0.0955
 1170SOL    HW1 4752   2.907   0.397   7.820  1.5030  0.9571  0.5038
 1170SOL    HW2 4753   2.845   0.535   7.807  0.1940  0.5446  2.1281
 1171SOL     OW 4754   7.215   0.540   2.281 -0.4041 -0.3095  0.0768
 1171SOL    HW1 4755   7.209   0.630   2.314  1.2366  0.7863 -2.4070
 1171SOL    HW2 4756   7.184   0.546   2.190  1.9974 -1.7539 -0.8899
 1172SOL     OW 4757   4.490   5.113   3.090  0.2813 -0.2301 -0.1047
 1172SOL    HW1 4758   4.469   5.027   3.052 -1.8332  0.4230 -0.4754
 1172SOL    HW2 4759   4.565   5.144   3.039 -0.4480 -0.8172 -1.5661
 1173SOL     OW 4760   2.085   1.298   3.801 -0.0260 -0.5127 -0.0941
 1173SOL    HW1 4761   2.068   1.303   3.707  1.7471 -1.5466 -0.4894
 1173SOL    HW2 4762   2.023   1.233   3.833 -1.0092  0.2385 -0.4527
 1174SOL     OW 4763   1.388   7.746   6.749 -0.0546 -0.0362  0.5339
 1174SOL    HW1 4764   1.444   7.817   6.716 -0.5662  0.0011 -0.2695
 1174SOL    HW2 4765   1.330   7.726   6.676 -1.7358  0.5810  1.6915
 1175SOL     OW 4766   6.541   1.911   0.894 -0.2307 -0.4227 -0.3786
 1175SOL    HW1 4767   6.610   1.888   0.831 -0.6412 -1.8395 -0.3338
 1175SOL    HW2 4768   6.465   1.933   0.840 -0.1248 -0.1104 -0.4024
 1176SOL     OW 4769   5.393   0.557   3.145 -0.7155 -0.5794 -0.1126
 1176SOL    HW1 4770   5.327   0.564   3.214 -2.1602 -1.4084 -1.3824
 1176SOL    HW2 4771   5.350   0.507   3.075  0.0663  1.8337 -2.3919
 1177SOL     OW 4772   2.933   8.252   7.945  0.3493 -0.2013  0.0185
 1177SOL    HW1 4773   3.005   8.206   7.901  0.0625 -0.4609 -0.1747
 1177SOL    HW2 4774   2.856   8.197   7.930  0.3965 -0.7068  1.5158
 1178SOL     OW 4775   6.735   4.463   1.838 -0.4812 -0.1388  0.4939
 1178SOL    HW1 4776   6.666   4.518   1.800 -1.0408 -0.8779  0.4347
 1178SOL    HW2 4777   6.706   4.448   1.928 -0.2259 -0.1741  0.5693
 1179SOL     OW 4778   6.135   2.637   0.487  0.4507  0.5605  0.1849
 1179SOL    HW1 4779   6.157   2.713   0.433 -0.8445  0.9306  0.1584
 1179SOL    HW2 4780   6.072   2.670   0.552 -1.2785 -0.7799 -0.7463
 1180SOL     OW 4781   3.538   3.957   3.863 -0.5720  0.2858  0.2390
 1180SOL    HW1 4782   3.540   3.905   3.783  1.0277 -1.9589  1.6822
 1180SOL    HW2 4783   3.630   3.975   3.883 -0.9220  0.5533  1.7323
 1181SOL     OW 4784   8.087   7.194   0.436 -0.1755  0.5471  0.5738
 1181SOL    HW1 4785   8.087   7.113   0.384  1.5419 -0.1191  1.5695
 1181SOL    HW2 4786   8.030   7.253   0.388 -0.7149 -0.9507 -0.6732
 1182SOL     OW 4787   7.102   3.591   6.718 -0.0960  0.2524 -0.5164
 1182SOL    HW1 4788   7.129   3.505   6.748  0.0173 -0.3215 -2.2071
 1182SOL    HW2 4789   7.107   3.586   6.623  0.2378  2.2335 -0.6245
 1183SOL     OW 4790   0.134   7.424   6.059 -0.1167  0.4439 -0.0194
 1183SOL    HW1 4791   0.174   7.338   6.071  1.0000  0.8678 -0.5888
 1183SOL    HW2 4792   0.203   7.486   6.085 -0.3488  1.1980 -1.1668
 1184SOL     OW 4793   5.025   2.907   1.105 -0.1863 -0.0040  0.7425
 1184SOL    HW1 4794   5.064   2.842   1.046  0.1559 -0.1330  1.1128
 1184SOL    HW2 4795   4.989   2.973   1.046 -0.7821 -0.6686  0.3570
 1185SOL     OW 4796   3.853   4.315   3.945 -0.1261  0.0890 -0.4738
 1185SOL    HW1 4797   3.778   4.365   3.977 -0.3196 -0.4918 -0.0258
 1185SOL    HW2 4798   3.838   4.306   3.851 -1.0923 -0.8363 -0.2343
 1186SOL     OW 4799   1.912   8.290   1.176 -0.1102  0.1942 -0.5730
 1186SOL    HW1 4800   2.006   8.306   1.172 -0.4604  2.4500 -0.2997
 1186SOL    HW2 4801   1.872   8.374   1.155 -2.0676  0.0212  2.1228
 1187SOL     OW 4802   5.523   6.170   2.710 -0.2574  0.1174  0.9500
 1187SOL    HW1 4803   5.459   6.122   2.761  0.0426 -0.4745  0.7721
 1187SOL    HW2 4804   5.595   6.186   2.770  0.0090 -0.4040  0.7773
 1188SOL     OW 4805   1.117   6.430   8.155 -0.2395 -0.2365  0.1367
 1188SOL    HW1 4806   1.174   6.501   8.127  1.1080 -1.1344  0.5675
 1188SOL    HW2 4807   1.176   6.356   8.171 -1.3931 -0.8386  1.7115
 1189SOL     OW 4808   1.032   6.642   6.091 -0.2913 -0.0290  0.4917
 1189SOL    HW1 4809   1.010   6.735   6.096  1.4120  0.4510 -0.4973
 1189SOL    HW2 4810   0.957   6.598   6.131 -0.3652  1.8423  2.5454
 1190SOL     OW 4811   3.136   3.552   6.498  0.3438  0.1388 -0.1243
 1190SOL    HW1 4812   3.126   3.558   6.403  1.6930  0.3407 -0.2696
 1190SOL    HW2 4813   3.198   3.480   6.511 -1.4006 -1.2390  0.7065
 1191SOL     OW 4814   4.224   4.700   8.198 -0.2229  0.2175  0.0251
 1191SOL    HW1 4815   4.186   4.738   8.119  0.8236  1.1739 -0.0146
 1191SOL    HW2 4816   4.309   4.665   8.170  1.0847  2.4224  1.1585
 1192SOL     OW 4817   2.828   7.601   8.005 -0.1926 -0.3267 -0.1328
 1192SOL    HW1 4818   2.857   7.661   8.073 -0.6679  0.0169 -0.2320
 1192SOL    HW2 4819   2.908   7.572   7.962  0.1552 -0.9059  0.8772
 1193SOL     OW 4820   5.608   5.268   6.612  0.4163  0.0085  0.5826
 1193SOL    HW1 4821   5.555   5.318   6.674  1.9626  2.7286 -0.2150
 1193SOL    HW2 4822   5.698   5.293   6.632  1.0282 -0.2023 -1.7635
 1194SOL     OW 4823   3.773   1.632   7.636 -0.4509 -0.4815  0.0314
 1194SOL    HW1 4824   3.833   1.676   7.575 -1.0489 -1.1841 -1.0681
 1194SOL    HW2 4825   3.699   1.693   7.645 -0.7960 -0.7933 -0.6790
 1195SOL     OW 4826   1.667   5.340   3.968  0.0092  0.1495  0.2819
 1195SOL    HW1 4827   1.633   5.310   4.052  1.0996  0.7701  0.9509
 1195SOL    HW2 4828   1.592   5.335   3.908 -1.3544  1.7578  1.8003
 1196SOL     OW 4829   8.297   5.938   4.426 -0.2459  0.1643  0.0409
 1196SOL    HW1 4830   8.301   5.842   4.430 -2.9455 -0.0191 -0.5679
 1196SOL    HW2 4831   8.359   5.962   4.356  2.6591 -0.8628  2.1497
 1197SOL     OW 4832   6.079   6.580   2.744 -0.3195  0.3351  0.4721
 1197SOL    HW1 4833   6.158   6.563   2.795 -0.7613 -0.5398  0.8692
 1197SOL    HW2 4834   6.092   6.529   2.663 -0.6780 -0.1782  0.7348
 1198SOL     OW 4835   2.544   5.509   7.165 -0.3152 -0.2218 -0.8271
 1198SOL    HW1 4836   2.503   5.550   7.089 -0.2352  1.1694 -0.1427
 1198SOL    HW2 4837   2.494   5.429   7.180 -2.9226  1.5514  0.1249
 1199SOL     OW 4838   0.974   0.228   2.716 -0.1975  0.3351 -0.0065
 1199SOL    HW1 4839   0.912   0.264   2.653  0.2691 -0.2275 -0.7889
 1199SOL    HW2 4840   0.991   0.300   2.777  0.5019  1.3647 -1.3788
 1200SOL     OW 4841   1.273   4.880   6.372 -0.2948 -0.0209 -0.2137
 1200SOL    HW1 4842   1.329   4.819   6.418  0.1665 -0.8084 -1.7967
 1200SOL    HW2 4843   1.326   4.959   6.363 -1.4555  1.2698  3.2771
 1201SOL     OW 4844   8.040   6.753   2.559 -0.2601 -0.2768 -0.1383
 1201SOL    HW1 4845   8.062   6.820   2.493 -0.8986  0.6267  0.5679
 1201SOL    HW2 4846   7.948   6.733   2.543 -0.8400  1.0565  1.4607
 1202SOL     OW 4847   4.409   3.743   8.296  0.1739 -0.3977 -0.1306
 1202SOL    HW1 4848   4.449   3.826   8.271  0.2172 -0.6790 -1.0123
 1202SOL    HW2 4849   4.482   3.684   8.313  0.1369 -0.4635 -0.1990
 1203SOL     OW 4850   1.837   2.197   0.774  0.0095 -0.0921  0.1608
 1203SOL    HW1 4851   1.907   2.136   0.749  0.4306  0.5154 -0.1406
 1203SOL    HW2 4852   1.858   2.278   0.728 -1.9557 -0.4835 -1.4665
 1204SOL     OW 4853   1.918   4.479   6.469 -0.1152  0.5609  0.3847
 1204SOL    HW1 4854   1.902   4.385   6.471  0.8979  0.3509 -0.8464
 1204SOL    HW2 4855   2.005   4.488   6.430 -0.3184  2.0187  0.2279
 1205SOL     OW 4856   6.653   2.044   6.105  0.1156  0.0770 -0.4193
 1205SOL    HW1 4857   6.604   2.041   6.023 -0.6209 -1.0698  0.0491
 1205SOL    HW2 4858   6.626   2.125   6.147 -1.8670 -0.8254  0.1042
 1206SOL     OW 4859   1.089   1.759   8.171 -0.3025  0.2795  0.2664
 1206SOL    HW1 4860   1.059   1.817   8.241 -0.6842 -0.5458  0.7944
 1206SOL    HW2 4861   1.033   1.681   8.178 -1.3912  0.8153 -1.9325
 1207SOL     OW 4862   6.853   3.704   6.551 -0.2092 -0.5169  0.8593
 1207SOL    HW1 4863   6.869   3.654   6.632  0.3618 -0.0700  1.0228
 1207SOL    HW2 4864   6.939   3.712   6.510 -0.1618  1.0680  1.2591
 1208SOL     OW 4865   5.372   6.527   8.150 -0.6207 -0.3574  0.1268
 1208SOL    HW1 4866   5.387   6.449   8.204 -0.4201 -0.6368 -0.3193
 1208SOL    HW2 4867   5.435   6.518   8.078 -0.9282 -0.0290 -0.1870
 1209SOL     OW 4868   0.894   6.276   1.125 -0.6568 -0.4121 -0.2809
 1209SOL    HW1 4869   0.863   6.365   1.139  1.3963  0.4116 -0.8698
 1209SOL    HW2 4870   0.873   6.257   1.034  0.8140  0.2603 -0.7698
 1210SOL     OW 4871   3.806   6.821   5.846  0.3145  0.3994  0.4045
 1210SOL    HW1 4872   3.887   6.844   5.891  0.5440  0.6806 -0.1555
 1210SOL    HW2 4873   3.822   6.842   5.754  0.5774 -2.0595 -0.1547
 1211SOL     OW 4874   6.598   4.483   0.710  0.0719  0.2679 -0.1578
 1211SOL    HW1 4875   6.653   4.443   0.642 -1.1471 -0.1823 -0.8842
 1211SOL    HW2 4876   6.511   4.446   0.695 -0.0369 -0.5207  2.1833
 1212SOL     OW 4877   1.712   7.057   8.300 -0.0730 -0.3001  0.2838
 1212SOL    HW1 4878   1.724   7.132   8.359  1.3560 -0.4329  0.1792
 1212SOL    HW2 4879   1.708   6.982   8.359  1.1542 -0.4119  0.2331
 1213SOL     OW 4880   3.760   4.022   2.892 -0.1951 -0.5677  0.1974
 1213SOL    HW1 4881   3.754   4.038   2.986 -0.2168  1.0163 -0.0541
 1213SOL    HW2 4882   3.849   4.047   2.868 -0.5743  0.2450 -0.4069
 1214SOL     OW 4883   7.368   0.921   5.441 -0.2756  0.0112  0.8598
 1214SOL    HW1 4884   7.442   0.872   5.476 -0.1496 -0.0319  0.5315
 1214SOL    HW2 4885   7.349   0.986   5.509  0.1697  0.1299  0.8757
 1215SOL     OW 4886   0.571   2.634   0.873 -0.4888 -0.1630  0.1963
 1215SOL    HW1 4887   0.584   2.548   0.833  0.7265  0.5266 -0.9326
 1215SOL    HW2 4888   0.656   2.678   0.864 -1.8441  2.1738 -1.6736
 1216SOL     OW 4889   6.884   4.477   4.616  0.2543  0.2338  0.4942
 1216SOL    HW1 4890   6.940   4.497   4.691  0.8341 -1.6533  0.5984
 1216SOL    HW2 4891   6.907   4.544   4.551  1.1924  0.6882  1.2696
 1217SOL     OW 4892   4.967   7.887   7.648 -0.1264  0.3339  0.2634
 1217SOL    HW1 4893   4.983   7.864   7.557 -0.1899 -0.6382  0.4893
 1217SOL    HW2 4894   5.045   7.935   7.675 -0.6854  1.8231 -0.6835
 1218SOL     OW 4895   2.081   2.872   4.904 -0.5857 -0.9973  0.1751
 1218SOL    HW1 4896   2.158   2.854   4.959 -0.2005  0.9467  0.3240
 1218SOL    HW2 4897   2.116   2.873   4.815 -0.6760 -1.3048  0.1349
 1219SOL     OW 4898   5.397   1.659   4.267 -0.2490  0.0666  0.5566
 1219SOL    HW1 4899   5.322   1.661   4.328 -0.2965 -1.4747  0.5858
 1219SOL    HW2 4900   5.358   1.634   4.183 -0.2462  2.6348 -0.2215
 1220SOL     OW 4901   4.981   4.280   1.289 -0.0103  0.7986 -0.0049
 1220SOL    HW1 4902   4.940   4.198   1.317  0.6837 -0.2856 -2.0351
 1220SOL    HW2 4903   5.074   4.259   1.281  0.2562  1.9434 -0.0101
 1221SOL     OW 4904   0.577   6.165   2.898 -0.3127  0.3528  0.2970
 1221SOL    HW1 4905   0.532   6.249   2.896  0.1651  0.6156  0.6703
 1221SOL    HW2 4906   0.554   6.123   2.815 -1.8906  0.1489  0.8191
 1222SOL     OW 4907   7.576   7.621   4.440 -0.2529 -0.9794  0.2148
 1222SOL    HW1 4908   7.535   7.557   4.381  0.6012 -0.9943 -0.3787
 1222SOL    HW2 4909   7.614   7.568   4.510  1.9666 -1.3042 -1.1803
 1223SOL     OW 4910   2.281   3.308   1.666 -0.3707 -0.1623 -0.5977
 1223SOL    HW1 4911   2.367   3.350   1.663  0.4157 -1.6012  0.7065
 1223SOL    HW2 4912   2.292   3.227   1.615 -0.9490 -0.3452 -0.4362
 1224SOL     OW 4913   2.575   2.714   7.776 -0.0540  0.4268  0.4408
 1224SOL    HW1 4914   2.656   2.665   7.789  0.2805  0.8488 -0.0349
 1224SOL    HW2 4915   2.573   2.777   7.848  0.3949  0.8823  0.0607
 1225SOL     OW 4916   4.683   2.589   0.165 -0.2795 -0.0626 -0.5978
 1225SOL    HW1 4917   4.624   2.517   0.141  0.8797 -0.6288 -1.8278
 1225SOL    HW2 4918   4.635   2.668   0.142 -0.8266 -0.4990 -0.9666
 1226SOL     OW 4919   0.512   0.304   1.064 -0.4848  0.2616 -0.6049
 1226SOL    HW1 4920   0.469   0.384   1.035  0.1375  0.0308 -2.1800
 1226SOL    HW2 4921   0.605   0.317   1.043 -0.4466 -1.0598 -1.3182
 1227SOL     OW 4922   6.846   5.892   6.154 -0.6587  0.0534  0.0967
 1227SOL    HW1 4923   6.801   5.938   6.084  0.8107  1.2628 -0.0726
 1227SOL    HW2 4924   6.799   5.918   6.234 -0.8176  0.6025 -0.1739
 1228SOL     OW 4925   4.288   6.853   0.632 -0.4257  0.1886  0.6604
 1228SOL    HW1 4926   4.303   6.861   0.538 -0.8380  1.8778  0.7164
 1228SOL    HW2 4927   4.368   6.813   0.666  0.1567  0.5574 -0.2556
 1229SOL     OW 4928   7.249   3.222   0.136  0.8254  0.4222  0.0844
 1229SOL    HW1 4929   7.270   3.207   0.043 -2.2924 -1.7672 -0.3672
 1229SOL    HW2 4930   7.193   3.299   0.135 -1.3124 -1.0670 -0.2422
 1230SOL     OW 4931   2.815   2.990   2.424 -0.2851 -0.5002 -0.3200
 1230SOL    HW1 4932   2.771   2.934   2.488  0.1626  0.3323  0.7447
 1230SOL    HW2 4933   2.898   3.013   2.466  0.1990 -0.2760 -1.3836
 1231SOL     OW 4934   3.998   1.795   3.058  0.1692 -0.1582  0.0070
 1231SOL    HW1 4935   4.034   1.767   3.143 -0.0238 -0.4676 -0.0110
 1231SOL    HW2 4936   4.042   1.878   3.040 -0.4159  0.3392  0.8162
 1232SOL     OW 4937   1.887   1.378   4.529 -0.7678 -0.0860 -0.6679
 1232SOL    HW1 4938   1.807   1.346   4.571 -1.5046 -0.0123 -1.9855
 1232SOL    HW2 4939   1.934   1.298   4.504 -0.2271 -0.1334  0.4334
 1233SOL     OW 4940   7.304   6.135   4.758 -0.3003  0.1216  0.7554
 1233SOL    HW1 4941   7.240   6.146   4.828 -0.1210  0.0064  0.9369
 1233SOL    HW2 4942   7.385   6.110   4.803 -0.5127 -1.1936  0.4021
 1234SOL     OW 4943   0.800   3.660   7.159 -0.2772 -0.1548 -0.4999
 1234SOL    HW1 4944   0.847   3.586   7.198 -0.5260  0.3070  0.7242
 1234SOL    HW2 4945   0.773   3.712   7.235 -0.2371  1.1048 -1.3451
 1235SOL     OW 4946   3.056   7.429   1.294 -0.2415  0.0605 -0.0332
 1235SOL    HW1 4947   3.005   7.365   1.244 -0.3161 -0.5135  0.7539
 1235SOL    HW2 4948   3.104   7.375   1.358 -0.4268  0.8153  0.7419
 1236SOL     OW 4949   2.449   3.285   6.651 -1.1268  0.2592  0.0198
 1236SOL    HW1 4950   2.444   3.378   6.626  1.0216  0.5444  0.5203
 1236SOL    HW2 4951   2.491   3.243   6.576  1.2549  0.3471  1.2685
 1237SOL     OW 4952   3.861   1.464   2.389  1.0992 -0.1726  0.0377
 1237SOL    HW1 4953   3.837   1.477   2.481 -1.5444  0.3613 -0.6903
 1237SOL    HW2 4954   3.939   1.518   2.377  1.3465 -0.0771  1.8914
 1238SOL     OW 4955   3.298   7.293   1.419 -0.2134  0.0066  0.1171
 1238SOL    HW1 4956   3.331   7.265   1.334 -2.0114 -0.5980 -0.3932
 1238SOL    HW2 4957   3.298   7.213   1.472 -3.8569 -0.6976 -0.8602
 1239SOL     OW 4958   1.043   3.220   7.174  0.2605  0.0318 -0.2942
 1239SOL    HW1 4959   1.094   3.146   7.140  1.3716  1.0281 -0.8510
 1239SOL    HW2 4960   1.056   3.215   7.269  0.4951 -0.3638 -0.3434
 1240SOL     OW 4961   0.123   4.802   7.823  0.5513 -0.0745 -0.4494
 1240SOL    HW1 4962   0.040   4.787   7.869  0.6527 -2.3679 -0.9230
 1240SOL    HW2 4963   0.174   4.857   7.882 -0.8749  0.4150  0.3493
 1241SOL     OW 4964   7.029   7.560   5.536  0.1071 -0.4710 -0.3508
 1241SOL    HW1 4965   6.959   7.605   5.584  0.5416  0.4331 -0.5512
 1241SOL    HW2 4966   7.092   7.629   5.514  1.1898 -1.3138  0.0397
 1242SOL     OW 4967   4.531   6.680   0.622 -0.2732  0.0241 -0.3190
 1242SOL    HW1 4968   4.577   6.598   0.638  2.6128  1.5663 -0.4825
 1242SOL    HW2 4969   4.520   6.683   0.527 -0.8369 -0.4020 -0.2690
 1243SOL     OW 4970   7.663   2.722   7.997  0.0314 -0.2967  0.3580
 1243SOL    HW1 4971   7.712   2.690   7.921 -1.1516 -0.2404 -0.4337
 1243SOL    HW2 4972   7.686   2.660   8.067  1.2387 -0.2673  0.0086
 1244SOL     OW 4973   1.900   8.064   8.248  0.1357  0.0781  0.7760
 1244SOL    HW1 4974   1.888   7.971   8.228 -0.7823  0.2788  0.3460
 1244SOL    HW2 4975   1.826   8.085   8.305 -0.6406  0.9425 -0.5226
 1245SOL     OW 4976   2.115   0.004   6.379 -0.1414 -0.3525  0.6229
 1245SOL    HW1 4977   2.184   0.056   6.338 -1.0805  2.2827  2.2642
 1245SOL    HW2 4978   2.033   0.040   6.344 -0.7847 -1.2383  1.1976
 1246SOL     OW 4979   5.349   7.003   4.339 -0.3899  0.8151  0.3974
 1246SOL    HW1 4980   5.348   7.092   4.373 -0.5568  0.9292  0.0972
 1246SOL    HW2 4981   5.379   6.949   4.412  0.6972  1.2467  0.2805
 1247SOL     OW 4982   4.065   5.566   1.659 -0.5505 -0.2683 -0.7788
 1247SOL    HW1 4983   4.000   5.500   1.680 -1.7245  0.7580 -1.0762
 1247SOL    HW2 4984   4.029   5.647   1.695  1.4569 -0.0061  0.6890
 1248SOL     OW 4985   0.953   1.936   0.052  0.1978 -0.3005 -0.2802
 1248SOL    HW1 4986   0.931   1.857   0.103  4.3698 -1.5298 -0.2352
 1248SOL    HW2 4987   0.982   1.999   0.118 -1.7099  0.8414 -0.4763
 1249SOL     OW 4988   0.220   4.063   6.121  0.3104  0.1463 -0.3416
 1249SOL    HW1 4989   0.266   4.076   6.203  0.9765 -1.7240 -0.3946
 1249SOL    HW2 4990   0.256   4.129   6.062  1.6626 -0.1542  0.1349
 1250SOL     OW 4991   2.080   6.529   3.899  0.8040  0.1700 -0.5663
 1250SOL    HW1 4992   2.084   6.568   3.811  0.2236 -0.6218 -0.9582
 1250SOL    HW2 4993   2.160   6.560   3.943  0.0388  2.3001 -0.6271
 1251SOL     OW 4994   8.256   3.258   0.192 -0.3199  0.3062  0.1195
 1251SOL    HW1 4995   8.282   3.349   0.210 -0.5168  1.0407 -3.0566
 1251SOL    HW2 4996   8.168   3.251   0.229  0.7732  0.5006  2.9093
 1252SOL     OW 4997   2.082   7.417   0.370  0.4911  0.1605 -0.5576
 1252SOL    HW1 4998   2.053   7.459   0.289 -0.2493 -0.9088 -0.8492
 1252SOL    HW2 4999   2.058   7.478   0.439 -0.7730  0.1221 -0.9624
 1253SOL     OW 5000   7.362   5.065   2.254  0.9728  0.0355  0.0083
 1253SOL    HW1 5001   7.313   4.996   2.298 -0.6207  1.6568  0.8175
 1253SOL    HW2 5002   7.453   5.051   2.283  0.3868 -0.6021  1.6078
 1254SOL     OW 5003   2.193   5.909   7.131 -0.2566 -0.1077  0.0596
 1254SOL    HW1 5004   2.200   5.818   7.159  0.7008 -0.2458 -0.6071
 1254SOL    HW2 5005   2.197   5.904   7.035 -1.6073  0.5165 -0.0386
 1255SOL     OW 5006   6.866   5.532   0.315  0.2396  0.0670  0.0428
 1255SOL    HW1 5007   6.872   5.612   0.366  0.7783 -1.0241  1.7504
 1255SOL    HW2 5008   6.958   5.505   0.302  0.0533 -0.4932 -0.1554
 1256SOL     OW 5009   4.045   7.985   8.283 -0.3557 -0.2255  0.0118
 1256SOL    HW1 5010   3.969   7.957   8.334 -0.6249  0.2362 -0.1289
 1256SOL    HW2 5011   4.118   7.982   8.344 -0.5894 -0.1430  0.2956
 1257SOL     OW 5012   1.288   6.609   4.378  0.0317  0.3882 -0.1448
 1257SOL    HW1 5013   1.345   6.564   4.316  0.1116  0.9571 -0.4931
 1257SOL    HW2 5014   1.321   6.582   4.464 -0.5081 -0.9289 -0.3456
 1258SOL     OW 5015   6.110   0.836   1.367  0.3422  0.0561 -0.3852
 1258SOL    HW1 5016   6.055   0.902   1.326  1.1973  0.3253 -1.1351
 1258SOL    HW2 5017   6.050   0.778   1.413 -0.4534  1.0673 -0.1491
 1259SOL     OW 5018   1.671   0.827   8.059 -0.1455 -0.0091  0.0235
 1259SOL    HW1 5019   1.616   0.903   8.039 -1.2920 -0.9906 -0.5233
 1259SOL    HW2 5020   1.613   0.752   8.053  0.9977 -0.9540  0.5459
 1260SOL     OW 5021   4.540   6.664   3.761 -0.0034  0.1963 -0.2300
 1260SOL    HW1 5022   4.472   6.596   3.761 -0.8443  1.0188  1.4611
 1260SOL    HW2 5023   4.622   6.615   3.755 -0.7069 -0.8020 -2.5693
 1261SOL     OW 5024   3.030   3.594   2.177  0.6090 -0.6782  0.0536
 1261SOL    HW1 5025   3.118   3.617   2.149  0.8046  0.6264  1.6728
 1261SOL    HW2 5026   2.982   3.577   2.096  1.5030  1.7451 -1.0269
 1262SOL     OW 5027   2.506   2.468   4.127 -1.0830 -0.2490  0.3740
 1262SOL    HW1 5028   2.502   2.429   4.040 -1.7195  0.6265  0.0032
 1262SOL    HW2 5029   2.458   2.550   4.119 -2.8205 -1.0485  2.0121
 1263SOL     OW 5030   1.696   8.232   2.896 -0.2885 -0.1310 -0.2532
 1263SOL    HW1 5031   1.760   8.175   2.854 -1.2644 -1.8326  0.5127
 1263SOL    HW2 5032   1.632   8.251   2.828 -0.5473 -0.8514 -0.2086
 1264SOL     OW 5033   5.490   3.426   3.623 -0.2964  0.3613 -0.5151
 1264SOL    HW1 5034   5.529   3.358   3.568  1.3371  0.5258  0.4149
 1264SOL    HW2 5035   5.537   3.505   3.600  1.0235  0.2568  1.7539
 1265SOL     OW 5036   6.123   6.727   5.841  0.0318 -0.2425 -0.3116
 1265SOL    HW1 5037   6.088   6.652   5.889 -0.7747 -1.5314 -2.8289
 1265SOL    HW2 5038   6.125   6.798   5.905 -2.7969 -1.3894  1.1161
 1266SOL     OW 5039   5.278   2.295   5.334 -0.2941  0.1835 -0.1542
 1266SOL    HW1 5040   5.272   2.381   5.292  0.7693  0.6444  0.6060
 1266SOL    HW2 5041   5.204   2.246   5.299 -0.7121  1.2960 -0.8634
 1267SOL     OW 5042   3.142   5.241   2.689 -0.5642  0.6728  0.1448
 1267SOL    HW1 5043   3.107   5.226   2.601  0.5370  1.9259 -0.5151
 1267SOL    HW2 5044   3.150   5.336   2.697  1.2778  0.4924  0.8129
 1268SOL     OW 5045   3.374   6.945   4.073  0.8959  0.0975  0.1279
 1268SOL    HW1 5046   3.316   6.950   3.997  1.2136  0.9353 -0.0632
 1268SOL    HW2 5047   3.447   6.892   4.044  0.9987  0.3850 -0.1394
 1269SOL     OW 5048   7.205   3.075   3.634 -0.0185  0.5923 -0.2794
 1269SOL    HW1 5049   7.143   3.003   3.630 -0.5641  1.0412 -0.0273
 1269SOL    HW2 5050   7.277   3.049   3.576 -1.1628  0.7556 -1.7955
 1270SOL     OW 5051   2.158   0.841   3.730  0.5782 -0.2858 -0.2278
 1270SOL    HW1 5052   2.209   0.764   3.704  3.6542  1.1528  1.1976
 1270SOL    HW2 5053   2.219   0.891   3.785 -2.9109  0.8174  2.7772
 1271SOL     OW 5054   6.669   3.534   0.991 -0.1333  0.2858  0.0590
 1271SOL    HW1 5055   6.745   3.574   1.033 -0.1110 -0.2808  0.5473
 1271SOL    HW2 5056   6.706   3.467   0.933 -0.3318 -0.8179  1.2016
 1272SOL     OW 5057   5.252   5.642   2.772  0.2074 -0.0645 -0.4264
 1272SOL    HW1 5058   5.330   5.592   2.746 -0.4602 -1.4297  0.1094
 1272SOL    HW2 5059   5.282   5.732   2.779  1.4356 -0.3752 -1.5148
 1273SOL     OW 5060   1.500   4.171   5.994 -0.2319 -0.3920  0.3982
 1273SOL    HW1 5061   1.546   4.253   5.972  0.2967 -1.0195 -0.8489
 1273SOL    HW2 5062   1.567   4.117   6.036 -0.0526 -0.9535 -0.5943
 1274SOL     OW 5063   3.831   3.991   0.281 -0.2536  0.5118  0.6918
 1274SOL    HW1 5064   3.919   3.969   0.250 -1.8020 -1.1889 -2.7304
 1274SOL    HW2 5065   3.802   4.062   0.223 -0.8057  1.7448  2.4262
 1275SOL     OW 5066   6.187   1.181   3.342  0.3209  1.0058 -0.2226
 1275SOL    HW1 5067   6.170   1.171   3.248 -0.0442  2.9400 -0.3914
 1275SOL    HW2 5068   6.282   1.189   3.348  0.5071 -1.0769 -0.2094
 1276SOL     OW 5069   6.324   6.294   5.639 -0.3229  0.0478 -0.4863
 1276SOL    HW1 5070   6.232   6.292   5.665  0.3538 -0.8963  2.0319
 1276SOL    HW2 5071   6.339   6.208   5.599 -0.1566 -0.4233  0.5699
 1277SOL     OW 5072   5.595   4.334   2.526 -0.0170 -0.0360  0.2794
 1277SOL    HW1 5073   5.612   4.356   2.434 -1.4108 -0.0168  0.0051
 1277SOL    HW2 5074   5.523   4.271   2.521  0.2196 -0.3842  1.3427
 1278SOL     OW 5075   6.929   6.806   3.591  0.0102  0.3528 -0.2376
 1278SOL    HW1 5076   6.942   6.882   3.648  0.3241  0.4891 -0.4922
 1278SOL    HW2 5077   7.009   6.802   3.538  0.0577 -0.2442 -0.1181
 1279SOL     OW 5078   1.501   0.958   1.075 -0.5080  0.1140 -0.3660
 1279SOL    HW1 5079   1.519   0.886   1.136 -0.6982 -0.5443 -1.0773
 1279SOL    HW2 5080   1.583   1.008   1.072 -0.9177  0.9145  1.4342
 1280SOL     OW 5081   1.854   8.040   2.802  0.1407  0.4152 -0.0204
 1280SOL    HW1 5082   1.946   8.035   2.827 -0.2829 -0.8006  1.3718
 1280SOL    HW2 5083   1.855   8.048   2.706  1.7606  3.5971  0.2029
 1281SOL     OW 5084   0.216   2.727   1.475  0.7308  0.1448 -0.1510
 1281SOL    HW1 5085   0.132   2.764   1.500 -0.1221 -0.9667 -1.3529
 1281SOL    HW2 5086   0.261   2.712   1.558 -0.6599 -0.2366  0.5437
 1282SOL     OW 5087   6.784   3.823   2.543  0.6919  0.1915 -0.1200
 1282SOL    HW1 5088   6.840   3.769   2.599 -0.3405 -1.8839 -1.0223
 1282SOL    HW2 5089   6.789   3.781   2.457 -0.5106  1.2716 -0.7425
 1283SOL     OW 5090   3.351   3.225   5.149 -0.1683  0.5884 -0.8859
 1283SOL    HW1 5091   3.377   3.148   5.098 -0.5942  0.2814 -0.6451
 1283SOL    HW2 5092   3.258   3.237   5.129 -0.6989 -0.3808  0.8893
 1284SOL     OW 5093   5.526   5.484   5.284  0.1004  0.6487 -0.8136
 1284SOL    HW1 5094   5.605   5.532   5.261  0.5799  0.1377 -0.2553
 1284SOL    HW2 5095   5.460   5.514   5.221  0.9344  0.5078 -1.7696
 1285SOL     OW 5096   6.394   3.130   0.991  0.7755  0.0847 -0.3100
 1285SOL    HW1 5097   6.431   3.076   0.922 -0.8232 -1.5128  0.0385
 1285SOL    HW2 5098   6.391   3.072   1.068  0.1720  1.0339  0.3939
 1286SOL     OW 5099   0.712   2.449   2.819  0.5919 -0.1855  0.3878
 1286SOL    HW1 5100   0.681   2.518   2.760 -1.3017 -2.0225 -0.8567
 1286SOL    HW2 5101   0.783   2.406   2.772 -0.5401 -1.2826 -0.3620
 1287SOL     OW 5102   0.601   2.885   1.983  0.1694  0.3756 -0.1638
 1287SOL    HW1 5103   0.677   2.905   1.929  0.5720  0.1951  0.3279
 1287SOL    HW2 5104   0.556   2.970   1.994 -0.2797  0.2918 -1.3156
 1288SOL     OW 5105   3.379   2.889   0.597 -0.0344  0.0218  0.2677
 1288SOL    HW1 5106   3.296   2.863   0.556 -0.3088  0.1065  0.7617
 1288SOL    HW2 5107   3.422   2.944   0.532 -1.7333  2.4942  1.1539
 1289SOL     OW 5108   5.349   5.658   6.237 -0.4896  0.0320 -0.0773
 1289SOL    HW1 5109   5.412   5.659   6.309 -0.6861 -0.8188  0.1047
 1289SOL    HW2 5110   5.401   5.681   6.160 -0.2312  0.7070  0.2952
 1290SOL     OW 5111   2.794   3.768   5.270  0.0888  0.3583  0.4097
 1290SOL    HW1 5112   2.856   3.728   5.209  1.0790  1.9785  0.3379
 1290SOL    HW2 5113   2.712   3.772   5.221  0.1248 -1.0052  0.2093
 1291SOL     OW 5114   3.348   3.808   4.223 -0.1607  0.0087 -0.0061
 1291SOL    HW1 5115   3.258   3.776   4.233 -0.7146  1.6654  0.3355
 1291SOL    HW2 5116   3.394   3.735   4.182 -0.7291 -2.3783  3.2978
 1292SOL     OW 5117   6.804   0.494   4.493 -0.1157 -0.4084  0.6836
 1292SOL    HW1 5118   6.752   0.530   4.565 -0.3457  0.0690  0.2890
 1292SOL    HW2 5119   6.851   0.570   4.457  0.7614 -0.8170  0.9632
 1293SOL     OW 5120   5.335   1.150   5.078 -0.9612  0.0392 -0.6128
 1293SOL    HW1 5121   5.393   1.084   5.040 -0.6845  0.6546 -1.2571
 1293SOL    HW2 5122   5.381   1.181   5.156 -0.7815 -0.0312 -0.6914
 1294SOL     OW 5123   6.796   1.334   5.952 -0.1649 -0.0430 -0.3425
 1294SOL    HW1 5124   6.718   1.360   6.002 -0.0417  0.9064 -0.6267
 1294SOL    HW2 5125   6.832   1.417   5.919  2.2077 -0.2542  1.5829
 1295SOL     OW 5126   2.932   0.103   6.557  0.4530 -0.6382 -0.1790
 1295SOL    HW1 5127   2.880   0.176   6.589  0.6273 -0.5688 -0.0528
 1295SOL    HW2 5128   2.868   0.038   6.529  0.2970 -0.3969 -0.3852
 1296SOL     OW 5129   6.870   6.914   4.189  0.8793 -0.5622 -0.2270
 1296SOL    HW1 5130   6.843   6.953   4.106  2.0107 -0.8651 -0.7489
 1296SOL    HW2 5131   6.960   6.944   4.202  1.1269 -1.4852  0.2841
 1297SOL     OW 5132   1.277   7.715   2.053 -0.1437 -0.0789 -0.3961
 1297SOL    HW1 5133   1.199   7.680   2.095  0.2488 -2.1009 -1.2672
 1297SOL    HW2 5134   1.284   7.667   1.971  1.1195  1.2229 -1.0835
 1298SOL     OW 5135   2.085   1.651   1.435  0.5423 -0.5765 -0.0947
 1298SOL    HW1 5136   2.080   1.577   1.375  0.8278 -0.5981 -0.0909
 1298SOL    HW2 5137   2.033   1.719   1.394  0.9514 -0.5041 -0.4851
 1299SOL     OW 5138   8.082   6.096   2.332  0.0297  0.0144  0.3534
 1299SOL    HW1 5139   8.161   6.116   2.382 -0.4343  2.2343  0.2565
 1299SOL    HW2 5140   8.017   6.074   2.398  0.8712 -2.5050  0.4022
 1300SOL     OW 5141   3.575   4.098   5.071  0.3913 -0.4038  0.2936
 1300SOL    HW1 5142   3.652   4.108   5.014  0.6835 -0.9289  0.5945
 1300SOL    HW2 5143   3.530   4.020   5.038  0.8893 -1.0615  1.1560
 1301SOL     OW 5144   1.274   6.281   0.289  0.7196 -0.1145 -0.0946
 1301SOL    HW1 5145   1.253   6.282   0.382 -1.2786  1.2932 -0.5286
 1301SOL    HW2 5146   1.202   6.231   0.250  0.6608  0.7362 -1.0788
 1302SOL     OW 5147   6.689   1.706   2.428 -0.3777 -0.2894  0.5595
 1302SOL    HW1 5148   6.711   1.668   2.513  0.5686 -1.6372 -0.2698
 1302SOL    HW2 5149   6.593   1.708   2.427 -0.4055 -0.7034  1.4702
 1303SOL     OW 5150   0.853   4.112   5.196  0.2001  0.8543  0.1617
 1303SOL    HW1 5151   0.855   4.056   5.274  1.2312  0.8895  0.1609
 1303SOL    HW2 5152   0.816   4.056   5.127 -0.0600  0.6036  0.5055
 1304SOL     OW 5153   8.056   5.371   4.241  0.5877  0.0671 -0.3923
 1304SOL    HW1 5154   7.985   5.408   4.294  0.3298  0.1737 -0.8096
 1304SOL    HW2 5155   8.050   5.277   4.256  0.2970  0.0676 -0.4957
 1305SOL     OW 5156   4.734   0.447   3.396 -0.2650  0.5897  0.1922
 1305SOL    HW1 5157   4.781   0.530   3.393  0.2879  0.2985  0.8218
 1305SOL    HW2 5158   4.783   0.393   3.457 -0.6711 -0.1776 -0.1505
 1306SOL     OW 5159   7.078   6.787   7.049 -0.3006 -0.0419 -0.3675
 1306SOL    HW1 5160   7.081   6.764   6.956 -0.1081 -0.2536 -0.3099
 1306SOL    HW2 5161   7.140   6.859   7.058  0.1621 -0.4459 -0.2858
 1307SOL     OW 5162   1.415   6.054   6.134 -0.1510  0.0826 -0.0321
 1307SOL    HW1 5163   1.381   6.144   6.138  0.6355  0.3858 -0.0125
 1307SOL    HW2 5164   1.499   6.058   6.178 -0.3005 -0.7653  0.3377
 1308SOL     OW 5165   1.608   2.754   2.439 -0.2142  0.2853 -0.3642
 1308SOL    HW1 5166   1.641   2.839   2.467 -1.9084  1.0053 -0.5447
 1308SOL    HW2 5167   1.531   2.773   2.386  0.1189 -1.3043 -1.4850
 1309SOL     OW 5168   4.507   2.327   5.907 -0.3341  0.2567  0.1907
 1309SOL    HW1 5169   4.489   2.339   6.001 -0.8551 -0.1281  0.1415
 1309SOL    HW2 5170   4.451   2.392   5.864  1.4597  1.8770  0.2480
 1310SOL     OW 5171   2.505   5.571   0.583 -0.5441 -0.1136  0.2227
 1310SOL    HW1 5172   2.579   5.630   0.569 -0.7585  0.0761 -0.1054
 1310SOL    HW2 5173   2.534   5.487   0.546  1.1477 -1.2228  3.8466
 1311SOL     OW 5174   6.807   5.213   7.262 -0.1492 -0.2789 -0.3919
 1311SOL    HW1 5175   6.783   5.304   7.282  1.9747  0.4343 -0.8678
 1311SOL    HW2 5176   6.791   5.204   7.168  0.6209 -0.0461 -0.5541
 1312SOL     OW 5177   0.246   4.441   6.185 -0.0825  0.2677  0.0037
 1312SOL    HW1 5178   0.186   4.417   6.255 -0.4310 -0.0376 -0.3935
 1312SOL    HW2 5179   0.244   4.537   6.182  0.2981  0.2994  0.7211
 1313SOL     OW 5180   7.222   7.330   0.450 -0.2083 -0.8691 -0.4714
 1313SOL    HW1 5181   7.247   7.395   0.516 -1.0593 -1.3504  0.3366
 1313SOL    HW2 5182   7.127   7.322   0.459 -0.4707 -0.3200 -2.3367
 1314SOL     OW 5183   1.547   5.366   2.333  0.0392  0.6946  0.0764
 1314SOL    HW1 5184   1.523   5.421   2.259  0.5311  0.1074 -0.5193
 1314SOL    HW2 5185   1.617   5.310   2.300 -1.3208 -1.1929  0.2879
 1315SOL     OW 5186   4.684   1.244   4.323  0.3660  0.1608 -0.2790
 1315SOL    HW1 5187   4.622   1.317   4.320  1.3799  1.0019 -1.1581
 1315SOL    HW2 5188   4.718   1.238   4.234  0.3535 -1.3587 -0.2079
 1316SOL     OW 5189   5.349   2.351   3.974  0.4500  0.0793  0.5796
 1316SOL    HW1 5190   5.256   2.330   3.986  0.1467  1.6857  1.1255
 1316SOL    HW2 5191   5.356   2.443   3.997  1.9137  0.3716 -0.9565
 1317SOL     OW 5192   0.539   3.878   8.197  0.0283 -0.3255  0.3045
 1317SOL    HW1 5193   0.622   3.889   8.152  0.0280 -1.3240  0.0403
 1317SOL    HW2 5194   0.500   3.800   8.157 -0.8558 -0.0891  0.6890
 1318SOL     OW 5195   0.242   2.277   5.917 -0.0048 -0.2512 -0.0965
 1318SOL    HW1 5196   0.202   2.229   5.989 -0.4207  0.8060  0.3957
 1318SOL    HW2 5197   0.233   2.219   5.841  1.0284 -1.6359  0.8292
 1319SOL     OW 5198   2.687   0.050   5.302  0.2000 -0.2058 -0.1996
 1319SOL    HW1 5199   2.657   0.139   5.320  0.6784 -0.6781  3.4270
 1319SOL    HW2 5200   2.782   0.057   5.296  0.1167 -0.2239 -1.7905
 1320SOL     OW 5201   3.071   7.564   7.821  0.3854  0.1902 -0.6902
 1320SOL    HW1 5202   3.165   7.546   7.827  0.1148 -0.3812  3.7026
 1320SOL    HW2 5203   3.035   7.490   7.771  1.8926 -1.2841  0.3478
 1321SOL     OW 5204   2.271   7.388   6.195  0.8041  0.4110 -0.1748
 1321SOL    HW1 5205   2.217   7.333   6.138  0.9916  0.5450 -0.4823
 1321SOL    HW2 5206   2.357   7.346   6.194  0.5932 -0.0712  0.6882
 1322SOL     OW 5207   2.732   8.283   3.838  0.2253 -0.3994  0.0406
 1322SOL    HW1 5208   2.747   8.276   3.933 -1.8712 -0.3633  0.3815
 1322SOL    HW2 5209   2.664   8.350   3.829 -0.5433 -1.3523 -1.4025
 1323SOL     OW 5210   5.219   7.012   4.092  0.1091  0.4373  0.2559
 1323SOL    HW1 5211   5.259   6.974   4.013 -0.9345 -1.1641  0.4665
 1323SOL    HW2 5212   5.290   7.012   4.156  0.8897  1.4908 -0.5989
 1324SOL     OW 5213   0.100   7.937   7.341 -0.2505 -0.2163 -0.0978
 1324SOL    HW1 5214   0.194   7.921   7.344 -0.2139  0.0705  0.3944
 1324SOL    HW2 5215   0.078   7.941   7.248 -0.2121 -2.8312 -0.2437
 1325SOL     OW 5216   0.225   1.299   3.274  0.0978  0.6067  0.5372
 1325SOL    HW1 5217   0.202   1.265   3.361  0.8163 -0.9540  0.1364
 1325SOL    HW2 5218   0.197   1.230   3.213  1.0242  1.0031 -0.3412
 1326SOL     OW 5219   7.578   6.272   6.473  0.0543  0.3433 -0.4357
 1326SOL    HW1 5220   7.590   6.204   6.407 -0.8876 -0.5362  0.2811
 1326SOL    HW2 5221   7.630   6.346   6.441  1.0926 -0.7084 -1.2225
 1327SOL     OW 5222   6.688   6.579   5.703  0.0787 -0.1569  0.2082
 1327SOL    HW1 5223   6.642   6.638   5.643  0.1063  1.0512  1.3660
 1327SOL    HW2 5224   6.627   6.569   5.777 -0.1672 -2.0271 -0.2265
 1328SOL     OW 5225   7.167   3.165   0.636  0.0324 -0.1436 -0.3111
 1328SOL    HW1 5226   7.246   3.213   0.614  0.3025  0.5503  2.0479
 1328SOL    HW2 5227   7.114   3.227   0.686 -3.0079  0.1416 -3.6173
 1329SOL     OW 5228   8.158   6.133   6.088  0.3396 -0.3797  0.1665
 1329SOL    HW1 5229   8.249   6.150   6.063  0.0340  2.8114  0.9146
 1329SOL    HW2 5230   8.106   6.172   6.018 -0.4465 -0.9814  0.4133
 1330SOL     OW 5231   0.161   5.183   5.732  0.7062  0.3414 -0.0871
 1330SOL    HW1 5232   0.138   5.193   5.824  0.0691  0.3676 -0.2473
 1330SOL    HW2 5233   0.081   5.202   5.685  0.8998 -0.1531 -0.6309
 1331SOL     OW 5234   5.546   1.113   3.656 -0.2992 -0.5358  0.3013
 1331SOL    HW1 5235   5.536   1.198   3.699  0.2129  0.8060 -2.1051
 1331SOL    HW2 5236   5.485   1.055   3.702  0.6530  0.6449  3.1511
 1332SOL     OW 5237   5.426   3.113   5.872 -0.1989  0.5068  0.9962
 1332SOL    HW1 5238   5.414   3.051   5.800 -0.5767  1.0077  0.6216
 1332SOL    HW2 5239   5.521   3.126   5.876 -0.0758 -0.4876  1.4191
 1333SOL     OW 5240   3.511   4.646   1.007 -0.4118  0.4091 -0.6493
 1333SOL    HW1 5241   3.578   4.647   0.938  0.8687 -0.5682  0.5444
 1333SOL    HW2 5242   3.433   4.612   0.964  1.2237 -3.2344 -0.9526
 1334SOL     OW 5243   5.102   6.466   5.017  0.0469 -0.4867 -0.4241
 1334SOL    HW1 5244   5.183   6.424   4.988 -0.3247 -1.6669  0.1710
 1334SOL    HW2 5245   5.111   6.558   4.993  1.8660 -0.4677  0.2661
 1335SOL     OW 5246   5.352   6.138   4.596  0.1523 -0.3741  0.6190
 1335SOL    HW1 5247   5.339   6.045   4.579  0.0388 -0.5209  1.4871
 1335SOL    HW2 5248   5.289   6.182   4.540  1.6282 -0.7154 -1.3764
 1336SOL     OW 5249   2.454   2.868   8.129  0.1634 -0.1071 -0.2940
 1336SOL    HW1 5250   2.396   2.915   8.188  0.6954  0.6189 -0.3421
 1336SOL    HW2 5251   2.419   2.886   8.042  0.8591  0.8857 -0.3667
 1337SOL     OW 5252   4.673   3.960   2.752 -0.1181  0.1951 -0.5198
 1337SOL    HW1 5253   4.677   4.046   2.709 -0.3484  0.5753  0.2024
 1337SOL    HW2 5254   4.582   3.952   2.780  0.3924  0.7177  1.4016
 1338SOL     OW 5255   2.366   1.322   1.373 -0.1815 -0.3892  0.2441
 1338SOL    HW1 5256   2.430   1.358   1.312 -0.9691 -0.0861 -0.4083
 1338SOL    HW2 5257   2.316   1.259   1.321 -1.7344  0.8491  0.2226
 1339SOL     OW 5258   1.209   2.976   0.685  0.0620  0.2446 -0.7171
 1339SOL    HW1 5259   1.260   3.051   0.715  0.5180  0.6538 -2.4664
 1339SOL    HW2 5260   1.220   2.975   0.590 -2.5986 -0.1123 -1.0625
 1340SOL     OW 5261   5.764   4.217   0.286 -0.0445  0.5790  0.1907
 1340SOL    HW1 5262   5.700   4.234   0.355  1.3726 -1.9682  2.2239
 1340SOL    HW2 5263   5.712   4.191   0.210 -1.4406 -2.2300  2.0452
 1341SOL     OW 5264   3.699   3.539   2.549  0.0106  0.2052  0.3749
 1341SOL    HW1 5265   3.634   3.603   2.576 -0.3002 -0.0981  0.3472
 1341SOL    HW2 5266   3.712   3.556   2.455  0.9247  1.1107  0.6500
 1342SOL     OW 5267   6.758   1.617   1.923  0.0424 -0.0210 -0.4091
 1342SOL    HW1 5268   6.778   1.611   2.016  1.2933 -1.1880 -0.7357
 1342SOL    HW2 5269   6.678   1.565   1.912  1.1855 -1.8419 -0.3478
 1343SOL     OW 5270   7.262   0.617   4.987  0.2447 -0.4724 -0.1851
 1343SOL    HW1 5271   7.342   0.566   5.001 -1.1622 -2.8800 -0.5041
 1343SOL    HW2 5272   7.205   0.590   5.060 -1.3171 -1.0085 -1.5813
 1344SOL     OW 5273   5.177   2.114   0.554 -0.5381  0.1355 -0.4159
 1344SOL    HW1 5274   5.272   2.125   0.556 -0.5089  0.1085 -1.2363
 1344SOL    HW2 5275   5.146   2.152   0.636  0.0689  1.3021 -0.7172
 1345SOL     OW 5276   2.818   3.328   3.696  0.0075  0.6182  0.0557
 1345SOL    HW1 5277   2.895   3.350   3.642 -0.5860  1.0591 -0.6145
 1345SOL    HW2 5278   2.745   3.373   3.653 -0.6639  0.0264  0.5769
 1346SOL     OW 5279   5.824   2.076   3.053  0.2368  0.2658 -0.1016
 1346SOL    HW1 5280   5.838   2.168   3.074 -1.6969 -0.0075  2.6145
 1346SOL    HW2 5281   5.729   2.063   3.060  0.5873 -2.1733  0.6916
 1347SOL     OW 5282   4.717   1.859   5.261 -0.1695 -0.0030 -0.2813
 1347SOL    HW1 5283   4.757   1.851   5.348  0.8480 -0.3028 -0.7667
 1347SOL    HW2 5284   4.632   1.899   5.277 -0.4630 -1.1048  0.9806
 1348SOL     OW 5285   1.248   1.482   7.118  0.4831  0.7433  0.3882
 1348SOL    HW1 5286   1.228   1.436   7.200 -0.4489  1.6667  0.6775
 1348SOL    HW2 5287   1.248   1.413   7.052 -0.8291  0.2941  0.8376
 1349SOL     OW 5288   7.440   7.824   4.292  0.1818 -0.6835  0.1804
 1349SOL    HW1 5289   7.483   7.758   4.347  1.2312 -0.1319  0.0256
 1349SOL    HW2 5290   7.435   7.784   4.205  0.8763 -0.5422  0.0721
 1350SOL     OW 5291   1.811   7.779   1.348 -0.1561  0.4750  0.3424
 1350SOL    HW1 5292   1.868   7.841   1.304  0.4429  1.0080  1.8291
 1350SOL    HW2 5293   1.819   7.801   1.441 -0.9076 -1.0101  0.7744
 1351SOL     OW 5294   7.314   0.422   2.524 -0.6519  0.7113  0.5848
 1351SOL    HW1 5295   7.261   0.444   2.447  0.0047 -0.3399 -0.1699
 1351SOL    HW2 5296   7.382   0.489   2.527 -1.2934  1.3590  0.8586
 1352SOL     OW 5297   6.274   6.134   7.778 -0.7105  0.1569  0.0916
 1352SOL    HW1 5298   6.343   6.095   7.831  0.0549  0.0718 -0.9577
 1352SOL    HW2 5299   6.205   6.068   7.775  0.9465 -1.5131 -2.4316
 1353SOL     OW 5300   6.820   6.991   0.527  0.0308 -0.1639 -0.0356
 1353SOL    HW1 5301   6.873   6.930   0.579  0.1908 -0.2063 -0.2478
 1353SOL    HW2 5302   6.845   7.078   0.560  1.0688 -0.1217 -0.8997
 1354SOL     OW 5303   1.307   1.951   5.937 -0.1195 -0.2457 -0.5783
 1354SOL    HW1 5304   1.365   1.884   5.902 -0.0043  0.6883 -2.2653
 1354SOL    HW2 5305   1.221   1.910   5.938  0.3069 -1.1035  0.3870
 1355SOL     OW 5306   0.978   6.658   7.409  0.0705 -0.0108 -0.5079
 1355SOL    HW1 5307   1.057   6.614   7.378  1.1319 -0.0188  2.0775
 1355SOL    HW2 5308   1.003   6.750   7.418 -0.9858  0.4515 -2.1236
 1356SOL     OW 5309   3.166   1.034   6.463  0.7428  0.1390 -0.1218
 1356SOL    HW1 5310   3.197   1.044   6.373 -2.0944  1.0281 -1.0536
 1356SOL    HW2 5311   3.217   0.960   6.498  3.1313  0.9151 -1.8555
 1357SOL     OW 5312   4.263   4.088   5.538 -0.2358 -0.0539 -0.4928
 1357SOL    HW1 5313   4.243   3.999   5.510 -0.4866  0.3621 -1.6357
 1357SOL    HW2 5314   4.351   4.105   5.504 -0.0059 -0.0161  0.1058
 1358SOL     OW 5315   2.243   1.474   3.406 -0.0524  0.4327 -0.3906
 1358SOL    HW1 5316   2.160   1.447   3.443  0.2750 -1.3277 -0.9079
 1358SOL    HW2 5317   2.253   1.421   3.327  1.2544  1.0853 -0.6866
 1359SOL     OW 5318   4.617   6.152   3.413  0.1650  0.3836  0.2037
 1359SOL    HW1 5319   4.525   6.143   3.392  0.0801  0.0616  0.6920
 1359SOL    HW2 5320   4.627   6.106   3.497  1.3109 -2.0831 -1.2248
 1360SOL     OW 5321   5.887   7.299   7.434  0.1508 -0.0542 -0.1462
 1360SOL    HW1 5322   5.863   7.282   7.525  1.0696 -0.0351  0.0959
 1360SOL    HW2 5323   5.924   7.217   7.402  1.6376  0.5125  0.0819
 1361SOL     OW 5324   1.667   8.019   3.261 -0.2300  0.1082  0.1868
 1361SOL    HW1 5325   1.583   7.993   3.222  0.1315  1.0779 -1.3000
 1361SOL    HW2 5326   1.654   8.110   3.287  0.5136  0.4127 -0.4992
 1362SOL     OW 5327   2.965   3.590   6.724  0.5697  0.3883 -0.0137
 1362SOL    HW1 5328   3.028   3.595   6.652  0.7018  0.6382  0.1152
 1362SOL    HW2 5329   3.014   3.549   6.795  0.5876  0.5856  0.0878
 1363SOL     OW 5330   8.306   7.432   6.328 -0.0927 -0.2084 -0.2257
 1363SOL    HW1 5331   8.262   7.499   6.275  0.9422 -1.4658 -2.7528
 1363SOL    HW2 5332   8.359   7.383   6.266  1.5616 -1.4620  2.0790
 1364SOL     OW 5333   6.863   3.805   0.418 -0.2278  0.3405  0.1037
 1364SOL    HW1 5334   6.829   3.726   0.378  0.8536 -0.5847  0.9775
 1364SOL    HW2 5335   6.867   3.785   0.512  2.1766  0.6173  0.0797
 1365SOL     OW 5336   6.024   5.704   6.344 -0.6628  0.6071 -0.6943
 1365SOL    HW1 5337   6.067   5.645   6.406 -2.3429  0.0652 -0.0056
 1365SOL    HW2 5338   6.087   5.717   6.274 -0.0980 -1.6372 -0.6190
 1366SOL     OW 5339   1.224   6.676   5.169 -0.1895 -0.6954 -0.1017
 1366SOL    HW1 5340   1.302   6.729   5.152  0.2133 -1.4761 -0.7035
 1366SOL    HW2 5341   1.154   6.740   5.181  0.4245 -0.0072 -0.1456
 1367SOL     OW 5342   6.263   5.794   6.158  0.0753  0.3835  0.3152
 1367SOL    HW1 5343   6.266   5.699   6.145  2.2796  0.4826 -0.1018
 1367SOL    HW2 5344   6.273   5.830   6.070 -1.4758  1.0182  0.3853
 1368SOL     OW 5345   2.828   6.707   8.237 -0.6478 -0.2296  0.1927
 1368SOL    HW1 5346   2.884   6.704   8.316  0.7145  0.4559 -0.7269
 1368SOL    HW2 5347   2.852   6.627   8.189 -0.7877 -0.1711  0.0255
 1369SOL     OW 5348   7.138   5.408   2.734 -0.2457 -0.4837 -0.2452
 1369SOL    HW1 5349   7.191   5.329   2.743  0.7145  0.2235  0.4105
 1369SOL    HW2 5350   7.162   5.462   2.809  0.1806  1.0393 -1.4375
 1370SOL     OW 5351   2.769   3.014   6.976 -0.1134 -0.6489  0.1892
 1370SOL    HW1 5352   2.684   2.994   6.937 -1.1494 -0.4722  2.2598
 1370SOL    HW2 5353   2.833   2.984   6.912 -1.7238  1.6858 -2.6223
 1371SOL     OW 5354   2.112   3.504   6.487  0.2446  0.0889  0.7078
 1371SOL    HW1 5355   2.031   3.534   6.445 -0.2217 -0.1188  1.4528
 1371SOL    HW2 5356   2.181   3.524   6.423 -0.6414 -1.7576 -0.8823
 1372SOL     OW 5357   2.383   4.791   4.173 -0.4309 -0.0412  0.0218
 1372SOL    HW1 5358   2.397   4.885   4.161 -0.6162  0.2940  2.2644
 1372SOL    HW2 5359   2.293   4.776   4.144 -0.0905  0.2688 -1.2565
 1373SOL     OW 5360   5.322   2.576   1.345 -0.5770 -0.6301  0.5707
 1373SOL    HW1 5361   5.337   2.669   1.364  0.1398 -0.7555  0.6234
 1373SOL    HW2 5362   5.275   2.544   1.421 -0.8683 -0.3006  0.5335
 1374SOL     OW 5363   5.236   1.826   7.100  1.0401  0.2882 -0.5288
 1374SOL    HW1 5364   5.238   1.738   7.137  2.5209  0.7057  0.4090
 1374SOL    HW2 5365   5.276   1.881   7.168  0.4612  1.6210 -1.2620
 1375SOL     OW 5366   6.584   3.827   5.175 -0.4261 -0.1341 -0.2894
 1375SOL    HW1 5367   6.590   3.733   5.194 -0.0883  0.2046  1.3299
 1375SOL    HW2 5368   6.673   3.852   5.149 -0.7271 -0.4416 -1.6910
 1376SOL     OW 5369   4.675   8.238   1.448  0.1589 -0.1220 -0.0324
 1376SOL    HW1 5370   4.679   8.280   1.534  0.8126  1.4037 -0.7868
 1376SOL    HW2 5371   4.763   8.204   1.433  0.3268  0.5297 -0.5430
 1377SOL     OW 5372   2.115   2.403   0.001 -0.5070 -1.2461 -0.2696
 1377SOL    HW1 5373   2.165   2.352   0.065 -0.5510  1.0264  1.6118
 1377SOL    HW2 5374   2.150   2.492   0.008 -2.1098 -0.4680 -1.7552
 1378SOL     OW 5375   8.184   2.523   1.282  0.2755 -0.2774  0.2971
 1378SOL    HW1 5376   8.278   2.520   1.263  0.1571 -2.2774 -0.1151
 1378SOL    HW2 5377   8.158   2.612   1.259  2.2895  0.6659  1.4869
 1379SOL     OW 5378   8.009   1.357   1.406  0.3112 -0.4341  0.1666
 1379SOL    HW1 5379   8.104   1.361   1.393  0.1309  1.4170 -0.7302
 1379SOL    HW2 5380   7.991   1.264   1.418  2.0368 -0.9982 -1.3380
 1380SOL     OW 5381   5.874   4.720   6.854  0.3402  0.1043  0.0157
 1380SOL    HW1 5382   5.954   4.759   6.821  0.7385 -1.1806 -0.5888
 1380SOL    HW2 5383   5.846   4.660   6.785  0.7430 -2.0335  1.6440
 1381SOL     OW 5384   6.536   0.955   6.747  0.2139 -0.0308 -0.0598
 1381SOL    HW1 5385   6.481   0.886   6.783 -0.2661  0.6782  0.5940
 1381SOL    HW2 5386   6.620   0.946   6.792 -0.2907  0.6693  1.0461
 1382SOL     OW 5387   0.427   4.633   4.583 -0.3379 -0.1982 -0.3491
 1382SOL    HW1 5388   0.484   4.559   4.605  0.7196  1.1072  1.4679
 1382SOL    HW2 5389   0.390   4.610   4.498  1.8421 -1.7097 -0.9452
 1383SOL     OW 5390   0.594   4.946   3.938 -0.0954 -1.0425  0.7791
 1383SOL    HW1 5391   0.552   4.861   3.925 -0.6402 -0.6807  0.1177
 1383SOL    HW2 5392   0.524   5.009   3.927  0.7034 -0.3999 -0.8751
 1384SOL     OW 5393   6.851   1.086   4.305  1.1762 -0.3365  0.6084
 1384SOL    HW1 5394   6.864   1.171   4.346 -0.1387  0.4240 -0.4691
 1384SOL    HW2 5395   6.821   1.108   4.216 -2.3839 -1.8703  1.3585
 1385SOL     OW 5396   5.918   2.140   1.791  0.5568  0.6303  0.7325
 1385SOL    HW1 5397   5.992   2.177   1.840 -0.0865  1.7888  0.8553
 1385SOL    HW2 5398   5.921   2.185   1.706 -0.1433  0.8577  0.8247
 1386SOL     OW 5399   5.355   4.162   3.060 -0.4052  0.1715 -0.0743
 1386SOL    HW1 5400   5.283   4.222   3.081 -0.1261  0.2614  0.6484
 1386SOL    HW2 5401   5.401   4.149   3.144  0.0913 -0.3151 -0.4169
 1387SOL     OW 5402   4.037   4.002   6.079 -0.5091  0.2817  0.2218
 1387SOL    HW1 5403   4.032   4.071   6.145  1.1339  0.5903  0.0480
 1387SOL    HW2 5404   4.044   3.921   6.129 -0.7455  0.3895  0.4283
 1388SOL     OW 5405   0.095   0.454   7.322  0.3352 -0.2741  0.4133
 1388SOL    HW1 5406   0.133   0.403   7.394  0.1734 -0.3660  0.4342
 1388SOL    HW2 5407   0.086   0.392   7.250 -1.3046 -0.6633  0.9364
 1389SOL     OW 5408   4.979   7.612   6.390  0.2056 -0.3178  0.2328
 1389SOL    HW1 5409   4.898   7.595   6.438  2.1845 -0.9381  3.5682
 1389SOL    HW2 5410   4.967   7.698   6.350 -1.7379  0.0076  1.4787
 1390SOL     OW 5411   2.995   3.044   1.504  0.2437  0.0801  0.3674
 1390SOL    HW1 5412   2.997   3.139   1.489 -1.6743 -0.0772 -0.9930
 1390SOL    HW2 5413   3.080   3.025   1.544  0.9990  2.2422 -0.1230
 1391SOL     OW 5414   3.100   6.103   8.127 -0.1138 -0.7334 -0.6840
 1391SOL    HW1 5415   3.154   6.110   8.206  0.6887 -3.0333 -1.0015
 1391SOL    HW2 5416   3.074   6.011   8.123 -0.7318 -0.4962 -2.7311
 1392SOL     OW 5417   2.960   4.782   7.410 -0.0961 -0.2327  0.0259
 1392SOL    HW1 5418   2.937   4.741   7.494  1.4573 -0.3779  0.3956
 1392SOL    HW2 5419   3.055   4.794   7.415  0.2096 -1.5214 -2.3023
 1393SOL     OW 5420   1.327   1.049   1.471  0.1785 -0.5658 -0.2871
 1393SOL    HW1 5421   1.284   1.120   1.423  1.0633  1.3326  1.6427
 1393SOL    HW2 5422   1.420   1.068   1.464  0.3661 -0.7819  1.3530
 1394SOL     OW 5423   5.467   7.132   4.769 -0.6137 -0.1462  0.0786
 1394SOL    HW1 5424   5.460   7.228   4.766 -2.4067 -0.3080 -1.6145
 1394SOL    HW2 5425   5.560   7.116   4.787 -0.4740  1.9179  1.3411
 1395SOL     OW 5426   2.107   7.444   0.902 -0.1499 -0.1294 -0.3768
 1395SOL    HW1 5427   2.174   7.451   0.834 -0.6870 -0.4220 -0.9410
 1395SOL    HW2 5428   2.024   7.453   0.855 -0.5373 -0.7182  0.1854
 1396SOL     OW 5429   6.488   1.245   4.314 -0.1009  0.2681  0.5709
 1396SOL    HW1 5430   6.441   1.308   4.260 -2.0111  0.2932  2.1902
 1396SOL    HW2 5431   6.562   1.294   4.349  0.8473  0.3934 -1.5782
 1397SOL     OW 5432   7.084   0.160   4.422 -0.2830  0.0616  0.3336
 1397SOL    HW1 5433   7.109   0.072   4.394  1.2705  0.9308 -1.0774
 1397SOL    HW2 5434   7.070   0.208   4.341 -1.0718  1.1484  1.0952
 1398SOL     OW 5435   4.761   4.665   0.722  0.1727 -0.5468 -0.5692
 1398SOL    HW1 5436   4.809   4.598   0.674  1.8867  1.1370 -1.2443
 1398SOL    HW2 5437   4.813   4.679   0.802  0.1485  0.4018 -0.7162
 1399SOL     OW 5438   8.214   2.504   1.798  0.2517  0.0025 -0.7851
 1399SOL    HW1 5439   8.301   2.479   1.829 -0.1926 -0.0789  0.4249
 1399SOL    HW2 5440   8.188   2.432   1.740  1.0538  0.1030 -1.2684
 1400SOL     OW 5441   2.927   0.111   3.495  0.2613 -0.3035 -0.1339
 1400SOL    HW1 5442   2.857   0.048   3.510  0.2626 -0.0757  0.9224
 1400SOL    HW2 5443   2.963   0.126   3.582  1.5248 -0.3044 -0.6498
 1401SOL     OW 5444   2.230   4.800   7.462  0.0065 -0.3930 -0.2493
 1401SOL    HW1 5445   2.178   4.812   7.383 -0.5443 -1.0611  0.0081
 1401SOL    HW2 5446   2.175   4.747   7.520 -0.1527  1.2237  1.1169
 1402SOL     OW 5447   7.887   0.584   6.854 -0.6220 -0.2411  0.8809
 1402SOL    HW1 5448   7.918   0.628   6.933 -2.0064  1.4270  0.5321
 1402SOL    HW2 5449   7.949   0.609   6.786  1.0298 -2.3268  1.5763
 1403SOL     OW 5450   2.225   1.079   0.938 -0.0627 -0.5455 -0.2898
 1403SOL    HW1 5451   2.297   1.067   1.000 -0.1536 -0.6970 -0.2128
 1403SOL    HW2 5452   2.205   1.172   0.942 -0.0581 -0.5522 -0.1021
 1404SOL     OW 5453   1.058   1.362   3.633  0.1684  0.1640  0.3667
 1404SOL    HW1 5454   1.033   1.450   3.663 -3.1919 -1.2226  1.8170
 1404SOL    HW2 5455   1.002   1.346   3.557  0.3405 -0.9421  0.4698
 1405SOL     OW 5456   1.239   7.493   5.088  0.5848 -0.9989 -0.2755
 1405SOL    HW1 5457   1.282   7.509   5.172  0.8223  1.1553 -0.7790
 1405SOL    HW2 5458   1.305   7.450   5.034  0.5901 -1.9467  0.4906
 1406SOL     OW 5459   2.455   5.981   0.087 -0.7225  0.3859  0.0680
 1406SOL    HW1 5460   2.359   5.984   0.082 -0.6718  2.6776  0.0322
 1406SOL    HW2 5461   2.473   5.949   0.175 -1.5030 -1.6997 -0.4924
 1407SOL     OW 5462   2.384   0.346   3.059 -0.9407 -0.0578  0.2640
 1407SOL    HW1 5463   2.383   0.256   3.025 -0.2967  0.1734 -0.3896
 1407SOL    HW2 5464   2.296   0.360   3.092 -1.7389 -0.1558 -1.7387
 1408SOL     OW 5465   6.327   1.816   4.974 -0.3223  0.0830  0.7063
 1408SOL    HW1 5466   6.248   1.785   4.928 -0.2120 -0.4128  0.8547
 1408SOL    HW2 5467   6.298   1.829   5.064  0.0812 -1.3576  1.0637
 1409SOL     OW 5468   7.608   4.018   3.576  0.2892 -0.4119 -0.3646
 1409SOL    HW1 5469   7.675   3.984   3.635  0.4990  1.2426  0.3657
 1409SOL    HW2 5470   7.538   3.952   3.580  0.5424 -0.5986  1.2881
 1410SOL     OW 5471   2.979   7.734   2.429  0.1029  0.1057  0.5807
 1410SOL    HW1 5472   2.895   7.696   2.403 -0.1024  0.4824  0.7035
 1410SOL    HW2 5473   3.043   7.688   2.375 -0.1786 -0.2073  0.5138
 1411SOL     OW 5474   1.387   6.375   0.884 -0.1822 -0.0086 -0.1564
 1411SOL    HW1 5475   1.297   6.390   0.857 -0.4221  2.2916  1.7876
 1411SOL    HW2 5476   1.440   6.416   0.816 -0.5315 -1.8427 -1.5904
 1412SOL     OW 5477   1.948   5.442   8.097  0.0227  0.1646 -0.0597
 1412SOL    HW1 5478   1.890   5.499   8.046  0.9251  0.7663 -0.4326
 1412SOL    HW2 5479   2.026   5.432   8.042  1.0734  0.9608  1.2523
 1413SOL     OW 5480   2.112   2.142   1.304 -0.7695  0.4314  0.5630
 1413SOL    HW1 5481   2.087   2.148   1.396 -0.2571 -0.9551  0.8109
 1413SOL    HW2 5482   2.175   2.070   1.301  1.3913  2.2902 -0.4083
 1414SOL     OW 5483   0.268   4.881   4.632  0.2740 -0.0400  0.7193
 1414SOL    HW1 5484   0.339   4.866   4.694  0.8372 -0.1462  0.0536
 1414SOL    HW2 5485   0.238   4.793   4.609 -1.0464  0.0229  2.0950
 1415SOL     OW 5486   5.070   4.096   2.314  0.4521  0.1268  0.3357
 1415SOL    HW1 5487   5.018   4.027   2.274  0.2119  0.6468 -0.2505
 1415SOL    HW2 5488   5.156   4.056   2.328  0.3777 -0.2191 -0.1971
 1416SOL     OW 5489   4.905   6.506   5.202 -0.2555  0.0338  0.2045
 1416SOL    HW1 5490   4.967   6.493   5.131  1.3340  0.0267  1.5753
 1416SOL    HW2 5491   4.835   6.443   5.185  0.7259 -0.8175 -0.6748
 1417SOL     OW 5492   3.893   5.233   6.038 -0.3459  0.0552 -0.5994
 1417SOL    HW1 5493   3.798   5.234   6.052 -0.1762  0.4685  0.5874
 1417SOL    HW2 5494   3.905   5.182   5.958 -1.5333 -0.5094 -0.4314
 1418SOL     OW 5495   1.283   2.342   7.839  0.4778  0.0538 -0.2121
 1418SOL    HW1 5496   1.241   2.256   7.828 -2.3491  1.4908 -1.1508
 1418SOL    HW2 5497   1.279   2.359   7.933  0.1386 -0.3931 -0.1455
 1419SOL     OW 5498   4.763   5.964   0.208 -0.4334  0.4872 -0.2477
 1419SOL    HW1 5499   4.678   5.946   0.247 -0.3519 -0.7785 -0.6197
 1419SOL    HW2 5500   4.744   6.017   0.130 -0.6813  2.0775  0.8829
 1420SOL     OW 5501   2.904   1.102   6.252  0.1766  0.0867  0.3317
 1420SOL    HW1 5502   2.911   1.039   6.323  0.7400  1.6662  1.7041
 1420SOL    HW2 5503   2.989   1.098   6.208 -0.1351 -0.8136 -0.2066
 1421SOL     OW 5504   1.921   2.078   4.169  0.2522  0.2445  0.1544
 1421SOL    HW1 5505   1.998   2.027   4.195  0.8903  2.2759  2.4395
 1421SOL    HW2 5506   1.847   2.020   4.186  1.1020 -0.6901  0.6861
 1422SOL     OW 5507   0.981   2.214   3.957  0.3290 -0.6743 -0.4457
 1422SOL    HW1 5508   0.989   2.299   3.999  1.5194 -0.3263 -1.3602
 1422SOL    HW2 5509   0.948   2.156   4.026  1.4058  0.0762  0.7136
 1423SOL     OW 5510   1.953   3.162   4.140 -0.3477  0.2140  0.1425
 1423SOL    HW1 5511   1.985   3.077   4.110  1.3304  0.3771  1.3854
 1423SOL    HW2 5512   2.024   3.223   4.119 -0.9787  1.0743  0.4849
 1424SOL     OW 5513   1.600   6.343   5.966  0.5001  0.1919 -0.1029
 1424SOL    HW1 5514   1.586   6.248   5.969  0.3319  0.1778 -0.9975
 1424SOL    HW2 5515   1.527   6.375   5.912  1.4616  0.6310 -1.1596
 1425SOL     OW 5516   6.575   1.017   7.513 -0.2110  0.0611  0.4376
 1425SOL    HW1 5517   6.566   1.077   7.586  0.8308 -0.3229  0.8897
 1425SOL    HW2 5518   6.539   0.934   7.545 -0.6818  0.1543  0.1662
 1426SOL     OW 5519   5.244   4.206   7.741  0.0924  0.3372  0.0082
 1426SOL    HW1 5520   5.219   4.262   7.815  0.3331  0.1752  0.2104
 1426SOL    HW2 5521   5.232   4.117   7.773  0.7444  0.2613  0.0358
 1427SOL     OW 5522   4.738   8.017   4.445  0.1841 -0.1150  0.0444
 1427SOL    HW1 5523   4.725   7.937   4.497  2.1966 -0.0157  0.7274
 1427SOL    HW2 5524   4.799   8.070   4.497  1.7197  0.2708 -2.1094
 1428SOL     OW 5525   0.132   7.886   5.233 -0.3477 -0.4230  0.2831
 1428SOL    HW1 5526   0.069   7.934   5.287 -1.1218  1.0044 -1.8271
 1428SOL    HW2 5527   0.191   7.954   5.200 -1.5479 -0.8662 -2.8815
 1429SOL     OW 5528   2.738   0.189   1.754 -0.1529 -0.1871  0.1587
 1429SOL    HW1 5529   2.802   0.165   1.821 -0.3610  0.9000  0.7529
 1429SOL    HW2 5530   2.668   0.125   1.763  0.6218 -1.0848 -0.1659
 1430SOL     OW 5531   5.543   0.926   7.048 -0.5356  0.2078 -0.1768
 1430SOL    HW1 5532   5.548   1.013   7.089 -0.6905 -0.1281  0.5711
 1430SOL    HW2 5533   5.455   0.923   7.009  0.3777  1.3286 -2.3789
 1431SOL     OW 5534   5.557   1.781   4.789 -0.1990 -0.1513  0.1529
 1431SOL    HW1 5535   5.556   1.748   4.879  0.3090 -0.6608 -0.0224
 1431SOL    HW2 5536   5.465   1.787   4.765 -0.3125 -1.0311  0.3426
 1432SOL     OW 5537   5.984   6.546   5.991 -0.6460 -0.5677 -0.4824
 1432SOL    HW1 5538   5.917   6.487   5.956 -0.9013  1.7742 -4.0902
 1432SOL    HW2 5539   5.935   6.623   6.021  0.0984 -0.3467  0.1682
 1433SOL     OW 5540   2.361   5.125   3.144  0.7168  0.3448 -0.0715
 1433SOL    HW1 5541   2.441   5.175   3.129 -0.0477  1.3431 -0.9807
 1433SOL    HW2 5542   2.366   5.052   3.082  0.0150  1.5301 -1.5641
 1434SOL     OW 5543   0.230   2.676   0.194 -0.1920 -0.3489 -0.0115
 1434SOL    HW1 5544   0.253   2.583   0.188 -1.0564 -0.5702  0.1334
 1434SOL    HW2 5545   0.209   2.690   0.286  1.2926  0.3152  0.2430
 1435SOL     OW 5546   0.372   4.673   6.011  0.3179 -0.0277 -0.1812
 1435SOL    HW1 5547   0.329   4.615   5.948 -0.4702 -0.6680  0.9392
 1435SOL    HW2 5548   0.300   4.721   6.052  0.9185  1.3008 -0.6404
 1436SOL     OW 5549   8.092   5.938   5.237  0.2485  0.5060  0.1320
 1436SOL    HW1 5550   8.081   6.022   5.280  0.1879  1.0631 -0.9407
 1436SOL    HW2 5551   8.004   5.901   5.233  0.1396  0.7926 -0.1764
 1437SOL     OW 5552   5.039   0.474   3.843  0.3558  0.0863  0.3454
 1437SOL    HW1 5553   4.979   0.433   3.905  0.0894 -0.1605 -0.0758
 1437SOL    HW2 5554   5.124   0.437   3.863  0.3465  0.3329  0.8522
 1438SOL     OW 5555   7.872   3.941   5.288 -0.4215 -0.0891  0.1921
 1438SOL    HW1 5556   7.856   4.035   5.281 -4.9459 -0.7933 -0.8234
 1438SOL    HW2 5557   7.912   3.917   5.205 -0.8747  0.6847 -0.2586
 1439SOL     OW 5558   4.739   5.822   4.357  0.6137 -0.6822 -0.0314
 1439SOL    HW1 5559   4.819   5.773   4.377  0.2946 -0.2243  2.5850
 1439SOL    HW2 5560   4.686   5.761   4.306  0.5125 -2.8868  2.5563
 1440SOL     OW 5561   1.953   6.680   7.480  0.1308 -0.1191  0.1294
 1440SOL    HW1 5562   1.913   6.614   7.536 -2.4876  2.1616  1.0486
 1440SOL    HW2 5563   1.990   6.744   7.540  1.7797 -0.2316 -0.7461
 1441SOL     OW 5564   5.622   6.796   1.912 -0.2524  0.4079 -0.8863
 1441SOL    HW1 5565   5.585   6.881   1.937  0.6350 -0.0639  2.2069
 1441SOL    HW2 5566   5.545   6.740   1.898 -0.7987  1.2002 -1.1435
 1442SOL     OW 5567   3.512   7.719   1.125  0.6480 -0.0526 -0.6401
 1442SOL    HW1 5568   3.479   7.643   1.077 -0.1011  1.0809 -1.9436
 1442SOL    HW2 5569   3.516   7.789   1.060 -2.0642  1.9970  1.2551
 1443SOL     OW 5570   6.307   2.540   6.412  0.5271  0.7033 -0.5052
 1443SOL    HW1 5571   6.316   2.591   6.332  0.8818  0.1351 -0.8368
 1443SOL    HW2 5572   6.390   2.554   6.459  0.6453  0.3981 -0.6207
 1444SOL     OW 5573   3.617   1.021   4.324 -0.2349  0.4753 -0.4295
 1444SOL    HW1 5574   3.612   1.062   4.410  1.1715  1.2519 -0.7052
 1444SOL    HW2 5575   3.640   0.930   4.342 -3.2859 -0.2533  0.1729
 1445SOL     OW 5576   5.887   0.316   7.686  0.4938 -0.6447 -0.5308
 1445SOL    HW1 5577   5.794   0.311   7.706  0.7341 -1.7253  0.3785
 1445SOL    HW2 5578   5.930   0.317   7.772  1.2534  1.6212 -0.8984
 1446SOL     OW 5579   6.803   0.302   0.883  0.0897  0.4928 -0.1600
 1446SOL    HW1 5580   6.882   0.273   0.929 -1.1825 -1.4626  0.8510
 1446SOL    HW2 5581   6.743   0.329   0.953 -1.8265 -2.4298 -0.5830
 1447SOL     OW 5582   2.159   3.575   6.752  0.0506 -0.4529 -0.0841
 1447SOL    HW1 5583   2.167   3.547   6.661  2.0151 -2.7723  0.7444
 1447SOL    HW2 5584   2.227   3.641   6.763  0.6793 -1.1078  0.0193
 1448SOL     OW 5585   5.321   1.019   7.920  0.5496  0.0975 -0.0645
 1448SOL    HW1 5586   5.361   1.050   8.001 -1.3942 -0.2458  1.0565
 1448SOL    HW2 5587   5.269   0.943   7.946  0.6340 -0.5861 -1.7961
 1449SOL     OW 5588   6.376   6.711   4.477  0.5382  0.3196  0.1884
 1449SOL    HW1 5589   6.446   6.649   4.498  0.5470  0.2612 -0.0189
 1449SOL    HW2 5590   6.320   6.665   4.414  0.8381  0.7131 -0.3705
 1450SOL     OW 5591   8.243   6.318   0.407  0.1628  0.2963 -0.4208
 1450SOL    HW1 5592   8.261   6.226   0.384 -0.3683  0.2700 -0.7310
 1450SOL    HW2 5593   8.231   6.317   0.502 -0.6189 -0.0818 -0.5251
 1451SOL     OW 5594   6.547   3.685   6.889  0.0460 -0.2721  0.0808
 1451SOL    HW1 5595   6.458   3.682   6.924  0.7074 -1.2061  1.7345
 1451SOL    HW2 5596   6.593   3.745   6.947  0.3549  0.6597 -1.1227
 1452SOL     OW 5597   4.620   0.916   1.635 -0.1530  0.2206 -0.0274
 1452SOL    HW1 5598   4.603   0.908   1.728 -2.2217 -0.7879 -0.4790
 1452SOL    HW2 5599   4.708   0.881   1.623 -0.6941 -1.5768  1.2301
 1453SOL     OW 5600   6.060   0.145   7.519  0.0950  0.0519 -0.0342
 1453SOL    HW1 5601   6.007   0.198   7.578 -1.7773 -2.1930  0.3898
 1453SOL    HW2 5602   6.067   0.197   7.439 -1.2631  1.1358  0.5345
 1454SOL     OW 5603   0.465   4.717   3.933 -0.0990 -0.2138  0.8188
 1454SOL    HW1 5604   0.411   4.694   4.009  0.5708 -1.7772  0.8437
 1454SOL    HW2 5605   0.509   4.636   3.910 -0.3036  0.2372 -1.2656
 1455SOL     OW 5606   0.652   3.973   1.733  0.2079  0.0849 -0.2181
 1455SOL    HW1 5607   0.632   3.879   1.730  0.5189  0.0253 -0.4306
 1455SOL    HW2 5608   0.653   3.994   1.827  0.2968 -0.1587 -0.1641
 1456SOL     OW 5609   3.546   6.871   5.392  0.1900 -0.0749  0.2029
 1456SOL    HW1 5610   3.524   6.814   5.319 -0.3446 -0.2538  0.5007
 1456SOL    HW2 5611   3.494   6.837   5.465  0.8864 -0.0434  0.7201
 1457SOL     OW 5612   4.216   6.634   5.591 -0.0449  0.2855  0.6586
 1457SOL    HW1 5613   4.203   6.727   5.610  0.4592  0.2229  1.3036
 1457SOL    HW2 5614   4.275   6.603   5.659 -0.9457 -0.7263  0.9972
 1458SOL     OW 5615   0.151   0.551   4.636  0.0859 -0.2072 -0.3206
 1458SOL    HW1 5616   0.141   0.459   4.611  2.4818 -0.3604 -0.7674
 1458SOL    HW2 5617   0.205   0.549   4.715 -2.1884  0.6826  1.3113
 1459SOL     OW 5618   6.830   6.949   2.192 -0.0069 -0.4115  0.4511
 1459SOL    HW1 5619   6.784   7.033   2.189  0.4570 -0.1647  0.2333
 1459SOL    HW2 5620   6.765   6.885   2.165 -1.1780 -0.4660  3.2485
 1460SOL     OW 5621   0.283   1.696   8.228 -0.4738 -0.4270 -0.1533
 1460SOL    HW1 5622   0.352   1.671   8.289 -0.6637  0.0147  0.2519
 1460SOL    HW2 5623   0.264   1.788   8.249  0.6264  0.2570 -1.9944
 1461SOL     OW 5624   3.258   6.712   4.154  0.4601  0.2969 -0.5233
 1461SOL    HW1 5625   3.235   6.673   4.069 -0.1400  0.3260 -0.3718
 1461SOL    HW2 5626   3.275   6.804   4.134  0.6712  0.2266 -0.6717
 1462SOL     OW 5627   4.223   0.980   3.627 -0.0221 -0.5753 -0.6923
 1462SOL    HW1 5628   4.280   0.902   3.635 -0.3281 -0.9404 -1.9473
 1462SOL    HW2 5629   4.134   0.945   3.631 -0.1695 -0.0695  0.6314
 1463SOL     OW 5630   2.466   3.078   5.068  0.0924 -0.7717  0.3460
 1463SOL    HW1 5631   2.402   3.036   5.126 -0.1927 -3.9222 -2.1057
 1463SOL    HW2 5632   2.414   3.108   4.993  0.8610  0.7863  0.4167
 1464SOL     OW 5633   2.306   0.372   6.977 -0.0070  0.5097 -0.1374
 1464SOL    HW1 5634   2.316   0.423   7.057 -0.7612 -1.5042  1.2939
 1464SOL    HW2 5635   2.321   0.435   6.906  0.9729  2.2606  1.5736
 1465SOL     OW 5636   1.007   7.118   2.326 -0.0115 -0.0468 -0.6631
 1465SOL    HW1 5637   1.031   7.082   2.241 -0.1897 -0.2806 -0.6158
 1465SOL    HW2 5638   0.990   7.211   2.310  1.7180  0.3011 -0.5495
 1466SOL     OW 5639   4.527   2.694   6.031  0.1797  0.3583 -0.0689
 1466SOL    HW1 5640   4.555   2.650   6.111  0.6437 -0.5964 -0.7405
 1466SOL    HW2 5641   4.608   2.722   5.989 -0.1026  1.7437  0.2662
 1467SOL     OW 5642   4.647   0.428   6.574  0.5392  0.2882  0.1901
 1467SOL    HW1 5643   4.690   0.421   6.490  0.3641 -0.9129  0.1896
 1467SOL    HW2 5644   4.670   0.515   6.607  2.0540  0.0690 -0.2923
 1468SOL     OW 5645   7.119   7.592   6.323 -0.1834 -0.3957 -0.3498
 1468SOL    HW1 5646   7.146   7.507   6.357  2.7041 -0.0715 -1.6710
 1468SOL    HW2 5647   7.131   7.585   6.228 -0.5074  1.2967 -0.5437
 1469SOL     OW 5648   0.830   1.516   0.576  0.4482  0.1613  0.1908
 1469SOL    HW1 5649   0.756   1.456   0.571  0.7158 -0.2235  0.9508
 1469SOL    HW2 5650   0.835   1.541   0.668  1.6995 -0.3482  0.2583
 1470SOL     OW 5651   1.130   4.484   1.417  0.5579 -0.3388  0.1014
 1470SOL    HW1 5652   1.130   4.418   1.486  0.5753  0.6984  1.1202
 1470SOL    HW2 5653   1.217   4.478   1.378  0.7451 -0.5643  0.5473
 1471SOL     OW 5654   6.855   2.995   3.623 -0.4276 -0.2420 -0.7061
 1471SOL    HW1 5655   6.871   2.901   3.619 -2.3862 -0.7598  1.9591
 1471SOL    HW2 5656   6.801   3.007   3.702  0.3744  3.1936 -0.5815
 1472SOL     OW 5657   5.290   7.889   2.236 -0.1330 -0.4443  0.3097
 1472SOL    HW1 5658   5.280   7.950   2.163  0.5101  0.0857  0.6497
 1472SOL    HW2 5659   5.360   7.928   2.290  1.3426 -2.2468 -0.2501
 1473SOL     OW 5660   2.531   7.109   8.144 -0.7875  0.4203 -0.1166
 1473SOL    HW1 5661   2.547   7.056   8.222  0.3301  1.3138  0.2849
 1473SOL    HW2 5662   2.535   7.046   8.071  0.2277 -0.1034  0.3746
 1474SOL     OW 5663   8.215   7.392   7.718  0.1984 -0.6957 -0.1635
 1474SOL    HW1 5664   8.221   7.404   7.623 -1.9040  1.7228 -0.0523
 1474SOL    HW2 5665   8.123   7.367   7.733  0.3310 -0.3233  1.2950
 1475SOL     OW 5666   8.153   7.915   4.373  0.2278 -0.1237 -0.0880
 1475SOL    HW1 5667   8.097   7.921   4.450  0.6352 -1.7323  0.3527
 1475SOL    HW2 5668   8.229   7.969   4.393 -0.4613  0.8657 -0.0872
 1476SOL     OW 5669   4.442   4.646   5.251 -0.1659  0.0525  0.0079
 1476SOL    HW1 5670   4.469   4.703   5.179  0.2177  1.9806  1.6213
 1476SOL    HW2 5671   4.525   4.612   5.286 -0.2584  0.2684  0.4399
 1477SOL     OW 5672   0.317   6.801   6.457  0.1044  0.1399 -0.4362
 1477SOL    HW1 5673   0.269   6.884   6.463  0.5758  0.3926 -0.1900
 1477SOL    HW2 5674   0.409   6.826   6.449  0.2291 -0.3541 -0.5945
 1478SOL     OW 5675   3.518   8.088   2.775 -0.1867 -0.1663  0.4888
 1478SOL    HW1 5676   3.559   8.017   2.825 -2.6707 -1.6002  0.6161
 1478SOL    HW2 5677   3.527   8.165   2.831  1.1043 -0.7453  1.0930
 1479SOL     OW 5678   3.804   0.067   2.755  0.5676 -0.5421  0.0389
 1479SOL    HW1 5679   3.863   0.012   2.806  1.0965  0.0266  0.0460
 1479SOL    HW2 5680   3.838   0.156   2.766 -0.2181 -0.2229 -0.0505
 1480SOL     OW 5681   7.778   4.986   4.676 -0.5059  0.0636 -0.2424
 1480SOL    HW1 5682   7.708   5.034   4.721  0.3147  0.8367  0.2330
 1480SOL    HW2 5683   7.844   5.053   4.657  0.0305 -0.6307 -0.8384
 1481SOL     OW 5684   7.723   4.498   4.896  0.0527  0.3695  0.0855
 1481SOL    HW1 5685   7.786   4.553   4.944  0.3224 -1.1866  1.5383
 1481SOL    HW2 5686   7.775   4.456   4.828 -0.0098  1.3182 -0.5639
 1482SOL     OW 5687   6.929   7.859   5.135  0.1829  0.5601 -0.1121
 1482SOL    HW1 5688   6.908   7.809   5.056  1.4412  2.9230 -2.0002
 1482SOL    HW2 5689   7.019   7.833   5.157  0.2675  0.8126 -0.1612
 1483SOL     OW 5690   2.447   7.032   2.887  0.4413 -0.1016  0.2170
 1483SOL    HW1 5691   2.494   7.051   2.968  1.0526  0.2339 -0.2142
 1483SOL    HW2 5692   2.485   6.949   2.857 -0.5138 -0.7648  0.8149
 1484SOL     OW 5693   0.576   5.465   2.922 -0.1959  0.0653 -0.1121
 1484SOL    HW1 5694   0.572   5.370   2.911 -0.0997  0.0519 -0.0369
 1484SOL    HW2 5695   0.592   5.498   2.834  2.0996 -0.1456  0.1878
 1485SOL     OW 5696   0.283   4.558   3.308  0.4492 -0.1323 -0.0179
 1485SOL    HW1 5697   0.355   4.504   3.276  1.5188  0.4874  1.3151
 1485SOL    HW2 5698   0.207   4.499   3.309  0.7499 -0.5731 -2.1736
 1486SOL     OW 5699   5.196   8.160   7.554  1.0098  0.4975  0.1879
 1486SOL    HW1 5700   5.250   8.185   7.629  1.6367 -0.7116  0.1609
 1486SOL    HW2 5701   5.237   8.204   7.480  1.1770  0.6467  0.3661
 1487SOL     OW 5702   3.745   5.672   0.773  0.1227 -0.4292  0.0977
 1487SOL    HW1 5703   3.770   5.722   0.850 -0.9637  0.2034  0.0543
 1487SOL    HW2 5704   3.650   5.661   0.781  0.1225 -1.1108 -0.7052
 1488SOL     OW 5705   3.963   1.935   7.913 -0.1009 -0.1328  0.0644
 1488SOL    HW1 5706   3.873   1.906   7.930  0.0718  0.3059  1.7883
 1488SOL    HW2 5707   4.018   1.862   7.942  0.2348  0.9621  2.2590
 1489SOL     OW 5708   2.877   6.085   7.294  0.3024 -0.3973 -0.4382
 1489SOL    HW1 5709   2.923   6.147   7.351 -0.2181 -0.3824 -0.0332
 1489SOL    HW2 5710   2.797   6.064   7.342 -0.6442  0.4189 -1.6364
 1490SOL     OW 5711   6.583   1.761   1.604  1.0573  0.1080 -0.1671
 1490SOL    HW1 5712   6.509   1.819   1.622  0.4238 -0.6774 -0.2240
 1490SOL    HW2 5713   6.653   1.793   1.661  1.1962  1.8743 -1.2917
 1491SOL     OW 5714   7.038   6.382   7.384 -0.3236  0.2016  0.2284
 1491SOL    HW1 5715   7.095   6.435   7.328 -0.4051 -0.4427 -0.4848
 1491SOL    HW2 5716   6.987   6.329   7.322  2.0622 -3.1095  0.9375
 1492SOL     OW 5717   6.649   6.498   4.311  0.4955 -0.1765 -0.0061
 1492SOL    HW1 5718   6.718   6.442   4.277  0.0035 -0.1505 -1.0679
 1492SOL    HW2 5719   6.610   6.447   4.382  1.2959 -0.3800  0.2962
 1493SOL     OW 5720   4.363   6.389   5.751 -0.7228  0.7875 -0.6917
 1493SOL    HW1 5721   4.423   6.316   5.766 -1.7321  0.0234 -0.3617
 1493SOL    HW2 5722   4.285   6.367   5.801 -1.1356  1.9757 -0.7893
 1494SOL     OW 5723   4.213   2.343   3.462  0.1965  0.7050  0.6106
 1494SOL    HW1 5724   4.298   2.306   3.485 -0.3331 -0.6087  0.5433
 1494SOL    HW2 5725   4.155   2.316   3.534 -0.2780  1.0981  0.3769
 1495SOL     OW 5726   2.808   1.654   4.411  0.8062  0.0025 -0.2945
 1495SOL    HW1 5727   2.771   1.742   4.422  1.6435  0.1372  1.7478
 1495SOL    HW2 5728   2.757   1.615   4.340 -0.8788  1.4331  0.0845
 1496SOL     OW 5729   7.503   3.401   2.953 -0.3158 -0.0660  0.2770
 1496SOL    HW1 5730   7.552   3.387   3.035  0.6884  0.8194 -0.1552
 1496SOL    HW2 5731   7.437   3.332   2.953  1.6339 -2.0038  0.3404
 1497SOL     OW 5732   2.299   1.979   6.778 -0.9677  0.0065 -0.0707
 1497SOL    HW1 5733   2.235   1.966   6.849 -1.1698  0.6694 -0.1337
 1497SOL    HW2 5734   2.314   1.890   6.744 -1.2773 -0.2499  0.4454
 1498SOL     OW 5735   7.660   7.147   3.489  0.1588  0.1801  0.1021
 1498SOL    HW1 5736   7.630   7.227   3.532 -0.5526 -0.5009  0.9304
 1498SOL    HW2 5737   7.745   7.128   3.529  0.6550  0.9077 -0.6153
 1499SOL     OW 5738   5.132   7.457   4.173  0.3381 -0.2258 -0.4588
 1499SOL    HW1 5739   5.219   7.472   4.210  0.1423 -0.0410 -0.0781
 1499SOL    HW2 5740   5.076   7.437   4.248  0.1992 -1.0529 -0.7669
 1500SOL     OW 5741   3.068   5.294   5.179 -0.1615  0.3109 -0.1325
 1500SOL    HW1 5742   2.974   5.285   5.163 -0.6044  1.8902  1.5122
 1500SOL    HW2 5743   3.083   5.244   5.260  0.3605  0.3519 -0.2064
 1501SOL     OW 5744   8.230   7.993   0.222 -0.6867  0.4376 -0.0234
 1501SOL    HW1 5745   8.210   8.075   0.177  0.0116  0.8624  0.4324
 1501SOL    HW2 5746   8.324   7.980   0.208 -0.7841 -0.2656 -0.0657
 1502SOL     OW 5747   4.869   6.529   3.961 -0.0808 -0.2904  0.1788
 1502SOL    HW1 5748   4.804   6.526   3.891 -2.7319 -1.1330  2.5903
 1502SOL    HW2 5749   4.903   6.439   3.965 -0.2901 -0.3632  0.3072
 1503SOL     OW 5750   8.094   1.700   2.847 -0.1636 -0.7258  0.2848
 1503SOL    HW1 5751   8.161   1.709   2.915  0.2708 -0.8259 -0.1328
 1503SOL    HW2 5752   8.126   1.753   2.774 -0.0548 -1.5788 -0.2850
 1504SOL     OW 5753   2.111   0.979   2.664 -0.4556 -0.3200 -0.2976
 1504SOL    HW1 5754   2.078   1.045   2.602 -2.3590  0.6593  1.6813
 1504SOL    HW2 5755   2.125   1.027   2.745  3.5286 -1.2757 -0.3313
 1505SOL     OW 5756   0.286   4.948   5.771 -0.1046 -0.1490 -0.4541
 1505SOL    HW1 5757   0.357   4.938   5.708 -0.3071  0.1890 -0.7408
 1505SOL    HW2 5758   0.276   5.043   5.781  0.5380 -0.2047  0.7919
 1506SOL     OW 5759   3.578   7.820   2.611  0.4286  0.0342  0.3543
 1506SOL    HW1 5760   3.485   7.830   2.593  0.4086 -2.7831 -1.3965
 1506SOL    HW2 5761   3.582   7.761   2.686  0.8059 -0.4977 -0.0811
 1507SOL     OW 5762   4.534   1.038   6.508  0.6655 -0.4228 -0.2099
 1507SOL    HW1 5763   4.564   1.119   6.465  0.6099  0.4948  1.4205
 1507SOL    HW2 5764   4.462   1.007   6.453 -0.3964  1.5369  0.0226
 1508SOL     OW 5765   5.181   3.780   8.166 -0.0927 -0.5680  0.1007
 1508SOL    HW1 5766   5.162   3.797   8.258 -0.5722 -0.6988  0.0282
 1508SOL    HW2 5767   5.118   3.833   8.118  0.8361  0.3027 -0.1712
 1509SOL     OW 5768   7.772   1.098   6.352  0.4387 -0.2033 -0.4281
 1509SOL    HW1 5769   7.849   1.145   6.383  0.1747 -0.0823  0.0476
 1509SOL    HW2 5770   7.736   1.055   6.430  0.3556 -0.7298 -0.7535
 1510SOL     OW 5771   6.159   1.316   6.295 -0.0594 -0.5824  0.1393
 1510SOL    HW1 5772   6.217   1.327   6.370  1.4600 -1.0608 -0.9270
 1510SOL    HW2 5773   6.186   1.232   6.256 -0.8036 -0.3340 -0.9340
 1511SOL     OW 5774   4.763   2.864   7.751  0.3405  0.2298 -0.1643
 1511SOL    HW1 5775   4.795   2.848   7.840 -2.2160 -0.6910  0.6410
 1511SOL    HW2 5776   4.800   2.793   7.699  2.4722  1.2003 -0.0212
 1512SOL     OW 5777   3.747   5.807   7.347  0.3813 -0.1249  0.0715
 1512SOL    HW1 5778   3.731   5.899   7.369  1.9852  0.8000 -2.4011
 1512SOL    HW2 5779   3.789   5.771   7.425 -1.2571  0.9400  1.4765
 1513SOL     OW 5780   7.992   6.715   6.042  0.4153 -0.0593 -1.2679
 1513SOL    HW1 5781   7.907   6.732   6.002  0.5017  0.5954 -1.1722
 1513SOL    HW2 5782   8.056   6.729   5.972  0.4325 -0.8119 -1.4118
 1514SOL     OW 5783   3.682   6.618   2.283 -0.1265 -0.1891 -0.3171
 1514SOL    HW1 5784   3.621   6.545   2.281  0.5975 -0.7730 -1.5799
 1514SOL    HW2 5785   3.737   6.602   2.360  0.2000 -1.1169 -0.7418
 1515SOL     OW 5786   4.418   7.007   5.376  0.0627  0.1312  0.6602
 1515SOL    HW1 5787   4.510   6.986   5.390 -0.0709 -1.4039 -0.6464
 1515SOL    HW2 5788   4.400   6.978   5.287 -1.8851 -0.3161  1.1751
 1516SOL     OW 5789   5.636   0.161   6.868  0.5903  0.3825  0.0248
 1516SOL    HW1 5790   5.582   0.184   6.944 -0.5812 -1.9545 -0.0286
 1516SOL    HW2 5791   5.713   0.216   6.875 -0.9118  2.3840  1.2317
 1517SOL     OW 5792   5.206   6.682   2.058 -0.4376 -0.1222 -0.0878
 1517SOL    HW1 5793   5.269   6.657   2.126  0.9669  1.1819 -0.8805
 1517SOL    HW2 5794   5.217   6.616   1.990 -1.4585 -1.1172  0.7008
 1518SOL     OW 5795   3.824   4.421   3.670 -0.7264  0.7991 -0.1414
 1518SOL    HW1 5796   3.787   4.506   3.693  1.7407  2.1503 -0.8924
 1518SOL    HW2 5797   3.866   4.435   3.585 -0.0445 -1.0948 -0.1544
 1519SOL     OW 5798   8.199   0.990   2.267  0.1272  0.1349  0.0165
 1519SOL    HW1 5799   8.196   1.082   2.239 -2.1273  0.0707 -0.0808
 1519SOL    HW2 5800   8.158   0.991   2.354  0.0426 -0.7872 -0.0158
 1520SOL     OW 5801   1.758   7.266   0.198 -0.0125 -0.3378  0.5791
 1520SOL    HW1 5802   1.711   7.196   0.243 -0.5970  0.0470  0.5822
 1520SOL    HW2 5803   1.714   7.347   0.226  0.9754  0.0718  0.9629
 1521SOL     OW 5804   0.485   8.045   4.477  0.1538  0.6339  0.2499
 1521SOL    HW1 5805   0.429   8.113   4.438 -0.9866  0.4634  1.5590
 1521SOL    HW2 5806   0.501   7.983   4.406 -0.4843  1.2101 -0.4035
 1522SOL     OW 5807   5.195   0.604   5.755  0.3362  0.0269  0.0633
 1522SOL    HW1 5808   5.283   0.636   5.734  0.1289 -0.0976 -1.0737
 1522SOL    HW2 5809   5.208   0.533   5.818  0.9699  0.7139  0.7089
 1523SOL     OW 5810   2.990   4.993   6.036  0.2011  0.0621  0.2873
 1523SOL    HW1 5811   3.075   4.964   6.069  0.9673  1.2358 -0.6073
 1523SOL    HW2 5812   2.959   5.055   6.101 -0.7480 -1.5926  1.4458
 1524SOL     OW 5813   5.397   6.005   2.482 -0.0489 -0.0010  0.1050
 1524SOL    HW1 5814   5.425   5.920   2.447  1.6192  0.8529 -0.6883
 1524SOL    HW2 5815   5.303   5.995   2.497  0.2404 -2.2096  0.6741
 1525SOL     OW 5816   7.039   2.169   2.165  0.1697  0.0980 -0.1643
 1525SOL    HW1 5817   7.005   2.082   2.145  0.6251  0.2115 -1.4424
 1525SOL    HW2 5818   7.059   2.165   2.259  0.9861 -1.4490 -0.3925
 1526SOL     OW 5819   3.599   7.161   5.017  0.0460 -0.2817  0.6138
 1526SOL    HW1 5820   3.657   7.174   5.092  2.2891  0.5116 -1.1784
 1526SOL    HW2 5821   3.645   7.204   4.944 -1.4269 -2.1460 -1.4712
 1527SOL     OW 5822   6.819   1.939   4.069  0.0159  0.5737 -0.0421
 1527SOL    HW1 5823   6.728   1.917   4.089 -0.5832  1.2455 -1.8712
 1527SOL    HW2 5824   6.869   1.861   4.093 -1.2298 -0.3245 -0.3369
 1528SOL     OW 5825   8.301   2.165   7.428 -0.7640  0.0768  0.1748
 1528SOL    HW1 5826   8.284   2.103   7.357  0.7498 -1.8134  1.4038
 1528SOL    HW2 5827   8.386   2.203   7.407 -1.3543  1.2186 -0.1899
 1529SOL     OW 5828   2.905   1.478   7.096 -0.6215 -0.4903 -0.3369
 1529SOL    HW1 5829   2.954   1.558   7.073  1.2494 -0.9115  1.9739
 1529SOL    HW2 5830   2.850   1.504   7.170 -0.1053 -1.2903  0.3340
 1530SOL     OW 5831   1.228   4.870   0.942 -0.2968 -0.6584 -0.3527
 1530SOL    HW1 5832   1.291   4.915   0.885  1.5346 -1.2512  1.1330
 1530SOL    HW2 5833   1.257   4.779   0.941 -1.1009 -0.9258  0.4213
 1531SOL     OW 5834   0.563   0.168   3.466 -0.0690  0.8374 -0.5719
 1531SOL    HW1 5835   0.617   0.188   3.390  1.9950 -0.6189  0.4612
 1531SOL    HW2 5836   0.494   0.110   3.432  1.4011 -0.5969 -1.1835
 1532SOL     OW 5837   2.065   6.435   6.135  0.0315  0.0193 -0.0418
 1532SOL    HW1 5838   2.030   6.511   6.088  1.1573  1.3064  1.1318
 1532SOL    HW2 5839   2.138   6.406   6.081 -0.1648  0.0115 -0.3030
 1533SOL     OW 5840   0.411   6.183   0.313 -0.0549  0.5833 -0.2305
 1533SOL    HW1 5841   0.504   6.160   0.305  0.3092  1.6663  0.7057
 1533SOL    HW2 5842   0.371   6.106   0.354  0.3326 -0.0885 -1.0989
 1534SOL     OW 5843   7.839   3.123   1.592  0.0068 -0.2645 -0.0559
 1534SOL    HW1 5844   7.858   3.062   1.663 -0.8122 -0.7992 -0.2923
 1534SOL    HW2 5845   7.749   3.104   1.567 -0.4470  1.3922  0.2230
 1535SOL     OW 5846   4.729   1.379   4.948 -0.0622  0.0966  0.3601
 1535SOL    HW1 5847   4.719   1.303   5.005  0.3187  0.1708  0.5284
 1535SOL    HW2 5848   4.700   1.453   5.001  0.4805  0.1907  0.5237
 1536SOL     OW 5849   4.622   1.716   6.619 -0.2118  0.7114 -0.3903
 1536SOL    HW1 5850   4.539   1.738   6.662  0.5066  1.5625  0.5930
 1536SOL    HW2 5851   4.620   1.621   6.609 -1.2264  0.7082 -0.2092
 1537SOL     OW 5852   5.736   3.215   1.826  0.2541 -0.0189 -0.7197
 1537SOL    HW1 5853   5.822   3.204   1.866  0.8362 -0.9812 -2.2136
 1537SOL    HW2 5854   5.676   3.216   1.900  1.5284  0.4559  0.3230
 1538SOL     OW 5855   5.907   5.763   6.002  0.0907  0.0283  0.1956
 1538SOL    HW1 5856   5.934   5.834   6.060 -0.6550  1.0951 -0.7396
 1538SOL    HW2 5857   5.830   5.726   6.044  1.6631 -1.5926  1.7400
 1539SOL     OW 5858   5.585   4.216   2.926 -0.4466  0.0399  0.6316
 1539SOL    HW1 5859   5.607   4.172   2.845 -1.5584  0.6660 -0.0253
 1539SOL    HW2 5860   5.492   4.198   2.940  0.6745 -3.7641  4.1087
 1540SOL     OW 5861   2.488   3.002   2.144 -0.2432 -0.2754 -0.6224
 1540SOL    HW1 5862   2.510   3.041   2.059  0.5566  1.0583  0.1888
 1540SOL    HW2 5863   2.396   2.977   2.135 -0.4871  0.8881 -1.5023
 1541SOL     OW 5864   7.165   3.382   5.158 -0.7406 -0.4700 -0.8322
 1541SOL    HW1 5865   7.227   3.441   5.202 -0.5106  0.1302 -1.9529
 1541SOL    HW2 5866   7.132   3.326   5.229  0.2301 -0.0507 -0.0283
 1542SOL     OW 5867   5.681   2.531   1.027 -0.6805  0.7046  0.1382
 1542SOL    HW1 5868   5.747   2.462   1.026  0.2307  1.4988  1.7273
 1542SOL    HW2 5869   5.618   2.502   1.093 -1.9031 -0.0358 -1.3553
 1543SOL     OW 5870   6.068   0.644   8.073  0.5105 -1.0467 -0.4605
 1543SOL    HW1 5871   5.979   0.612   8.091  0.8486 -1.0764  1.2156
 1543SOL    HW2 5872   6.082   0.624   7.980 -0.4772 -2.8948 -0.2299
 1544SOL     OW 5873   2.656   1.366   7.651  0.1976  0.1393 -0.1673
 1544SOL    HW1 5874   2.629   1.295   7.710 -1.1900  0.5151 -0.3433
 1544SOL    HW2 5875   2.748   1.380   7.672  0.3876 -1.4387  0.1547
 1545SOL     OW 5876   2.138   6.684   0.831 -0.1009 -0.2474 -0.6494
 1545SOL    HW1 5877   2.188   6.603   0.820 -0.6439 -0.5346 -1.0345
 1545SOL    HW2 5878   2.204   6.753   0.833  0.4562 -0.8119  0.9837
 1546SOL     OW 5879   2.041   0.497   4.340 -0.1836 -0.1510  0.0903
 1546SOL    HW1 5880   1.976   0.456   4.396 -0.1917  0.1361  0.2940
 1546SOL    HW2 5881   2.083   0.563   4.395 -1.0771  1.0239 -0.5976
 1547SOL     OW 5882   6.665   3.896   7.045 -0.0686  0.2014 -0.9373
 1547SOL    HW1 5883   6.683   3.871   7.136 -1.6181 -1.6514 -1.1056
 1547SOL    HW2 5884   6.739   3.951   7.020  0.0922  1.2138  1.6335
 1548SOL     OW 5885   3.146   7.255   7.854 -0.2783 -0.2552 -0.7754
 1548SOL    HW1 5886   3.081   7.285   7.791  2.3284  1.1807 -2.9242
 1548SOL    HW2 5887   3.180   7.174   7.815 -0.4867 -0.7768  0.1242
 1549SOL     OW 5888   6.419   8.269   2.939  0.0925 -0.0116 -0.7217
 1549SOL    HW1 5889   6.439   8.354   2.899  0.6621  0.9557  1.5353
 1549SOL    HW2 5890   6.465   8.270   3.023 -0.8417 -2.0899 -0.1392
 1550SOL     OW 5891   6.812   4.931   6.984  0.1666 -0.2531  0.9539
 1550SOL    HW1 5892   6.786   4.863   7.047 -0.5964 -1.8805 -1.0382
 1550SOL    HW2 5893   6.753   4.918   6.910  1.6176  1.0344 -0.4563
 1551SOL     OW 5894   7.216   4.909   5.549 -0.2565  0.6963  0.3015
 1551SOL    HW1 5895   7.267   4.976   5.503 -0.7347  0.7377 -0.1668
 1551SOL    HW2 5896   7.270   4.887   5.625  1.2370 -0.4309 -1.0539
 1552SOL     OW 5897   7.269   3.118   3.914 -0.2705 -0.1860  0.3453
 1552SOL    HW1 5898   7.318   3.188   3.870 -0.3315  0.0853  0.7059
 1552SOL    HW2 5899   7.225   3.072   3.843 -0.2606  0.1637  0.1086
 1553SOL     OW 5900   2.662   1.019   3.780 -0.6381 -0.3099  0.4874
 1553SOL    HW1 5901   2.738   0.961   3.778  0.0690  0.6089  0.6842
 1553SOL    HW2 5902   2.677   1.081   3.708  0.7155  2.2825  2.8937
 1554SOL     OW 5903   0.089   5.985   8.037 -0.3267  0.0650 -0.3991
 1554SOL    HW1 5904   0.075   5.896   8.006 -0.5246  0.1428 -0.5352
 1554SOL    HW2 5905   0.009   6.007   8.085  0.1352 -0.2021  0.5124
 1555SOL     OW 5906   1.942   6.977   0.344 -0.0399 -0.5431  1.2149
 1555SOL    HW1 5907   1.892   7.034   0.402 -1.5143 -1.8278  1.2348
 1555SOL    HW2 5908   1.877   6.939   0.285  1.2264 -0.4650 -0.2811
 1556SOL     OW 5909   5.763   7.798   1.682  0.5595  0.5230 -0.4225
 1556SOL    HW1 5910   5.790   7.708   1.700 -1.8074 -0.0926  0.1771
 1556SOL    HW2 5911   5.669   7.799   1.699  0.2312  2.6793 -2.1741
 1557SOL     OW 5912   0.274   1.330   1.924 -0.5223  0.2144  0.3629
 1557SOL    HW1 5913   0.326   1.378   1.989 -3.4022  2.6564  1.0064
 1557SOL    HW2 5914   0.250   1.248   1.968 -1.8045  1.5105  2.2025
 1558SOL     OW 5915   0.686   6.370   6.833  0.2224  0.5708  0.1876
 1558SOL    HW1 5916   0.686   6.317   6.754 -0.1373  2.2015 -0.9434
 1558SOL    HW2 5917   0.646   6.314   6.899  0.9205 -0.9661 -0.6640
 1559SOL     OW 5918   5.092   5.422   2.756 -0.4277 -0.3229 -0.3486
 1559SOL    HW1 5919   5.144   5.500   2.772 -0.1248 -0.6673  0.3467
 1559SOL    HW2 5920   5.148   5.365   2.704 -0.4545 -0.3010 -0.4018
 1560SOL     OW 5921   7.113   7.887   5.882 -0.1242  0.0326  0.0897
 1560SOL    HW1 5922   7.122   7.940   5.962  0.2682  0.1054 -0.0035
 1560SOL    HW2 5923   7.196   7.840   5.875 -0.3237 -0.2970 -0.0451
 1561SOL     OW 5924   2.798   1.186   4.027 -0.5677 -0.1365  0.4175
 1561SOL    HW1 5925   2.766   1.267   4.067 -0.0262 -0.2828  1.1449
 1561SOL    HW2 5926   2.829   1.214   3.941 -0.0350  0.4992  0.8128
 1562SOL     OW 5927   4.990   5.233   1.605  0.4804  0.1032  0.0829
 1562SOL    HW1 5928   4.920   5.240   1.670  2.1729 -1.1735  2.1233
 1562SOL    HW2 5929   4.956   5.171   1.540 -0.2985 -0.5263  1.0687
 1563SOL     OW 5930   4.213   1.492   0.959  0.1168 -0.2227  0.0542
 1563SOL    HW1 5931   4.181   1.438   0.887 -0.2563 -0.8210  0.6637
 1563SOL    HW2 5932   4.155   1.568   0.959 -0.0298 -0.3336 -0.1244
 1564SOL     OW 5933   2.108   5.674   7.665  0.7928  0.4703 -0.5630
 1564SOL    HW1 5934   2.067   5.758   7.686  0.9028  0.2409  0.6454
 1564SOL    HW2 5935   2.188   5.673   7.718 -0.1041 -1.1420  0.8322
 1565SOL     OW 5936   1.732   4.287   5.469 -0.1994 -0.1575  0.9216
 1565SOL    HW1 5937   1.778   4.330   5.540  0.3370  0.1327  0.4027
 1565SOL    HW2 5938   1.722   4.355   5.402 -1.2243 -0.2564  0.9538
 1566SOL     OW 5939   1.795   5.554   6.670  0.1332  0.0159 -0.3929
 1566SOL    HW1 5940   1.715   5.587   6.628 -0.4415  3.0952  2.8887
 1566SOL    HW2 5941   1.866   5.592   6.619 -0.5113  0.0518 -1.2742
 1567SOL     OW 5942   3.725   2.229   8.245 -0.1769 -0.2789  0.2607
 1567SOL    HW1 5943   3.718   2.208   8.152  0.2903  0.1634  0.1210
 1567SOL    HW2 5944   3.811   2.197   8.271 -0.8664 -1.6453  0.8748
 1568SOL     OW 5945   3.596   1.891   2.793 -0.0910  0.7518 -0.0752
 1568SOL    HW1 5946   3.688   1.906   2.771 -0.5895  2.0760 -1.3865
 1568SOL    HW2 5947   3.572   1.966   2.848 -1.0392  1.7816 -1.8331
 1569SOL     OW 5948   1.512   6.224   5.338  0.1353  0.0682 -0.8711
 1569SOL    HW1 5949   1.513   6.282   5.263 -1.9048  2.0575  0.5963
 1569SOL    HW2 5950   1.422   6.192   5.344  0.4650 -0.7083  0.2417
 1570SOL     OW 5951   1.845   4.075   6.777 -0.3223 -0.0307 -0.0331
 1570SOL    HW1 5952   1.818   4.050   6.865 -0.5674 -0.4027 -0.2109
 1570SOL    HW2 5953   1.780   4.035   6.720  1.1496 -1.7877 -0.5352
 1571SOL     OW 5954   5.046   0.592   1.842 -0.6653 -0.0404  0.0968
 1571SOL    HW1 5955   5.111   0.525   1.820 -0.7349  0.1042 -0.5637
 1571SOL    HW2 5956   4.981   0.545   1.896 -0.1488 -0.2406  0.5478
 1572SOL     OW 5957   6.462   4.455   7.515  0.5005 -0.1718 -0.2665
 1572SOL    HW1 5958   6.545   4.407   7.507 -0.6833 -2.1020 -1.4057
 1572SOL    HW2 5959   6.408   4.399   7.571  0.8660  2.3737  2.6974
 1573SOL     OW 5960   0.143   4.831   0.997 -0.5336  0.3519  0.0956
 1573SOL    HW1 5961   0.200   4.803   0.926 -0.4052  0.5088  0.1373
 1573SOL    HW2 5962   0.192   4.899   1.042 -1.0940  1.0726 -0.3761
 1574SOL     OW 5963   5.961   2.895   1.058  0.1873 -0.2190  0.5350
 1574SOL    HW1 5964   5.958   2.961   0.990  1.9122  0.0830  0.7213
 1574SOL    HW2 5965   6.052   2.865   1.059 -0.1065 -1.1465  1.8150
 1575SOL     OW 5966   6.286   1.887   2.649 -0.5190 -0.0896  0.3448
 1575SOL    HW1 5967   6.282   1.916   2.740  0.5496  0.7176  0.1379
 1575SOL    HW2 5968   6.214   1.824   2.641  1.1330 -2.3458  2.5255
 1576SOL     OW 5969   5.977   3.499   2.311 -0.1303 -0.3833  0.4421
 1576SOL    HW1 5970   5.891   3.509   2.351  0.4585  0.8518  1.3983
 1576SOL    HW2 5971   6.039   3.513   2.382  0.8685 -1.8081 -0.1265
 1577SOL     OW 5972   7.030   1.987   7.447  0.1612 -0.0663  0.3678
 1577SOL    HW1 5973   6.938   2.014   7.451  0.3048  0.5938 -0.7545
 1577SOL    HW2 5974   7.079   2.068   7.459  0.6021 -0.2254 -0.3793
 1578SOL     OW 5975   3.681   5.391   0.278 -0.1354 -0.5645  0.3145
 1578SOL    HW1 5976   3.657   5.316   0.224 -1.6527  0.2313 -0.1295
 1578SOL    HW2 5977   3.606   5.450   0.273  0.8840  0.8235  0.9654
 1579SOL     OW 5978   7.956   5.402   8.123  0.4012 -0.5044  0.1342
 1579SOL    HW1 5979   7.898   5.460   8.173  0.2498  1.0604 -1.7864
 1579SOL    HW2 5980   8.026   5.379   8.183  0.2768  1.4235  1.0387
 1580SOL     OW 5981   1.515   5.994   7.167 -0.2145  0.2588  0.6107
 1580SOL    HW1 5982   1.521   5.898   7.170 -0.1535  0.2233 -0.3713
 1580SOL    HW2 5983   1.435   6.011   7.117 -0.0127  0.7167  0.4370
 1581SOL     OW 5984   2.855   7.936   2.021 -0.0049 -0.2602 -0.0159
 1581SOL    HW1 5985   2.886   7.847   2.041 -0.8202 -0.1038  2.1308
 1581SOL    HW2 5986   2.830   7.933   1.929  1.4770 -1.8214 -0.3944
 1582SOL     OW 5987   4.102   3.520   0.319  0.6995 -0.1537  0.0820
 1582SOL    HW1 5988   4.154   3.475   0.386  2.8054  0.0745 -1.3605
 1582SOL    HW2 5989   4.114   3.467   0.240  0.3829  1.0357 -0.7749
 1583SOL     OW 5990   3.014   4.058   3.213  0.0099  0.0216  0.4917
 1583SOL    HW1 5991   3.079   4.128   3.215 -0.2791  0.2732  1.5169
 1583SOL    HW2 5992   3.062   3.980   3.240  0.5268 -0.3530 -1.4589
 1584SOL     OW 5993   0.390   5.730   3.046 -0.5723  0.1308  0.3400
 1584SOL    HW1 5994   0.340   5.649   3.035 -0.8499  0.3415  0.0294
 1584SOL    HW2 5995   0.464   5.720   2.986 -1.0348  0.4444 -0.2876
 1585SOL     OW 5996   7.666   7.776   5.024 -0.4117 -0.3214  0.2033
 1585SOL    HW1 5997   7.685   7.837   5.095  1.9272 -0.5242 -0.2143
 1585SOL    HW2 5998   7.750   7.735   5.004 -1.1064 -0.6024 -2.3643
 1586SOL     OW 5999   7.079   4.469   6.287 -0.5732  0.2696 -0.4028
 1586SOL    HW1 6000   7.044   4.467   6.376 -1.1584 -0.6397 -0.6472
 1586SOL    HW2 6001   7.050   4.552   6.251 -0.6763  0.4581  0.1210
 1587SOL     OW 6002   0.325   1.208   4.993  0.7239 -0.0454  0.8356
 1587SOL    HW1 6003   0.237   1.195   5.029  0.3196  0.5180  0.0912
 1587SOL    HW2 6004   0.381   1.222   5.069 -0.1586  1.3787  1.2465
 1588SOL     OW 6005   0.308   1.498   7.580  0.3394  0.2627 -0.3143
 1588SOL    HW1 6006   0.243   1.479   7.648  1.1480 -1.5815 -0.0111
 1588SOL    HW2 6007   0.385   1.447   7.607  0.9869  0.2715 -2.1071
 1589SOL     OW 6008   7.283   6.310   8.232  0.4659  0.6741  0.3625
 1589SOL    HW1 6009   7.208   6.319   8.292  0.2588  0.6099  0.1167
 1589SOL    HW2 6010   7.243   6.284   8.149  0.7405  0.9057  0.1603
 1590SOL     OW 6011   3.481   1.689   4.641  0.4602  1.1073  0.2895
 1590SOL    HW1 6012   3.515   1.650   4.722 -0.0150  0.3974  0.1573
 1590SOL    HW2 6013   3.389   1.708   4.662  0.3808  1.0732 -0.0326
 1591SOL     OW 6014   5.073   4.484   6.959 -0.1578  0.1916  0.1113
 1591SOL    HW1 6015   4.981   4.485   6.933 -0.2328  1.7139  0.3420
 1591SOL    HW2 6016   5.073   4.448   7.047 -0.4625 -0.3648 -0.1138
 1592SOL     OW 6017   0.782   3.385   2.402 -0.4435 -0.1876 -0.5405
 1592SOL    HW1 6018   0.822   3.455   2.454 -0.3848 -1.2066  0.8153
 1592SOL    HW2 6019   0.788   3.416   2.311  1.7972  0.4811 -0.2047
 1593SOL     OW 6020   4.503   6.022   2.610  0.6837  0.1915  0.3196
 1593SOL    HW1 6021   4.530   6.041   2.520 -1.4741  0.8156 -0.2072
 1593SOL    HW2 6022   4.499   6.107   2.653 -1.2580  0.2133  0.1426
 1594SOL     OW 6023   0.483   6.841   0.236  0.3776  0.0919 -0.3779
 1594SOL    HW1 6024   0.534   6.881   0.307 -0.6964  3.1165 -1.2123
 1594SOL    HW2 6025   0.548   6.817   0.170  1.0296  1.1673 -0.1470
 1595SOL     OW 6026   1.740   0.067   1.466  0.1184 -0.2928  0.7943
 1595SOL    HW1 6027   1.780   0.142   1.424  0.3510 -1.1831 -0.5945
 1595SOL    HW2 6028   1.768   0.074   1.558  3.9398 -1.1443 -0.1934
 1596SOL     OW 6029   6.826   7.086   7.089 -0.1242  0.3433 -0.2443
 1596SOL    HW1 6030   6.839   7.144   7.014  1.4129  0.1840 -0.1096
 1596SOL    HW2 6031   6.731   7.073   7.093 -0.0755 -1.7354 -3.7444
 1597SOL     OW 6032   6.860   1.341   2.148 -0.4381 -0.3724 -0.0003
 1597SOL    HW1 6033   6.882   1.422   2.195 -0.5514 -1.0419  1.2228
 1597SOL    HW2 6034   6.765   1.343   2.140 -0.2873  0.5911 -1.7740
 1598SOL     OW 6035   5.548   5.179   0.711 -0.0070 -0.2505 -0.5130
 1598SOL    HW1 6036   5.530   5.188   0.804 -1.6925 -1.0850 -0.7317
 1598SOL    HW2 6037   5.468   5.208   0.668  0.1305 -1.4432 -1.6284
 1599SOL     OW 6038   5.342   4.692   5.926  0.2192  0.4711  0.4345
 1599SOL    HW1 6039   5.408   4.623   5.931 -0.0932  0.1341 -0.2020
 1599SOL    HW2 6040   5.311   4.701   6.016  2.9387  2.3891  1.2638
 1600SOL     OW 6041   5.148   3.750   5.747 -0.2593  0.1667 -0.0244
 1600SOL    HW1 6042   5.075   3.785   5.695  0.0924  1.6005  0.4311
 1600SOL    HW2 6043   5.226   3.792   5.710  0.5227 -2.3349 -1.3661
 1601SOL     OW 6044   1.488   8.054   5.655  0.0550 -0.2420 -0.0809
 1601SOL    HW1 6045   1.569   8.017   5.619  1.1941  0.8052  1.3661
 1601SOL    HW2 6046   1.456   8.112   5.586  0.3798 -0.8693 -0.7731
 1602SOL     OW 6047   0.681   1.142   3.516 -0.5789  0.4275  0.1792
 1602SOL    HW1 6048   0.675   1.188   3.600  0.9722  0.1563  0.4460
 1602SOL    HW2 6049   0.702   1.052   3.539  4.0225  1.1913 -0.6011
 1603SOL     OW 6050   2.466   5.530   0.853  0.0847 -0.2107  0.4115
 1603SOL    HW1 6051   2.532   5.472   0.891  1.2463  1.0821  0.3876
 1603SOL    HW2 6052   2.452   5.496   0.765  2.6588  1.0165 -0.5367
 1604SOL     OW 6053   4.327   2.603   1.537 -0.5917  0.3398  0.3912
 1604SOL    HW1 6054   4.398   2.665   1.521 -0.6308  0.1382 -0.5903
 1604SOL    HW2 6055   4.255   2.634   1.482 -1.1454  0.3337  1.1020
 1605SOL     OW 6056   6.173   3.579   1.529  0.3578 -0.6800  0.0898
 1605SOL    HW1 6057   6.080   3.602   1.538  0.5317 -0.4000  1.2281
 1605SOL    HW2 6058   6.192   3.593   1.436 -0.6076 -0.2563 -0.0536
 1606SOL     OW 6059   6.178   8.174   0.645 -0.0494  0.4189  0.0811
 1606SOL    HW1 6060   6.178   8.265   0.613 -2.0147 -0.2406 -1.8936
 1606SOL    HW2 6061   6.250   8.132   0.598  0.4160  0.7749  0.4727
 1607SOL     OW 6062   2.979   3.646   5.132  0.3163  0.3743 -0.0095
 1607SOL    HW1 6063   3.042   3.673   5.199  0.7516  1.6840 -0.9406
 1607SOL    HW2 6064   3.031   3.636   5.053 -0.4156  0.0578 -0.4526
 1608SOL     OW 6065   4.282   4.391   6.199  0.1174  0.4643 -0.0102
 1608SOL    HW1 6066   4.224   4.450   6.247  0.2250 -0.1826  0.9314
 1608SOL    HW2 6067   4.352   4.447   6.167  0.6116  0.7362  1.4950
 1609SOL     OW 6068   0.383   1.167   7.743 -0.5794  0.7556 -0.1679
 1609SOL    HW1 6069   0.299   1.171   7.789 -1.7969  0.6636 -2.2908
 1609SOL    HW2 6070   0.424   1.252   7.761 -1.3604  1.0068  0.4604
 1610SOL     OW 6071   3.041   1.345   4.641 -0.0664 -0.4909 -0.0254
 1610SOL    HW1 6072   3.132   1.329   4.666 -0.7796  0.0983  3.1213
 1610SOL    HW2 6073   3.045   1.422   4.585  1.2458  0.3704  1.2216
 1611SOL     OW 6074   4.849   6.282   7.500 -0.2367  0.5506  0.2324
 1611SOL    HW1 6075   4.867   6.191   7.476 -0.4440  0.9742 -1.6186
 1611SOL    HW2 6076   4.819   6.277   7.590  0.2796 -1.1599  0.3357
 1612SOL     OW 6077   4.075   1.128   4.820 -0.2142  0.2382 -0.1923
 1612SOL    HW1 6078   4.105   1.219   4.815  0.7433 -0.0373  0.4861
 1612SOL    HW2 6079   4.148   1.076   4.786 -0.7361 -0.2850 -0.5166
 1613SOL     OW 6080   6.633   5.128   7.651  0.1627  0.3286 -0.2448
 1613SOL    HW1 6081   6.620   5.214   7.690  1.5084  0.3692  0.1432
 1613SOL    HW2 6082   6.580   5.069   7.705 -1.3909  1.0174 -0.9916
 1614SOL     OW 6083   7.806   6.227   8.168 -0.0285  0.0623  0.7344
 1614SOL    HW1 6084   7.710   6.225   8.162  0.2042 -2.3754 -4.7224
 1614SOL    HW2 6085   7.829   6.143   8.208 -0.0647 -0.5061 -0.4367
 1615SOL     OW 6086   7.710   0.061   2.511 -0.0850  0.0805 -0.5062
 1615SOL    HW1 6087   7.675   0.131   2.457  0.0749  0.1612 -0.5064
 1615SOL    HW2 6088   7.647   0.051   2.582  0.8644  1.5487  0.5680
 1616SOL     OW 6089   5.692   3.077   3.306  0.5888 -0.2382  0.0626
 1616SOL    HW1 6090   5.736   2.998   3.275  1.2111 -0.7247  2.0962
 1616SOL    HW2 6091   5.599   3.056   3.299  0.7485 -1.2937  0.8463
 1617SOL     OW 6092   8.036   6.857   5.193 -0.1198 -0.5988  0.1059
 1617SOL    HW1 6093   7.998   6.787   5.245  0.4231 -0.8617  0.1431
 1617SOL    HW2 6094   7.984   6.857   5.112 -1.0458 -0.1031  0.6933
 1618SOL     OW 6095   1.550   3.770   2.263  0.2100 -0.2739 -0.2058
 1618SOL    HW1 6096   1.501   3.787   2.183 -0.5813  1.3912  0.5935
 1618SOL    HW2 6097   1.490   3.795   2.334  1.4393 -0.2582  0.8571
 1619SOL     OW 6098   0.479   2.160   3.224  0.2359  0.1745  0.1825
 1619SOL    HW1 6099   0.459   2.251   3.202  2.3887  0.5837 -0.1551
 1619SOL    HW2 6100   0.569   2.148   3.195  0.8343 -1.3184  2.6010
 1620SOL     OW 6101   1.069   1.949   7.651 -0.5188  0.6449 -0.0724
 1620SOL    HW1 6102   1.044   2.004   7.725 -1.0153  0.2819  0.0337
 1620SOL    HW2 6103   1.097   1.867   7.692 -0.4172  0.5852 -0.2634
 1621SOL     OW 6104   1.279   0.391   1.965  0.0198 -0.5099  0.4008
 1621SOL    HW1 6105   1.334   0.452   1.915 -0.8185 -1.0812 -1.2728
 1621SOL    HW2 6106   1.334   0.364   2.038  1.4201  0.0888 -0.4072
 1622SOL     OW 6107   3.945   2.095   4.758  0.9196  0.5862  0.6294
 1622SOL    HW1 6108   3.970   2.148   4.682  0.6098  0.8991  0.7453
 1622SOL    HW2 6109   3.872   2.042   4.727  1.3763  0.0599  0.4484
 1623SOL     OW 6110   7.761   5.913   3.790 -0.1825  0.1507  0.3662
 1623SOL    HW1 6111   7.666   5.929   3.784 -0.8623 -3.7591 -1.3616
 1623SOL    HW2 6112   7.799   5.975   3.728 -1.5640  2.0191  1.3331
 1624SOL     OW 6113   0.838   7.133   6.194  0.2410  0.0770  0.0462
 1624SOL    HW1 6114   0.763   7.160   6.140  0.8665 -0.8295 -1.3088
 1624SOL    HW2 6115   0.827   7.181   6.276 -0.4980  1.8060 -1.0457
 1625SOL     OW 6116   3.861   0.275   5.121  0.1956  0.1176  0.1184
 1625SOL    HW1 6117   3.867   0.247   5.030  0.2138 -0.0181  0.1597
 1625SOL    HW2 6118   3.770   0.258   5.145 -0.0810  1.1492 -0.1912
 1626SOL     OW 6119   0.698   2.610   4.411  0.4912  0.0359  0.5153
 1626SOL    HW1 6120   0.738   2.530   4.376 -1.3956 -1.4368  1.6276
 1626SOL    HW2 6121   0.612   2.582   4.440 -1.2512  3.0682 -1.5418
 1627SOL     OW 6122   4.216   5.789   6.990  0.0593 -0.4648  0.0157
 1627SOL    HW1 6123   4.167   5.792   7.072  0.5081 -0.2207  0.2802
 1627SOL    HW2 6124   4.151   5.770   6.923 -0.4288  0.0811  0.3338
 1628SOL     OW 6125   1.479   4.741   4.944  0.3361 -0.2530  0.5028
 1628SOL    HW1 6126   1.423   4.779   4.875  0.9587 -1.4215 -0.6628
 1628SOL    HW2 6127   1.566   4.777   4.927  0.7331 -1.4590 -0.0330
 1629SOL     OW 6128   6.467   7.935   1.392 -0.0234  0.7677  0.3340
 1629SOL    HW1 6129   6.533   7.997   1.360  0.2625  0.7517  0.8874
 1629SOL    HW2 6130   6.481   7.933   1.487  0.0945 -0.2928  0.2948
 1630SOL     OW 6131   3.856   1.483   1.689  0.1623 -0.3091  0.0019
 1630SOL    HW1 6132   3.925   1.499   1.625 -0.3472  1.1510 -0.1997
 1630SOL    HW2 6133   3.872   1.547   1.759 -0.9747  0.0436 -0.0468
 1631SOL     OW 6134   7.511   2.390   3.510  0.2156  0.3006  0.3445
 1631SOL    HW1 6135   7.598   2.361   3.539  0.0693  0.4487  0.9234
 1631SOL    HW2 6136   7.450   2.346   3.568 -0.0959  0.2923  0.0122
 1632SOL     OW 6137   5.988   1.606   3.871 -0.4220 -0.3374  0.0334
 1632SOL    HW1 6138   6.005   1.574   3.782 -0.9825  0.6192 -0.4287
 1632SOL    HW2 6139   5.998   1.701   3.864  0.8337 -0.3478  1.2922
 1633SOL     OW 6140   8.305   1.545   1.100  0.2795  0.1842  0.0336
 1633SOL    HW1 6141   8.255   1.537   1.018  1.6007  0.1485 -0.7736
 1633SOL    HW2 6142   8.390   1.578   1.073  1.2675 -1.3503  1.2306
 1634SOL     OW 6143   6.468   5.887   1.099  0.1510 -0.1826 -0.4957
 1634SOL    HW1 6144   6.404   5.835   1.146  1.2977 -0.3993  0.8605
 1634SOL    HW2 6145   6.440   5.883   1.007 -2.6251  0.9978  0.2456
 1635SOL     OW 6146   5.387   7.270   4.428 -0.2082  0.0694 -0.7509
 1635SOL    HW1 6147   5.457   7.255   4.492 -0.5847 -0.9801 -0.5588
 1635SOL    HW2 6148   5.379   7.365   4.422  0.4780  0.1844  0.0605
 1636SOL     OW 6149   2.908   3.320   2.821 -0.1182  0.2794  0.2160
 1636SOL    HW1 6150   2.999   3.333   2.849  0.4146 -1.3474 -0.6880
 1636SOL    HW2 6151   2.855   3.360   2.890  1.2580  0.1768  1.3476
 1637SOL     OW 6152   7.853   4.145   8.152 -0.4252  0.2253 -0.0319
 1637SOL    HW1 6153   7.900   4.097   8.220  0.3486  1.6037  0.4214
 1637SOL    HW2 6154   7.905   4.131   8.073 -0.1579  0.3680  0.1163
 1638SOL     OW 6155   5.240   1.185   4.290 -0.0416  0.1586 -0.3791
 1638SOL    HW1 6156   5.320   1.216   4.332  0.3649  0.1535 -1.1434
 1638SOL    HW2 6157   5.171   1.238   4.328  0.7361  2.7552 -2.4066
 1639SOL     OW 6158   3.368   7.563   0.937 -0.8536  0.5365  0.2371
 1639SOL    HW1 6159   3.322   7.640   0.903 -2.2897 -0.3202  0.1775
 1639SOL    HW2 6160   3.396   7.516   0.859  2.1865  2.2219  0.2652
 1640SOL     OW 6161   0.784   1.902   2.126  0.0770  0.2633 -0.4070
 1640SOL    HW1 6162   0.699   1.917   2.168 -0.4804 -0.6672 -1.1713
 1640SOL    HW2 6163   0.811   1.988   2.095  0.2990  0.8819  1.4650
 1641SOL     OW 6164   0.459   2.509   3.167  0.2282  0.5061 -0.0076
 1641SOL    HW1 6165   0.369   2.514   3.200  0.0784 -0.6588 -0.2142
 1641SOL    HW2 6166   0.455   2.446   3.095  1.0705  1.0131 -0.5127
 1642SOL     OW 6167   2.919   1.885   0.672  0.2067  0.6140  0.7174
 1642SOL    HW1 6168   2.926   1.790   0.678 -0.8353  0.4833 -0.0266
 1642SOL    HW2 6169   2.882   1.912   0.756  0.1063  0.3150  0.7693
 1643SOL     OW 6170   2.954   6.921   8.138  0.4791  0.3231 -0.1004
 1643SOL    HW1 6171   2.911   6.845   8.179 -0.4141  1.1794  0.5762
 1643SOL    HW2 6172   2.959   6.898   8.046 -0.0929 -0.4361  0.0463
 1644SOL     OW 6173   4.608   0.499   7.952 -0.0624 -0.0745 -0.0338
 1644SOL    HW1 6174   4.575   0.424   7.901  0.2339  0.6745 -1.3419
 1644SOL    HW2 6175   4.629   0.565   7.886  3.1463 -0.1608  0.8596
 1645SOL     OW 6176   7.981   5.822   8.191 -0.3878  0.0258 -0.2715
 1645SOL    HW1 6177   7.968   5.735   8.227  1.9665  0.0994  0.7995
 1645SOL    HW2 6178   7.985   5.808   8.096  0.9650 -1.1713 -0.0519
 1646SOL     OW 6179   5.821   4.529   0.649 -0.2539 -0.4561  0.6205
 1646SOL    HW1 6180   5.755   4.584   0.607  2.4763  1.6549 -1.0808
 1646SOL    HW2 6181   5.815   4.551   0.742  1.0143  3.1626 -0.0526
 1647SOL     OW 6182   0.605   4.846   6.776  0.0724 -0.2251  0.0773
 1647SOL    HW1 6183   0.645   4.916   6.725 -0.7648  0.7085  0.6811
 1647SOL    HW2 6184   0.678   4.787   6.797  0.5987 -0.0716 -1.2921
 1648SOL     OW 6185   0.705   2.987   1.045  0.1833  0.7639 -0.6840
 1648SOL    HW1 6186   0.613   3.009   1.057  0.0754  0.8485 -1.6095
 1648SOL    HW2 6187   0.743   2.990   1.133 -0.6316  1.0153 -0.3413
 1649SOL     OW 6188   4.552   6.235   6.679  0.2553  0.2052  0.1501
 1649SOL    HW1 6189   4.459   6.232   6.660 -0.1404  1.7900  1.7227
 1649SOL    HW2 6190   4.564   6.177   6.754  0.5957 -0.2955 -0.2893
 1650SOL     OW 6191   4.387   6.954   3.893 -0.0213  0.0125  0.2990
 1650SOL    HW1 6192   4.373   7.048   3.890  0.6942  0.1056 -0.3400
 1650SOL    HW2 6193   4.301   6.917   3.910 -0.4587  0.7302 -0.3345
 1651SOL     OW 6194   3.839   8.110   7.748  0.3327  0.2643  0.0360
 1651SOL    HW1 6195   3.858   8.023   7.713  0.2242  1.1309 -2.2383
 1651SOL    HW2 6196   3.790   8.093   7.829  1.5216 -1.7897  0.3479
 1652SOL     OW 6197   7.216   3.031   7.260  0.0678 -0.2693  0.0971
 1652SOL    HW1 6198   7.151   2.961   7.254 -0.7360  0.4307  0.5437
 1652SOL    HW2 6199   7.292   2.990   7.301 -0.4278 -0.8522  0.4290
 1653SOL     OW 6200   4.089   6.078   2.202 -0.6398  0.2317  0.1900
 1653SOL    HW1 6201   4.028   6.112   2.268  0.1395  1.2603  0.3950
 1653SOL    HW2 6202   4.157   6.145   2.197  0.4844 -0.9266 -0.0117
 1654SOL     OW 6203   3.034   0.890   4.401  0.9979  0.6899  0.1787
 1654SOL    HW1 6204   2.978   0.962   4.428 -0.7060 -0.5826  0.0964
 1654SOL    HW2 6205   3.047   0.838   4.480  1.5669  0.6326  0.0568
 1655SOL     OW 6206   1.389   3.640   0.498 -0.1957 -0.1150 -0.5147
 1655SOL    HW1 6207   1.455   3.704   0.472 -0.7791  0.7071 -0.0078
 1655SOL    HW2 6208   1.380   3.582   0.423  0.8126  0.0069 -0.7342
 1656SOL     OW 6209   1.354   6.728   0.938 -0.2498  0.4738 -0.1909
 1656SOL    HW1 6210   1.414   6.712   0.865  0.4527  1.3862  0.1672
 1656SOL    HW2 6211   1.351   6.645   0.985  0.8164  0.4291 -0.1750
 1657SOL     OW 6212   7.487   0.087   3.045  0.2199  0.1066 -0.0498
 1657SOL    HW1 6213   7.491   0.139   3.126  1.0155 -3.4159  2.2821
 1657SOL    HW2 6214   7.578   0.083   3.015  0.3399 -0.9253  0.4435
 1658SOL     OW 6215   0.319   6.206   5.006  0.0301  0.0336 -0.6559
 1658SOL    HW1 6216   0.231   6.243   5.010  0.1675  0.4179 -1.1799
 1658SOL    HW2 6217   0.305   6.111   5.006 -0.3106  0.0713  0.9224
 1659SOL     OW 6218   2.545   5.557   4.168 -0.5941 -0.4729 -0.4303
 1659SOL    HW1 6219   2.450   5.556   4.173 -0.6398 -0.2573 -1.1413
 1659SOL    HW2 6220   2.574   5.546   4.258 -1.3246  3.7283  0.4326
 1660SOL     OW 6221   2.663   0.403   3.126 -0.1928  0.3806 -0.1947
 1660SOL    HW1 6222   2.651   0.498   3.123 -1.2461  0.2176 -2.7776
 1660SOL    HW2 6223   2.575   0.367   3.110  0.1826 -1.0243  0.7943
 1661SOL     OW 6224   3.878   7.122   4.814 -0.0729  0.1309 -0.7753
 1661SOL    HW1 6225   3.906   7.098   4.726  1.2552  2.3083 -0.9800
 1661SOL    HW2 6226   3.957   7.117   4.867 -0.5782  0.2359 -0.0016
 1662SOL     OW 6227   3.774   0.342   0.521  0.2258 -0.0140  0.0099
 1662SOL    HW1 6228   3.860   0.355   0.479 -1.2678  0.6937 -3.0135
 1662SOL    HW2 6229   3.762   0.419   0.576  0.4653  1.1516 -1.5385
 1663SOL     OW 6230   8.137   6.604   3.386  0.2038 -0.1912 -0.1776
 1663SOL    HW1 6231   8.168   6.563   3.305  0.4950 -1.1075  0.3854
 1663SOL    HW2 6232   8.217   6.626   3.434  0.0267 -2.3405  1.1708
 1664SOL     OW 6233   0.011   5.860   3.066 -0.1977 -1.1290  0.0090
 1664SOL    HW1 6234  -0.083   5.874   3.067  0.0320  0.5293 -0.1245
 1664SOL    HW2 6235   0.022   5.766   3.076 -1.8775 -1.3668 -0.3736
 1665SOL     OW 6236   6.537   5.031   2.919 -0.4787 -0.7005 -0.0791
 1665SOL    HW1 6237   6.584   4.972   2.860  0.4786  0.1934 -0.2334
 1665SOL    HW2 6238   6.449   4.994   2.927  0.0095 -1.9337 -0.4602
 1666SOL     OW 6239   2.770   4.625   6.696  0.0089 -0.6216  0.0297
 1666SOL    HW1 6240   2.859   4.651   6.722 -0.2651  0.1878  0.1725
 1666SOL    HW2 6241   2.749   4.552   6.754  1.2967 -2.0652 -1.2726
 1667SOL     OW 6242   4.247   7.075   1.236 -0.5545 -0.0879  0.2139
 1667SOL    HW1 6243   4.177   7.132   1.205 -1.1200 -0.6665  0.4356
 1667SOL    HW2 6244   4.218   6.986   1.216 -0.4656 -0.4112  1.4644
 1668SOL     OW 6245   3.552   6.771   1.684  0.2174 -0.0121  0.5668
 1668SOL    HW1 6246   3.464   6.801   1.709 -0.3573 -0.9346 -0.3095
 1668SOL    HW2 6247   3.611   6.832   1.728 -0.9039  1.7765 -0.3253
 1669SOL     OW 6248   0.665   8.218   2.747  0.4812  0.1358  0.2513
 1669SOL    HW1 6249   0.667   8.154   2.676  0.3190  0.9795 -0.5158
 1669SOL    HW2 6250   0.592   8.189   2.803 -0.3082  0.2885 -0.6860
 1670SOL     OW 6251   6.677   4.447   2.388  0.1669  0.1023 -0.2249
 1670SOL    HW1 6252   6.610   4.378   2.392  0.0956  0.0635 -1.7126
 1670SOL    HW2 6253   6.635   4.523   2.429 -0.8216  0.0951 -1.1966
 1671SOL     OW 6254   4.948   8.123   2.526  0.3005  0.0385 -0.1768
 1671SOL    HW1 6255   4.931   8.137   2.619  0.3773 -0.7091 -0.0400
 1671SOL    HW2 6256   5.027   8.068   2.525  1.7410  2.0641 -0.7424
 1672SOL     OW 6257   2.249   3.924   3.025 -0.0319  0.2092 -0.2295
 1672SOL    HW1 6258   2.318   3.943   2.961  0.2513  1.1770  0.3580
 1672SOL    HW2 6259   2.177   3.888   2.972 -0.6001  2.9617 -1.4004
 1673SOL     OW 6260   7.437   6.668   5.324  0.4901  0.7772 -0.3451
 1673SOL    HW1 6261   7.469   6.615   5.251 -0.1871  1.8777 -1.4542
 1673SOL    HW2 6262   7.351   6.698   5.296 -0.6359 -0.3624  1.7173
 1674SOL     OW 6263   6.982   6.023   1.991  0.5976 -0.2399 -0.2613
 1674SOL    HW1 6264   6.989   5.968   2.068 -0.9216 -0.0256  0.0496
 1674SOL    HW2 6265   6.945   6.105   2.023 -0.2517 -0.2234 -1.2467
 1675SOL     OW 6266   4.102   7.189   6.050 -0.2308 -1.0380 -0.5673
 1675SOL    HW1 6267   4.167   7.243   6.096 -0.2145 -1.3645 -0.2064
 1675SOL    HW2 6268   4.018   7.220   6.083 -0.2962 -0.1915 -1.4933
 1676SOL     OW 6269   0.473   3.719   6.898  0.3718 -0.0159 -0.1303
 1676SOL    HW1 6270   0.472   3.706   6.993  1.3591  2.9431  0.3377
 1676SOL    HW2 6271   0.566   3.721   6.875  0.1377 -0.7191 -1.1632
 1677SOL     OW 6272   5.488   2.597   0.007  0.2772  0.0821  0.2200
 1677SOL    HW1 6273   5.441   2.612  -0.074  0.9215 -0.0839 -0.1922
 1677SOL    HW2 6274   5.545   2.673   0.016 -1.0828  0.9744  1.4517
 1678SOL     OW 6275   5.987   6.606   3.535  0.1420  0.1475  0.1185
 1678SOL    HW1 6276   5.962   6.694   3.563  2.0720  0.1226  2.0974
 1678SOL    HW2 6277   5.943   6.547   3.595  0.5090 -0.1399  0.1134
 1679SOL     OW 6278   2.863   7.107   3.928  0.3511 -0.5394  0.6486
 1679SOL    HW1 6279   2.869   7.190   3.975 -0.0857 -1.3216  2.1092
 1679SOL    HW2 6280   2.770   7.086   3.928  0.2419 -0.1581 -1.2930
 1680SOL     OW 6281   0.220   1.055   0.195  0.3007  0.3415 -0.1731
 1680SOL    HW1 6282   0.188   1.054   0.105  1.2353 -1.6465 -0.5189
 1680SOL    HW2 6283   0.217   0.963   0.222 -0.3049  0.9481  1.9512
 1681SOL     OW 6284   2.606   0.932   6.972 -0.0605  0.0810 -0.1266
 1681SOL    HW1 6285   2.661   0.904   7.045 -0.7630 -3.0174 -0.7037
 1681SOL    HW2 6286   2.524   0.960   7.012 -0.4642 -1.6595  0.3020
 1682SOL     OW 6287   3.867   3.112   2.622  0.2396 -0.4449 -0.6302
 1682SOL    HW1 6288   3.959   3.120   2.645  0.2617 -0.6551 -0.6426
 1682SOL    HW2 6289   3.848   3.190   2.570  0.4053 -0.3937 -0.6134
 1683SOL     OW 6290   7.323   3.457   0.942 -0.2140 -0.1948  0.2850
 1683SOL    HW1 6291   7.398   3.491   0.894  0.0843 -1.6803 -0.3350
 1683SOL    HW2 6292   7.325   3.502   1.026  1.0893  0.1306  0.0836
 1684SOL     OW 6293   7.217   7.124   4.665 -0.2644  0.1661 -0.3984
 1684SOL    HW1 6294   7.191   7.205   4.710 -1.7141 -0.3486 -0.2911
 1684SOL    HW2 6295   7.223   7.149   4.573 -0.7775  0.3817 -0.3741
 1685SOL     OW 6296   6.387   8.258   0.313 -0.4565 -0.6291 -0.1157
 1685SOL    HW1 6297   6.303   8.273   0.269 -0.4280  0.2580  0.1258
 1685SOL    HW2 6298   6.435   8.201   0.253 -0.4532  0.4856 -1.1987
 1686SOL     OW 6299   3.273   3.363   3.909 -0.7596 -0.6218  0.1470
 1686SOL    HW1 6300   3.330   3.438   3.892 -0.2576 -0.8636  0.7718
 1686SOL    HW2 6301   3.187   3.391   3.878 -0.2650 -0.3286 -0.9633
 1687SOL     OW 6302   6.542   3.945   2.590  0.2322 -0.3085 -0.0877
 1687SOL    HW1 6303   6.636   3.934   2.577  0.2850 -0.7254  0.6304
 1687SOL    HW2 6304   6.532   4.036   2.619  0.1646  0.4646 -2.4515
 1688SOL     OW 6305   4.589   6.527   3.468 -0.0300  0.6495 -0.3544
 1688SOL    HW1 6306   4.506   6.510   3.423  0.1740  1.5327 -1.0827
 1688SOL    HW2 6307   4.564   6.572   3.548 -0.3474 -0.2638  0.0638
 1689SOL     OW 6308   6.579   1.440   1.890  0.0802  0.2445  0.8702
 1689SOL    HW1 6309   6.615   1.351   1.888 -0.1123  0.1420  1.7116
 1689SOL    HW2 6310   6.540   1.452   1.803 -0.2285 -0.6408  0.8803
 1690SOL     OW 6311   2.959   1.944   2.292 -0.4389  0.3241 -0.2849
 1690SOL    HW1 6312   3.041   1.967   2.249 -0.1808 -1.7621 -0.9269
 1690SOL    HW2 6313   2.891   1.982   2.235  0.0183  0.6219 -0.6340
 1691SOL     OW 6314   5.058   6.249   0.848 -0.0481 -0.1489 -0.1483
 1691SOL    HW1 6315   5.115   6.211   0.781  0.2838 -0.5472  0.3542
 1691SOL    HW2 6316   4.980   6.194   0.847  0.3735 -0.7647  0.4817
 1692SOL     OW 6317   7.020   5.331   5.494  0.2562 -0.0497 -0.1634
 1692SOL    HW1 6318   7.041   5.238   5.507  0.4262  0.1251  0.8092
 1692SOL    HW2 6319   6.925   5.332   5.479  0.1575 -0.3161  0.4406
 1693SOL     OW 6320   0.981   4.801   8.154 -0.2873  0.0245  0.2762
 1693SOL    HW1 6321   1.021   4.727   8.200  0.0167 -0.2494 -0.4149
 1693SOL    HW2 6322   0.984   4.873   8.216  0.3984 -0.2592  0.5794
 1694SOL     OW 6323   1.284   2.054   7.949  0.3806  0.5738  0.7867
 1694SOL    HW1 6324   1.373   2.080   7.927 -0.0224  0.2278 -1.4672
 1694SOL    HW2 6325   1.293   1.993   8.022  2.1682 -0.7941 -0.5133
 1695SOL     OW 6326   3.327   4.741   6.010  0.0543 -0.0194  0.5925
 1695SOL    HW1 6327   3.274   4.664   6.030  1.3129 -2.0462 -3.3472
 1695SOL    HW2 6328   3.417   4.713   6.026  0.4866  0.7784 -0.3765
 1696SOL     OW 6329   6.672   6.788   3.557 -0.1840  0.7875 -0.8236
 1696SOL    HW1 6330   6.763   6.798   3.586 -0.7029  1.8285  0.5040
 1696SOL    HW2 6331   6.652   6.695   3.569  0.9525  0.4001 -1.8866
 1697SOL     OW 6332   6.692   4.256   0.926 -0.2332  0.4368 -0.0749
 1697SOL    HW1 6333   6.650   4.291   1.004  0.2523  0.6633  0.0827
 1697SOL    HW2 6334   6.621   4.214   0.878 -0.4598 -0.0578  0.6824
 1698SOL     OW 6335   3.486   1.701   8.056 -0.2036 -0.3517 -0.8833
 1698SOL    HW1 6336   3.417   1.743   8.005  1.0792  1.0733 -1.4748
 1698SOL    HW2 6337   3.549   1.772   8.074  0.8401 -1.5097  0.0837
 1699SOL     OW 6338   2.449   0.826   0.483 -0.2478 -0.6163  0.5774
 1699SOL    HW1 6339   2.490   0.810   0.399 -1.6162 -0.1547 -0.1971
 1699SOL    HW2 6340   2.368   0.775   0.481 -0.0303 -1.0460  1.8368
 1700SOL     OW 6341   1.512   1.997   5.309  0.0655  0.0325  0.5100
 1700SOL    HW1 6342   1.543   2.068   5.365 -0.4123  0.5649  0.0987
 1700SOL    HW2 6343   1.462   1.940   5.368 -0.5454  0.6582  0.5956
 1701SOL     OW 6344   1.339   0.432   8.108 -0.4698  0.1021 -0.1798
 1701SOL    HW1 6345   1.340   0.387   8.023  0.9411  0.0088 -0.1127
 1701SOL    HW2 6346   1.363   0.523   8.087 -2.6624  0.7063 -0.2234
 1702SOL     OW 6347   4.878   7.107   6.089 -0.1239 -0.0471 -0.4075
 1702SOL    HW1 6348   4.947   7.173   6.098  0.0321 -0.1234 -1.0156
 1702SOL    HW2 6349   4.862   7.077   6.178 -1.2886  1.9247  0.0613
 1703SOL     OW 6350   6.155   3.327   6.362 -0.0257  0.1933 -0.4565
 1703SOL    HW1 6351   6.091   3.270   6.404 -0.3565  1.1910  0.4163
 1703SOL    HW2 6352   6.218   3.267   6.321 -0.5775 -0.7868  0.1108
 1704SOL     OW 6353   3.689   5.696   2.681 -0.1161 -0.4350 -0.0936
 1704SOL    HW1 6354   3.764   5.667   2.630 -0.4150  2.7531 -2.4828
 1704SOL    HW2 6355   3.727   5.738   2.758  0.3597 -3.2708  1.3243
 1705SOL     OW 6356   2.996   7.999   3.382 -0.0451  0.0518  0.7043
 1705SOL    HW1 6357   3.021   7.913   3.416 -1.5174 -1.3750 -1.6736
 1705SOL    HW2 6358   2.920   7.982   3.326 -0.6647  2.9772  0.5607
 1706SOL     OW 6359   5.119   1.772   0.602 -0.3108 -0.0149  0.2220
 1706SOL    HW1 6360   5.167   1.722   0.667 -1.7677 -1.2405  0.3859
 1706SOL    HW2 6361   5.185   1.800   0.539  0.5876 -1.8318  0.3418
 1707SOL     OW 6362   5.326   5.451   3.166  0.1557  0.2947  0.0199
 1707SOL    HW1 6363   5.317   5.357   3.179 -1.5564  0.6129  1.3820
 1707SOL    HW2 6364   5.236   5.484   3.167  0.8123  2.1520  1.2846
 1708SOL     OW 6365   7.486   4.507   5.667 -0.2076 -0.3182  0.1752
 1708SOL    HW1 6366   7.525   4.493   5.753 -1.8107  0.8041  1.1122
 1708SOL    HW2 6367   7.424   4.434   5.656 -0.7725  0.1205  0.4351
 1709SOL     OW 6368   6.124   2.328   6.784  0.4847 -0.1162  0.0637
 1709SOL    HW1 6369   6.126   2.235   6.808 -0.8008  0.8528  4.2989
 1709SOL    HW2 6370   6.031   2.351   6.782  0.7453  0.9083 -1.9342
 1710SOL     OW 6371   0.460   5.847   3.754 -0.3250  0.1116 -0.4070
 1710SOL    HW1 6372   0.550   5.812   3.757 -0.0989  0.7094 -0.1860
 1710SOL    HW2 6373   0.423   5.825   3.840  0.2327  1.5035  0.2049
 1711SOL     OW 6374   5.131   5.079   2.662  0.5082  0.0495 -0.0054
 1711SOL    HW1 6375   5.193   5.007   2.652  1.8363  1.1902 -0.1195
 1711SOL    HW2 6376   5.155   5.142   2.594  0.1728  1.1691  0.8871
 1712SOL     OW 6377   5.578   0.457   3.491  0.0696  0.1236 -0.4151
 1712SOL    HW1 6378   5.642   0.528   3.493  1.3610 -1.0271 -0.2018
 1712SOL    HW2 6379   5.529   0.471   3.409  1.2761  0.4159 -1.0962
 1713SOL     OW 6380   0.008   6.390   2.256  0.0614 -0.4142  0.4412
 1713SOL    HW1 6381   0.021   6.352   2.169 -0.2555  0.4891 -0.0038
 1713SOL    HW2 6382   0.095   6.418   2.284  0.0011  0.2849 -0.0536
 1714SOL     OW 6383   3.401   4.036   1.367  0.0374 -0.0322 -0.9037
 1714SOL    HW1 6384   3.305   4.036   1.365 -0.0161  3.3539 -1.4945
 1714SOL    HW2 6385   3.423   4.003   1.454 -1.6956  0.6259 -0.1951
 1715SOL     OW 6386   4.545   6.020   6.111  0.1962  0.1653 -0.3964
 1715SOL    HW1 6387   4.463   5.972   6.099  0.8559 -1.5302  1.5494
 1715SOL    HW2 6388   4.520   6.102   6.153 -0.4642 -0.5810  0.6958
 1716SOL     OW 6389   3.299   0.960   4.053 -0.4412 -0.3458  1.1439
 1716SOL    HW1 6390   3.361   0.901   4.010 -0.3392  0.7955 -0.2893
 1716SOL    HW2 6391   3.330   1.048   4.032 -2.2513  0.2343  0.8190
 1717SOL     OW 6392   1.567   8.231   6.840  0.4023  0.0558 -0.1957
 1717SOL    HW1 6393   1.647   8.265   6.801  0.2835  1.7838  1.0277
 1717SOL    HW2 6394   1.520   8.191   6.766  0.9753  1.7399 -1.5129
 1718SOL     OW 6395   5.450   4.689   3.124  0.5682  0.5801 -0.0685
 1718SOL    HW1 6396   5.473   4.608   3.078  1.7170  1.3816 -0.9074
 1718SOL    HW2 6397   5.379   4.727   3.072  0.0342  0.1418  0.3204
 1719SOL     OW 6398   6.263   6.899   7.427 -0.2192  0.2002  0.1705
 1719SOL    HW1 6399   6.244   6.971   7.366 -0.1738 -1.7553 -2.2596
 1719SOL    HW2 6400   6.178   6.878   7.466 -0.8639 -0.5274 -1.5612
 1720SOL     OW 6401   0.841   3.780   0.026  0.2226 -0.0700  0.6715
 1720SOL    HW1 6402   0.775   3.713   0.010  0.1939  0.5621 -2.0542
 1720SOL    HW2 6403   0.848   3.784   0.122 -2.8468 -0.9096  0.9784
 1721SOL     OW 6404   6.709   1.857   7.024  0.5879 -0.8838 -0.3989
 1721SOL    HW1 6405   6.691   1.782   6.966  0.4547  0.7566 -2.5495
 1721SOL    HW2 6406   6.773   1.910   6.975 -0.1113  0.9476  0.6309
 1722SOL     OW 6407   7.641   3.257   5.504 -0.3242  0.0718  0.2281
 1722SOL    HW1 6408   7.581   3.322   5.469  2.1624  1.6465 -1.3187
 1722SOL    HW2 6409   7.595   3.217   5.577 -3.2745  1.0862 -1.0232
 1723SOL     OW 6410   2.302   7.671   1.816  0.0756  0.3550  0.6329
 1723SOL    HW1 6411   2.335   7.621   1.891  1.8417  0.8883  0.2249
 1723SOL    HW2 6412   2.345   7.632   1.740 -2.3613 -0.7459 -0.2334
 1724SOL     OW 6413   4.851   0.662   6.228 -0.0159 -0.5899  0.5186
 1724SOL    HW1 6414   4.939   0.647   6.263  0.4181  1.3464  0.3004
 1724SOL    HW2 6415   4.862   0.733   6.165 -1.4750 -1.3819 -0.6585
 1725SOL     OW 6416   5.979   5.586   4.310  0.1998  0.2808 -0.3442
 1725SOL    HW1 6417   5.933   5.666   4.286  1.4581  0.6901 -1.4748
 1725SOL    HW2 6418   6.005   5.599   4.401  1.2510  1.5837 -0.8177
 1726SOL     OW 6419   4.002   2.325   4.154 -0.4503 -0.3494 -0.2729
 1726SOL    HW1 6420   3.954   2.404   4.179 -0.4212 -0.8203  1.3347
 1726SOL    HW2 6421   3.946   2.282   4.089 -1.3597  0.0427  0.2390
 1727SOL     OW 6422   7.093   6.451   3.794  0.1108 -0.2713  0.4329
 1727SOL    HW1 6423   7.027   6.480   3.858 -0.2395  0.0607 -0.0696
 1727SOL    HW2 6424   7.091   6.518   3.726  1.0179 -0.2335  0.4388
 1728SOL     OW 6425   6.499   3.030   1.496  0.1862  0.4695  0.0402
 1728SOL    HW1 6426   6.489   3.078   1.579  0.5612  0.3240  0.1725
 1728SOL    HW2 6427   6.572   2.970   1.512  0.4817  0.6825 -0.5096
 1729SOL     OW 6428   7.362   8.228   3.894  0.1568 -0.2981 -0.3478
 1729SOL    HW1 6429   7.363   8.304   3.836 -0.0335  0.4989  0.6831
 1729SOL    HW2 6430   7.447   8.229   3.938 -0.9386  1.0496  1.8543
 1730SOL     OW 6431   7.347   2.060   5.091 -0.6223  0.2967 -0.0341
 1730SOL    HW1 6432   7.361   2.143   5.136  1.2623  0.2409 -0.4661
 1730SOL    HW2 6433   7.257   2.066   5.058 -0.5842  2.0825  0.1049
 1731SOL     OW 6434   4.494   7.791   0.186 -0.0393 -0.4622  0.1925
 1731SOL    HW1 6435   4.542   7.724   0.234 -0.3169 -1.1376 -0.4664
 1731SOL    HW2 6436   4.485   7.863   0.248 -1.2703 -1.7129  1.4917
 1732SOL     OW 6437   3.838   0.232   3.045 -0.1690  0.5371  0.1260
 1732SOL    HW1 6438   3.925   0.191   3.050 -0.0703  0.8084  0.5854
 1732SOL    HW2 6439   3.779   0.167   3.082  0.0544  1.0119  1.3269
 1733SOL     OW 6440   8.054   0.630   3.926 -0.3288  0.2965  0.1169
 1733SOL    HW1 6441   8.048   0.603   4.018 -2.3568  0.2054 -0.0068
 1733SOL    HW2 6442   8.014   0.717   3.924 -1.7613 -0.3750 -0.9347
 1734SOL     OW 6443   6.998   5.408   6.848 -0.2569 -0.5369 -0.2294
 1734SOL    HW1 6444   6.908   5.378   6.832  0.0414 -0.4564 -2.1526
 1734SOL    HW2 6445   6.992   5.503   6.849 -0.5685 -0.5420  2.0879
 1735SOL     OW 6446   1.208   1.543   4.478  0.2069  0.0507  0.3486
 1735SOL    HW1 6447   1.246   1.466   4.520  3.2105  0.0853 -2.1675
 1735SOL    HW2 6448   1.270   1.614   4.498 -0.5362  0.9781 -0.5787
 1736SOL     OW 6449   6.557   0.551   6.675 -0.2303 -0.1218 -0.9180
 1736SOL    HW1 6450   6.540   0.457   6.685  0.4068 -0.3181 -1.5686
 1736SOL    HW2 6451   6.653   0.556   6.670 -0.2311  0.6391 -0.1716
 1737SOL     OW 6452   8.072   4.041   0.732  0.7443 -0.0947  0.2865
 1737SOL    HW1 6453   8.147   4.100   0.741  0.5095  0.3990 -0.9571
 1737SOL    HW2 6454   8.093   3.987   0.656 -1.1805  1.5714 -1.4840
 1738SOL     OW 6455   5.762   0.414   5.157 -0.5460 -0.1113 -0.5709
 1738SOL    HW1 6456   5.702   0.355   5.110 -1.3543  1.5513 -1.6423
 1738SOL    HW2 6457   5.847   0.398   5.117 -0.9704  0.2516 -1.6440
 1739SOL     OW 6458   8.205   5.974   7.064 -0.0935  0.0273  0.1807
 1739SOL    HW1 6459   8.192   5.881   7.083  3.1611 -0.3984  0.7163
 1739SOL    HW2 6460   8.189   5.982   6.970 -2.0395 -0.7312  0.4355
 1740SOL     OW 6461   2.741   4.130   5.041 -0.0455 -0.2627  0.3058
 1740SOL    HW1 6462   2.830   4.099   5.053 -0.5181 -2.0627 -0.6238
 1740SOL    HW2 6463   2.696   4.057   4.998 -2.9918 -0.9122  4.2650
 1741SOL     OW 6464   5.497   8.197   2.146 -0.0927 -0.1057 -0.5004
 1741SOL    HW1 6465   5.414   8.214   2.102 -0.1370 -2.1883 -1.2620
 1741SOL    HW2 6466   5.559   8.180   2.075  0.7254  0.2549  0.1158
 1742SOL     OW 6467   4.853   7.034   3.254 -0.0673  0.0569 -0.3028
 1742SOL    HW1 6468   4.771   7.024   3.206  0.0670 -0.0433 -0.5139
 1742SOL    HW2 6469   4.830   7.017   3.345  0.3479 -3.3837 -0.7548
 1743SOL     OW 6470   5.955   4.972   5.000 -0.1822 -0.9113  0.0260
 1743SOL    HW1 6471   5.983   5.060   5.024 -0.0188 -0.5346 -1.5010
 1743SOL    HW2 6472   5.862   4.982   4.978 -0.1798 -1.1216 -0.0805
 1744SOL     OW 6473   0.623   7.165   7.320 -0.2292 -0.6321  0.4661
 1744SOL    HW1 6474   0.670   7.151   7.402  2.5668 -1.1358 -1.1650
 1744SOL    HW2 6475   0.635   7.258   7.301  1.4136 -1.0705 -0.7069
 1745SOL     OW 6476   8.286   7.129   0.617 -0.5581 -0.4185  0.0527
 1745SOL    HW1 6477   8.211   7.165   0.571 -1.1764 -1.1456  0.4737
 1745SOL    HW2 6478   8.337   7.205   0.645 -1.8058  0.1311  0.8569
 1746SOL     OW 6479   7.262   1.040   7.424 -0.4761  0.7308  0.3466
 1746SOL    HW1 6480   7.319   1.115   7.442  0.1656  0.2857  0.2056
 1746SOL    HW2 6481   7.285   0.976   7.492  1.4642 -0.6888 -1.5715
 1747SOL     OW 6482   2.374   1.865   2.854 -0.9978  0.3230 -0.4088
 1747SOL    HW1 6483   2.319   1.798   2.813 -0.2935 -1.6564  1.7279
 1747SOL    HW2 6484   2.317   1.941   2.864 -2.8659 -1.1284  0.2896
 1748SOL     OW 6485   5.216   0.460   1.507 -0.0954 -0.0043 -0.3533
 1748SOL    HW1 6486   5.215   0.375   1.462 -0.0110  0.5184 -1.3511
 1748SOL    HW2 6487   5.292   0.456   1.565 -1.0035 -1.2191  0.7939
 1749SOL     OW 6488   6.749   3.337   0.817 -1.0298  0.3301  0.0035
 1749SOL    HW1 6489   6.742   3.347   0.723 -0.7517 -1.4704 -0.2204
 1749SOL    HW2 6490   6.733   3.244   0.833  0.2264  0.3557  1.5828
 1750SOL     OW 6491   5.220   2.673   4.180  0.1675 -0.9369 -0.7694
 1750SOL    HW1 6492   5.288   2.714   4.233  0.0480  0.3295 -1.5513
 1750SOL    HW2 6493   5.240   2.580   4.181  1.1466 -0.7210  0.0835
 1751SOL     OW 6494   4.850   1.589   2.233  0.3160  0.2891 -0.2532
 1751SOL    HW1 6495   4.934   1.544   2.247  0.7314  1.2644  0.3981
 1751SOL    HW2 6496   4.842   1.648   2.308 -0.2612  1.2573 -1.0714
 1752SOL     OW 6497   5.918   2.933   4.158 -0.1282 -0.4700  0.6006
 1752SOL    HW1 6498   5.915   2.926   4.253  2.2785 -0.2881  0.7105
 1752SOL    HW2 6499   5.945   3.024   4.141 -3.7406  0.5212 -0.3433
 1753SOL     OW 6500   5.078   5.456   6.830  0.4312  0.0100  0.1350
 1753SOL    HW1 6501   5.155   5.436   6.777 -0.1195  0.1247 -0.7257
 1753SOL    HW2 6502   5.059   5.548   6.811 -0.5359 -0.3074 -0.4695
 1754SOL     OW 6503   5.431   2.385   0.162  0.0292  0.1755 -0.1913
 1754SOL    HW1 6504   5.454   2.467   0.119 -1.1882  0.9031  0.5195
 1754SOL    HW2 6505   5.348   2.403   0.206  0.6241 -0.9208  1.4284
 1755SOL     OW 6506   0.287   1.560   1.142 -0.2732  0.3431 -0.3884
 1755SOL    HW1 6507   0.356   1.512   1.187 -0.5696  0.4510  0.1857
 1755SOL    HW2 6508   0.272   1.637   1.196 -2.1296 -0.6080  0.4952
 1756SOL     OW 6509   4.827   8.001   3.491 -0.1284 -0.2946  0.4994
 1756SOL    HW1 6510   4.863   7.936   3.552 -2.5515 -2.3001 -0.1265
 1756SOL    HW2 6511   4.736   8.011   3.518 -0.1250  1.9400 -0.2161
 1757SOL     OW 6512   2.781   5.439   1.101  0.4791 -0.3991  0.2348
 1757SOL    HW1 6513   2.727   5.367   1.069 -0.3199 -0.2680  1.2708
 1757SOL    HW2 6514   2.861   5.397   1.133 -0.2408 -0.8835  1.3907
 1758SOL     OW 6515   4.098   5.390   7.767  0.4613  0.2505  0.1506
 1758SOL    HW1 6516   4.088   5.470   7.716  1.3607  0.3809  0.1767
 1758SOL    HW2 6517   4.088   5.417   7.858  0.4661  0.2864  0.1403
 1759SOL     OW 6518   4.411   2.255   8.030 -0.7499  0.0749  0.1159
 1759SOL    HW1 6519   4.338   2.312   8.006  0.0789  1.2726  0.4160
 1759SOL    HW2 6520   4.392   2.230   8.121 -0.1673  1.3610  0.5965
 1760SOL     OW 6521   1.924   5.047   2.143  0.0396 -0.4015  0.0628
 1760SOL    HW1 6522   1.955   4.965   2.181 -1.3435 -1.4205 -0.9319
 1760SOL    HW2 6523   1.976   5.058   2.063  0.1377 -0.3942  0.1284
 1761SOL     OW 6524   6.491   3.523   6.129  0.0244 -0.3815 -0.0524
 1761SOL    HW1 6525   6.586   3.514   6.124  0.2006  1.4494 -0.2520
 1761SOL    HW2 6526   6.457   3.445   6.086  1.4181 -2.4196  2.4229
 1762SOL     OW 6527   4.767   4.099   1.998 -0.4840 -0.6077  0.5265
 1762SOL    HW1 6528   4.807   4.168   2.050  3.6832 -1.9853 -0.6761
 1762SOL    HW2 6529   4.791   4.120   1.907 -2.4240 -1.5848 -0.2536
 1763SOL     OW 6530   4.404   1.988   4.959  0.4169 -0.0314  0.0767
 1763SOL    HW1 6531   4.345   2.043   4.908 -1.8238 -1.1150  1.3743
 1763SOL    HW2 6532   4.469   2.049   4.995  0.3917  1.1240 -1.7613
 1764SOL     OW 6533   5.937   6.669   0.844 -0.2410 -0.6630 -0.0690
 1764SOL    HW1 6534   5.915   6.739   0.782  1.0227  0.3116  0.5550
 1764SOL    HW2 6535   5.958   6.594   0.788  0.0012 -0.0598 -0.8091
 1765SOL     OW 6536   2.929   6.690   2.439  0.4214  0.1751 -0.1396
 1765SOL    HW1 6537   2.843   6.677   2.478  1.4955 -1.3778  1.8384
 1765SOL    HW2 6538   2.976   6.608   2.457  1.6790  0.2173 -2.9108
 1766SOL     OW 6539   6.094   2.036   5.456  0.7306  0.4654  0.0214
 1766SOL    HW1 6540   6.039   1.958   5.459  2.9979 -1.2906 -1.8185
 1766SOL    HW2 6541   6.143   2.035   5.538  0.4865  0.1570  0.1617
 1767SOL     OW 6542   6.771   2.352   0.137 -0.2944 -0.0880  0.4573
 1767SOL    HW1 6543   6.857   2.364   0.096 -0.9023  0.5577 -0.6737
 1767SOL    HW2 6544   6.716   2.317   0.066 -1.2930  0.7611  0.7986
 1768SOL     OW 6545   1.895   2.155   3.109  0.0346  0.6644  0.4565
 1768SOL    HW1 6546   1.872   2.221   3.044 -1.2429 -0.5392 -0.3284
 1768SOL    HW2 6547   1.888   2.071   3.062 -0.1995 -0.1651  1.9462
 1769SOL     OW 6548   1.844   0.398   6.497 -0.5868  0.2322 -0.2883
 1769SOL    HW1 6549   1.769   0.411   6.439 -0.8498 -1.3764 -0.3546
 1769SOL    HW2 6550   1.834   0.463   6.566 -2.7422 -0.7700  0.3893
 1770SOL     OW 6551   1.646   0.353   8.257 -0.4448  0.0493  0.2517
 1770SOL    HW1 6552   1.609   0.434   8.293 -0.2547 -1.4026  3.8774
 1770SOL    HW2 6553   1.570   0.297   8.241 -0.4465  0.2960 -0.6163
 1771SOL     OW 6554   4.626   3.415   4.957  0.1964  0.6012 -0.4697
 1771SOL    HW1 6555   4.644   3.497   4.910  0.4207  0.1081 -1.2548
 1771SOL    HW2 6556   4.711   3.373   4.964  0.4679  1.4930  1.9774
 1772SOL     OW 6557   6.649   4.085   0.004 -0.1455 -0.3816 -0.3727
 1772SOL    HW1 6558   6.719   4.131   0.051  1.2096 -2.4898 -0.2828
 1772SOL    HW2 6559   6.572   4.140   0.017  1.2781  1.5537  0.2462
 1773SOL     OW 6560   5.706   4.052   5.988 -0.0158  0.3100 -0.2917
 1773SOL    HW1 6561   5.688   4.115   5.918 -0.1815  0.1072 -0.4310
 1773SOL    HW2 6562   5.768   4.097   6.045  0.1741  0.4488 -0.6084
 1774SOL     OW 6563   0.377   1.407   6.687  0.6441  0.4134 -0.4610
 1774SOL    HW1 6564   0.438   1.428   6.759  1.7213 -2.1664 -0.5567
 1774SOL    HW2 6565   0.384   1.482   6.627  0.5858  2.0812  1.5439
 1775SOL     OW 6566   7.358   3.213   7.631  0.4825  0.5025 -0.1043
 1775SOL    HW1 6567   7.338   3.123   7.658  0.1940  0.5360 -0.2053
 1775SOL    HW2 6568   7.357   3.263   7.713  0.5515  0.4281 -0.0589
 1776SOL     OW 6569   1.479   7.881   5.876  0.2763 -0.1177 -0.9276
 1776SOL    HW1 6570   1.495   7.956   5.818  0.7228 -0.6632 -1.5191
 1776SOL    HW2 6571   1.484   7.805   5.819 -0.9271 -0.5573 -0.4563
 1777SOL     OW 6572   1.188   5.619   5.845 -0.5819 -0.0326  0.1371
 1777SOL    HW1 6573   1.268   5.637   5.894  0.8680 -2.9398 -1.0278
 1777SOL    HW2 6574   1.140   5.557   5.899 -1.5823  0.8877  0.3321
 1778SOL     OW 6575   7.043   2.580   6.956 -0.1541 -0.0630 -0.3136
 1778SOL    HW1 6576   6.961   2.533   6.972  0.1004 -0.6848 -0.8351
 1778SOL    HW2 6577   7.111   2.519   6.984  0.1554  0.2261 -0.4324
 1779SOL     OW 6578   7.224   7.444   7.322  0.0748  0.6306  0.1595
 1779SOL    HW1 6579   7.303   7.486   7.355  0.2229  0.9158 -0.5628
 1779SOL    HW2 6580   7.168   7.516   7.293  0.4761  0.3260 -1.4043
 1780SOL     OW 6581   2.976   5.011   3.622 -0.3075 -0.1002 -0.2836
 1780SOL    HW1 6582   2.965   4.924   3.658  0.6652  0.4634  1.4193
 1780SOL    HW2 6583   2.887   5.039   3.599 -0.4957 -1.9432 -1.8754
 1781SOL     OW 6584   6.366   7.180   2.114 -0.6061  0.1085  0.5671
 1781SOL    HW1 6585   6.291   7.230   2.081 -0.6016 -0.6329 -0.5902
 1781SOL    HW2 6586   6.365   7.099   2.063  1.4321  0.4004  0.0103
 1782SOL     OW 6587   4.280   1.275   5.784 -0.5542  0.0797 -0.4212
 1782SOL    HW1 6588   4.297   1.239   5.697  3.1417  0.0981  0.2167
 1782SOL    HW2 6589   4.312   1.208   5.845 -1.9699  0.6041  0.9634
 1783SOL     OW 6590   8.137   6.164   4.370 -0.7177  0.5781 -0.5923
 1783SOL    HW1 6591   8.190   6.206   4.302 -0.1724 -1.4326 -1.4609
 1783SOL    HW2 6592   8.183   6.083   4.389 -1.4862  0.5880  1.3885
 1784SOL     OW 6593   3.253   2.336   6.796 -0.5744 -0.1422  0.4840
 1784SOL    HW1 6594   3.279   2.260   6.744  0.3601  1.0513 -0.8295
 1784SOL    HW2 6595   3.190   2.382   6.741 -0.9565  0.1622  1.1793
 1785SOL     OW 6596   0.711   3.993   6.973 -0.3517 -0.1132  0.0311
 1785SOL    HW1 6597   0.727   3.905   6.939  0.9420 -1.1278  3.1035
 1785SOL    HW2 6598   0.648   3.980   7.045 -0.8994  1.5910 -0.1081
 1786SOL     OW 6599   3.441   4.052   2.187  0.0001 -0.2449  0.2680
 1786SOL    HW1 6600   3.407   3.964   2.207 -0.6369  0.3178  1.7192
 1786SOL    HW2 6601   3.534   4.047   2.211  0.5244 -1.1787 -1.7991
 1787SOL     OW 6602   0.094   0.863   5.358 -0.0258 -0.1343  0.3484
 1787SOL    HW1 6603   0.080   0.842   5.266  0.2147  1.6063 -0.1142
 1787SOL    HW2 6604   0.187   0.845   5.372 -0.1591 -0.8129  0.3679
 1788SOL     OW 6605   5.895   3.440   4.084 -0.1999  0.1048  0.2272
 1788SOL    HW1 6606   5.937   3.456   4.000  0.5093 -2.7524 -0.0331
 1788SOL    HW2 6607   5.804   3.467   4.071 -0.2199 -0.7588 -1.6493
 1789SOL     OW 6608   1.824   2.944   7.054  0.3243  0.0307 -0.1907
 1789SOL    HW1 6609   1.787   2.856   7.065 -0.7297  0.5149  0.1662
 1789SOL    HW2 6610   1.864   2.943   6.967 -0.8893 -0.3675 -0.7432
 1790SOL     OW 6611   0.205   2.478   3.266 -0.2054  0.3427 -0.3227
 1790SOL    HW1 6612   0.198   2.471   3.361 -0.7064  1.8172 -0.2319
 1790SOL    HW2 6613   0.132   2.426   3.232 -0.7612  0.8163  0.1384
 1791SOL     OW 6614   6.968   3.146   3.429  0.0267  0.4758 -0.4538
 1791SOL    HW1 6615   6.943   3.077   3.491  1.3580 -0.7963 -1.2984
 1791SOL    HW2 6616   6.898   3.145   3.364 -0.4559  0.5812  0.0582
 1792SOL     OW 6617   0.744   3.706   6.850  0.2431 -0.4461  0.3322
 1792SOL    HW1 6618   0.808   3.648   6.891  0.9259 -0.0339 -0.1322
 1792SOL    HW2 6619   0.767   3.704   6.757 -1.9451 -2.2131 -0.2258
 1793SOL     OW 6620   0.737   7.304   2.864  0.2527  0.1268  0.0763
 1793SOL    HW1 6621   0.777   7.339   2.785 -0.6282 -1.0366 -0.9080
 1793SOL    HW2 6622   0.799   7.239   2.896 -0.6972 -1.5140 -1.3234
 1794SOL     OW 6623   1.247   6.814   3.377 -0.3323  0.1193 -0.1204
 1794SOL    HW1 6624   1.307   6.801   3.451  0.2000  0.5408 -0.4724
 1794SOL    HW2 6625   1.161   6.824   3.418 -0.1485 -0.3684  0.3962
 1795SOL     OW 6626   4.380   0.781   6.452  0.0626 -0.7232 -0.1952
 1795SOL    HW1 6627   4.469   0.816   6.444 -0.5382  1.3481  1.7469
 1795SOL    HW2 6628   4.327   0.837   6.394 -0.0784 -1.6741 -1.0069
 1796SOL     OW 6629   6.701   3.308   7.785 -0.2482 -0.4716 -0.0543
 1796SOL    HW1 6630   6.758   3.301   7.709 -0.3529 -0.7275 -0.1111
 1796SOL    HW2 6631   6.752   3.356   7.850 -1.5068  3.0809 -1.5856
 1797SOL     OW 6632   8.054   2.001   8.031  0.0657  0.3043 -0.0929
 1797SOL    HW1 6633   8.149   2.011   8.038  0.6216 -3.3465 -1.4568
 1797SOL    HW2 6634   8.029   2.060   7.959  1.0619  2.2045  1.0764
 1798SOL     OW 6635   3.102   4.663   2.193  0.2451 -0.2504 -0.2294
 1798SOL    HW1 6636   3.054   4.644   2.274 -0.3006  2.0895  0.0341
 1798SOL    HW2 6637   3.177   4.715   2.221  1.1519 -1.1165 -1.0203
 1799SOL     OW 6638   7.148   2.166   2.437 -0.1671  1.0139 -0.2379
 1799SOL    HW1 6639   7.228   2.125   2.469 -0.6287 -0.2157 -0.6258
 1799SOL    HW2 6640   7.148   2.253   2.477  1.4851  1.1284 -0.4470
 1800SOL     OW 6641   1.814   7.587   3.025 -0.0784 -0.1617  0.3483
 1800SOL    HW1 6642   1.721   7.606   3.040 -0.0659 -1.3035  2.1130
 1800SOL    HW2 6643   1.849   7.667   2.987 -1.5255  0.7211  0.8171
 1801SOL     OW 6644   3.025   2.176   1.941 -0.3475  0.2252 -0.2445
 1801SOL    HW1 6645   2.989   2.251   1.989  0.9553  1.4096 -1.0817
 1801SOL    HW2 6646   2.989   2.183   1.853 -1.2827 -0.9079  0.0389
 1802SOL     OW 6647   4.310   5.407   3.197 -0.0136  0.1201  0.5668
 1802SOL    HW1 6648   4.304   5.426   3.290  3.9041  0.7593  0.7925
 1802SOL    HW2 6649   4.363   5.327   3.192  1.7462  1.3392 -1.1317
 1803SOL     OW 6650   5.627   6.829   6.233  0.0620 -0.3516 -0.1067
 1803SOL    HW1 6651   5.626   6.739   6.201  1.7825  0.0048 -1.2392
 1803SOL    HW2 6652   5.719   6.853   6.235 -0.3976  1.5229 -0.2023
 1804SOL     OW 6653   2.226   8.251   2.138  0.2001  0.0139  0.1527
 1804SOL    HW1 6654   2.271   8.235   2.221  0.5102 -1.1058 -0.2161
 1804SOL    HW2 6655   2.140   8.209   2.149 -0.7176  1.9760  0.7855
 1805SOL     OW 6656   1.088   6.217   4.896  0.3039 -0.6521  0.0458
 1805SOL    HW1 6657   1.095   6.309   4.922  1.7023 -0.4224 -1.0813
 1805SOL    HW2 6658   1.159   6.173   4.942 -0.4438 -1.2075  0.6859
 1806SOL     OW 6659   5.700   0.996   6.773 -0.1882 -0.6695 -0.2202
 1806SOL    HW1 6660   5.749   0.985   6.692  0.6935  1.7483 -0.0516
 1806SOL    HW2 6661   5.752   0.949   6.839  0.1295 -0.9684 -0.6804
 1807SOL     OW 6662   0.103   3.905   5.267 -0.1303 -0.2559 -0.1187
 1807SOL    HW1 6663   0.126   3.924   5.176 -1.3876  0.0621 -0.3828
 1807SOL    HW2 6664   0.179   3.858   5.302  1.3250  1.6315 -0.6528
 1808SOL     OW 6665   0.192   7.863   7.668 -0.4158 -0.5740  0.6796
 1808SOL    HW1 6666   0.168   7.932   7.729 -1.0801 -1.1681  1.1097
 1808SOL    HW2 6667   0.257   7.902   7.610 -0.5836  0.3164  1.0939
 1809SOL     OW 6668   1.222   5.008   6.718  0.0671  0.0383  0.0072
 1809SOL    HW1 6669   1.169   5.055   6.782  0.1170 -0.3095  0.3088
 1809SOL    HW2 6670   1.299   5.063   6.705  0.4564 -0.2836  0.8811
 1810SOL     OW 6671   0.600   5.120   4.884  0.0163  0.1249  0.3154
 1810SOL    HW1 6672   0.658   5.110   4.959  3.8034  1.0064 -2.3728
 1810SOL    HW2 6673   0.584   5.214   4.877  0.4241  0.1507 -0.4457
 1811SOL     OW 6674   6.853   3.334   4.617 -0.2144 -0.0511  0.3908
 1811SOL    HW1 6675   6.859   3.274   4.691 -0.0136  1.6877  1.8149
 1811SOL    HW2 6676   6.935   3.321   4.569  0.2025 -0.3083  1.1552
 1812SOL     OW 6677   4.855   6.148   1.676  0.1554  0.0014 -0.0198
 1812SOL    HW1 6678   4.901   6.227   1.703  1.9218 -0.4041 -1.7119
 1812SOL    HW2 6679   4.788   6.135   1.743 -1.5811  4.0783 -0.8046
 1813SOL     OW 6680   4.148   8.253   5.754  0.3740 -0.5209 -0.2584
 1813SOL    HW1 6681   4.065   8.206   5.749  0.6844 -1.2136  0.9353
 1813SOL    HW2 6682   4.186   8.245   5.666 -0.8545 -0.1223 -0.8266
 1814SOL     OW 6683   1.246   4.807   4.350 -0.0293 -0.3221  0.3140
 1814SOL    HW1 6684   1.327   4.856   4.337 -1.0806  1.3419 -0.1070
 1814SOL    HW2 6685   1.240   4.750   4.274 -0.8796  1.8938 -1.3415
 1815SOL     OW 6686   3.560   2.593   1.948  1.2691  0.2484  0.1893
 1815SOL    HW1 6687   3.537   2.629   1.863 -1.0277 -0.8596  0.3112
 1815SOL    HW2 6688   3.583   2.501   1.930 -1.5799 -0.6822  1.0308
 1816SOL     OW 6689   3.134   0.467   5.499 -0.4304 -0.8375  0.5313
 1816SOL    HW1 6690   3.092   0.547   5.532  0.6953 -0.4832  1.1032
 1816SOL    HW2 6691   3.107   0.398   5.560  1.0537 -0.3217  1.7886
 1817SOL     OW 6692   6.067   6.007   2.118 -0.8185 -0.1285 -0.7947
 1817SOL    HW1 6693   6.140   5.946   2.130 -0.0701  1.1264  1.4159
 1817SOL    HW2 6694   6.077   6.039   2.029  1.8582  0.6353 -0.2809
 1818SOL     OW 6695   0.047   1.583   7.178  0.1287 -0.4795  0.1946
 1818SOL    HW1 6696   0.056   1.540   7.263  0.6338  0.4503  0.6167
 1818SOL    HW2 6697   0.134   1.579   7.139 -0.2241 -1.3900 -0.5222
 1819SOL     OW 6698   0.188   7.460   7.273  0.5628 -0.6843  0.2614
 1819SOL    HW1 6699   0.142   7.459   7.356  0.5523  2.9217  0.3725
 1819SOL    HW2 6700   0.125   7.498   7.211  1.2526 -1.4771 -0.9453
 1820SOL     OW 6701   3.778   4.658   3.099 -0.3942 -0.1121  0.4737
 1820SOL    HW1 6702   3.873   4.660   3.112 -0.3473  2.2229  0.0052
 1820SOL    HW2 6703   3.764   4.712   3.021 -2.0009 -1.4115 -0.1505
 1821SOL     OW 6704   3.745   2.716   0.394 -0.1001  0.6834 -0.4357
 1821SOL    HW1 6705   3.688   2.733   0.319 -0.9118 -0.1144 -0.0104
 1821SOL    HW2 6706   3.711   2.635   0.432  0.7583  0.6900  0.3646
 1822SOL     OW 6707   6.719   0.012   8.258 -0.0616  0.0321  0.0408
 1822SOL    HW1 6708   6.810   0.010   8.228 -1.0920 -1.8786 -3.2577
 1822SOL    HW2 6709   6.715  -0.056   8.325  1.1316  0.7369  0.8455
 1823SOL     OW 6710   4.510   7.629   6.106 -0.1313  0.7288  0.0586
 1823SOL    HW1 6711   4.429   7.638   6.157 -0.7474 -1.7212 -0.3869
 1823SOL    HW2 6712   4.483   7.581   6.027  1.6675  0.2975 -0.3217
 1824SOL     OW 6713   4.068   2.447   5.532 -0.6828  0.0504  0.2240
 1824SOL    HW1 6714   4.048   2.367   5.580  0.6914 -1.3969 -1.5769
 1824SOL    HW2 6715   4.045   2.427   5.441  1.5345  1.0067 -0.5703
 1825SOL     OW 6716   1.706   1.457   1.370  0.9265 -0.0696 -0.2363
 1825SOL    HW1 6717   1.713   1.468   1.465  1.0607  1.0247 -0.3623
 1825SOL    HW2 6718   1.645   1.384   1.358 -1.6866  1.8775  0.6650
 1826SOL     OW 6719   6.944   6.033   0.199 -0.1029 -0.1302 -0.0985
 1826SOL    HW1 6720   6.986   6.046   0.284  1.7820  1.3099 -1.2090
 1826SOL    HW2 6721   6.978   5.950   0.167 -2.6509 -1.8988  1.5423
 1827SOL     OW 6722   7.962   1.489   4.539  0.1859 -0.2218 -0.0047
 1827SOL    HW1 6723   7.947   1.402   4.577  2.5610 -0.3244  0.8210
 1827SOL    HW2 6724   8.041   1.478   4.486 -0.5479  1.0148 -1.3643
 1828SOL     OW 6725   5.653   7.636   4.469  0.1747 -0.2500 -0.0447
 1828SOL    HW1 6726   5.632   7.729   4.478  0.3860 -0.2566  0.5055
 1828SOL    HW2 6727   5.681   7.626   4.377  0.2108  0.2393 -0.0847
 1829SOL     OW 6728   1.830   2.767   0.907 -0.6203  0.5045  0.8221
 1829SOL    HW1 6729   1.828   2.681   0.950 -1.2362 -0.2431 -0.6793
 1829SOL    HW2 6730   1.741   2.802   0.918  0.4863  2.4724  4.3816
 1830SOL     OW 6731   0.215   2.136   2.116 -0.2990  0.0247  0.3814
 1830SOL    HW1 6732   0.236   2.095   2.200 -1.6216 -0.1669  0.6240
 1830SOL    HW2 6733   0.274   2.093   2.053  0.6363  0.1098  1.1793
 1831SOL     OW 6734   4.743   0.465   5.770 -0.2215  0.1015  0.2818
 1831SOL    HW1 6735   4.763   0.551   5.806  1.4363  0.3843 -1.2053
 1831SOL    HW2 6736   4.653   0.472   5.738 -0.3366  1.0659  0.8062
 1832SOL     OW 6737   2.661   5.969   3.941  0.4150  0.3704 -0.4139
 1832SOL    HW1 6738   2.717   5.893   3.959 -0.4113 -0.4465 -1.2280
 1832SOL    HW2 6739   2.702   6.041   3.989  1.9585 -0.2948 -0.7087
 1833SOL     OW 6740   5.805   4.056   2.023  0.1297 -0.6068  0.5265
 1833SOL    HW1 6741   5.894   4.078   2.051  0.0041 -0.6354  0.9492
 1833SOL    HW2 6742   5.765   4.140   2.002  0.6663 -0.6889 -0.9093
 1834SOL     OW 6743   6.876   5.536   2.773  0.8653 -0.1545  0.3375
 1834SOL    HW1 6744   6.903   5.572   2.857 -1.0663  1.0752  0.4527
 1834SOL    HW2 6745   6.955   5.497   2.737  2.0003  0.4374  2.1462
 1835SOL     OW 6746   4.104   5.575   4.126  0.1112 -0.2710  0.3799
 1835SOL    HW1 6747   4.104   5.482   4.148 -0.6313 -0.1287  0.9915
 1835SOL    HW2 6748   4.016   5.591   4.091 -0.0032  0.3629  0.9576
 1836SOL     OW 6749   0.819   6.850   3.365 -0.3857  0.5794 -0.1732
 1836SOL    HW1 6750   0.745   6.829   3.423 -0.9371  0.1694 -1.0110
 1836SOL    HW2 6751   0.896   6.825   3.416 -0.8574  0.2567  0.4040
 1837SOL     OW 6752   3.849   6.498   0.197 -0.3124  0.0923 -0.4200
 1837SOL    HW1 6753   3.782   6.552   0.240  0.7880  0.3762  0.9378
 1837SOL    HW2 6754   3.931   6.543   0.214  0.6709 -2.1546  1.0135
 1838SOL     OW 6755   7.739   2.856   8.276  0.4175 -0.2787  0.2712
 1838SOL    HW1 6756   7.646   2.877   8.283  0.1659 -1.1043 -0.5341
 1838SOL    HW2 6757   7.755   2.792   8.345  0.2885 -0.4650  0.1291
 1839SOL     OW 6758   3.463   7.483   6.284 -0.2442 -0.7291  0.7236
 1839SOL    HW1 6759   3.459   7.388   6.272  2.4927 -0.5815 -1.6905
 1839SOL    HW2 6760   3.551   7.499   6.317 -0.0102  1.1690 -0.7792
 1840SOL     OW 6761   4.011   5.921   0.356  0.1269  0.0109 -0.2815
 1840SOL    HW1 6762   3.992   5.975   0.280  0.1874 -1.0092 -1.0323
 1840SOL    HW2 6763   4.064   5.848   0.322 -0.8634 -1.1090  0.5042
 1841SOL     OW 6764   0.245   4.762   3.729  0.7575  0.7423 -0.1760
 1841SOL    HW1 6765   0.321   4.764   3.788 -0.2591 -0.8019  1.2380
 1841SOL    HW2 6766   0.186   4.828   3.764  1.0224  1.2471 -0.6812
 1842SOL     OW 6767   2.158   7.546   8.069  0.1607 -0.3984 -0.1653
 1842SOL    HW1 6768   2.098   7.480   8.036  0.7319 -1.0503  0.1004
 1842SOL    HW2 6769   2.227   7.497   8.113  0.9127  0.3385 -0.4954
 1843SOL     OW 6770   4.093   5.404   2.412  0.2251  0.1091 -0.2424
 1843SOL    HW1 6771   4.159   5.365   2.469 -0.2751  0.8863  0.8993
 1843SOL    HW2 6772   4.120   5.496   2.404  0.4407 -0.0649 -1.4842
 1844SOL     OW 6773   3.630   2.760   6.335 -0.5395 -0.4449 -0.1276
 1844SOL    HW1 6774   3.581   2.678   6.333 -0.0375 -0.8867  3.0141
 1844SOL    HW2 6775   3.598   2.805   6.413  1.0737  1.1475 -0.3561
 1845SOL     OW 6776   4.726   6.102   4.402  0.0012  0.2707  0.0372
 1845SOL    HW1 6777   4.798   6.150   4.361  2.0286 -1.9630  0.8616
 1845SOL    HW2 6778   4.729   6.016   4.361 -1.4765 -0.2222  0.9420
 1846SOL     OW 6779   4.987   1.854   4.995  0.0869 -0.0468 -0.1639
 1846SOL    HW1 6780   4.944   1.774   4.964  2.1184 -1.2090 -0.0970
 1846SOL    HW2 6781   4.984   1.847   5.090  0.0292  0.0832 -0.1566
 1847SOL     OW 6782   6.382   2.593   7.309  0.1967 -0.4257  0.5770
 1847SOL    HW1 6783   6.445   2.626   7.245 -2.6494 -1.3490 -2.8850
 1847SOL    HW2 6784   6.337   2.671   7.341  0.5052 -0.0875  0.1879
 1848SOL     OW 6785   4.727   1.740   5.531 -0.1481 -0.3590 -0.3215
 1848SOL    HW1 6786   4.637   1.762   5.552  0.1260  0.8748 -0.4215
 1848SOL    HW2 6787   4.778   1.776   5.604  0.4232  0.3735 -1.0795
 1849SOL     OW 6788   1.114   5.427   3.521  0.5857  0.0998  0.5821
 1849SOL    HW1 6789   1.092   5.509   3.476  1.4958 -0.4698 -0.9342
 1849SOL    HW2 6790   1.128   5.364   3.450  2.3021 -0.7503  1.6655
 1850SOL     OW 6791   0.035   1.628   5.913 -0.6535 -0.3325 -0.1967
 1850SOL    HW1 6792   0.026   1.699   5.849 -0.8016  0.9339  1.1970
 1850SOL    HW2 6793  -0.054   1.610   5.942 -0.5086 -0.3268  0.2589
 1851SOL     OW 6794   6.413   8.025   8.228  0.0415  0.4001 -0.9198
 1851SOL    HW1 6795   6.403   7.956   8.162 -0.5216 -1.7219  1.3192
 1851SOL    HW2 6796   6.482   7.994   8.286 -1.6442  0.7069  1.3274
 1852SOL     OW 6797   3.563   6.360   7.736  0.1316 -0.0175  0.1404
 1852SOL    HW1 6798   3.525   6.436   7.780  1.1676 -0.1747  1.3056
 1852SOL    HW2 6799   3.528   6.364   7.647 -0.7640  1.1491  0.5415
 1853SOL     OW 6800   1.651   5.996   4.062  0.1685 -0.5603 -1.0155
 1853SOL    HW1 6801   1.587   5.992   4.133 -0.8639 -2.0178 -1.9852
 1853SOL    HW2 6802   1.599   5.987   3.982  1.1506  2.3827 -2.0737
 1854SOL     OW 6803   2.060   7.850   0.521  0.3276 -0.0739 -0.3784
 1854SOL    HW1 6804   2.136   7.835   0.466 -0.6543 -1.0756 -1.4798
 1854SOL    HW2 6805   2.061   7.944   0.539  1.0834  0.1276 -1.4601
 1855SOL     OW 6806   5.362   1.985   3.718 -0.6044  0.3243  0.2948
 1855SOL    HW1 6807   5.388   2.075   3.698  3.6402 -0.6536  0.8991
 1855SOL    HW2 6808   5.287   1.994   3.777 -0.2263  3.4669  0.3600
 1856SOL     OW 6809   7.179   1.724   0.691 -0.1379  0.2565  0.0033
 1856SOL    HW1 6810   7.242   1.790   0.721  1.5737 -0.3906 -2.0039
 1856SOL    HW2 6811   7.186   1.727   0.595 -2.9711 -0.0530 -0.2621
 1857SOL     OW 6812   1.423   7.718   5.647 -0.0282 -0.2007 -0.1357
 1857SOL    HW1 6813   1.513   7.696   5.622 -1.0107 -2.3587 -2.0222
 1857SOL    HW2 6814   1.386   7.758   5.569 -0.6566  0.8152  0.6835
 1858SOL     OW 6815   5.127   5.028   0.245 -0.0453  0.2726  0.8036
 1858SOL    HW1 6816   5.035   5.033   0.220  0.3945 -0.0999 -0.9765
 1858SOL    HW2 6817   5.175   5.057   0.167  1.3617  0.0997  1.5804
 1859SOL     OW 6818   7.939   6.717   2.220 -0.0649  0.0129  0.4847
 1859SOL    HW1 6819   7.965   6.692   2.131 -0.6071  0.6190  0.1534
 1859SOL    HW2 6820   8.010   6.775   2.249 -0.3277  0.5325  0.1072
 1860SOL     OW 6821   2.847   6.463   6.606 -0.2482  1.1845  0.1768
 1860SOL    HW1 6822   2.810   6.550   6.597 -1.5556  0.5831 -0.4573
 1860SOL    HW2 6823   2.866   6.435   6.516 -0.9594  0.3425  0.2832
 1861SOL     OW 6824   1.667   4.068   3.661  0.2583 -0.5597  0.1223
 1861SOL    HW1 6825   1.594   4.031   3.710 -0.4993  2.3383  1.3505
 1861SOL    HW2 6826   1.742   4.059   3.720  0.1401 -0.4602  0.2912
 1862SOL     OW 6827   3.757   4.846   2.392 -0.3187  0.6556 -0.6271
 1862SOL    HW1 6828   3.771   4.861   2.486 -0.9004  2.0081 -0.7506
 1862SOL    HW2 6829   3.845   4.853   2.354 -0.3145  1.7929 -0.4143
 1863SOL     OW 6830   0.013   0.949   0.486  0.1790  0.9403  0.0520
 1863SOL    HW1 6831  -0.028   0.930   0.402  0.3733  0.4280  0.0691
 1863SOL    HW2 6832  -0.034   0.894   0.549  1.3879 -0.2436 -0.0520
 1864SOL     OW 6833   0.053   5.876   6.160 -0.5334  0.0610 -0.4616
 1864SOL    HW1 6834   0.133   5.869   6.212 -0.3538  1.0455 -0.5980
 1864SOL    HW2 6835  -0.018   5.865   6.224 -0.3402 -4.0304 -0.7822
 1865SOL     OW 6836   7.686   7.102   0.540 -0.1945 -0.2721 -0.2910
 1865SOL    HW1 6837   7.752   7.037   0.563 -1.5765 -1.1662  1.2207
 1865SOL    HW2 6838   7.607   7.051   0.520 -0.4898  0.7879 -1.9344
 1866SOL     OW 6839   6.031   6.320   3.908 -0.5008  0.0267  0.0645
 1866SOL    HW1 6840   6.087   6.316   3.985 -0.1585 -1.8743 -0.2617
 1866SOL    HW2 6841   5.942   6.325   3.942 -0.3128 -0.1540  0.5768
 1867SOL     OW 6842   0.728   4.027   0.975 -0.0264 -0.3407 -0.4321
 1867SOL    HW1 6843   0.790   3.961   0.943  1.0502 -0.3491  1.5821
 1867SOL    HW2 6844   0.762   4.110   0.942  1.1346 -0.3334  0.7701
 1868SOL     OW 6845   0.024   1.080   7.436  0.7207 -0.2234 -0.2680
 1868SOL    HW1 6846   0.083   1.016   7.476 -0.8890 -0.6452  1.5110
 1868SOL    HW2 6847   0.024   1.153   7.498  0.3692  0.3069 -0.8955
 1869SOL     OW 6848   6.087   0.489   5.925  0.6193 -0.1833  0.0976
 1869SOL    HW1 6849   6.182   0.498   5.915  0.5974 -0.8395 -0.7392
 1869SOL    HW2 6850   6.057   0.455   5.840 -0.3971  0.2976  0.2590
 1870SOL     OW 6851   3.576   0.872   0.729  0.2229 -0.2177  0.0890
 1870SOL    HW1 6852   3.638   0.865   0.801  0.3059  1.1823  0.1658
 1870SOL    HW2 6853   3.602   0.951   0.681 -2.9451  1.8651  1.5676
 1871SOL     OW 6854   5.177   0.869   4.067  0.4804  0.3730  0.1905
 1871SOL    HW1 6855   5.133   0.936   4.016  0.8433  0.5734  0.1382
 1871SOL    HW2 6856   5.229   0.820   4.003 -0.3197 -0.3904  0.1275
 1872SOL     OW 6857   4.088   1.295   1.378  0.2562  0.3606 -0.5179
 1872SOL    HW1 6858   4.180   1.315   1.395  0.3812 -0.2921 -0.4176
 1872SOL    HW2 6859   4.090   1.246   1.295 -0.0509  0.8192 -0.7945
 1873SOL     OW 6860   3.258   3.681   8.246  0.1106 -0.4422  0.2654
 1873SOL    HW1 6861   3.332   3.741   8.252  0.1807 -0.5152  0.1389
 1873SOL    HW2 6862   3.183   3.737   8.227 -0.1528 -0.1843  1.9632
 1874SOL     OW 6863   1.724   5.733   2.630  0.4505  0.4809  0.3131
 1874SOL    HW1 6864   1.752   5.672   2.698 -1.1264  0.7571  1.2388
 1874SOL    HW2 6865   1.672   5.680   2.570 -2.5099  1.1838  2.1119
 1875SOL     OW 6866   4.018   4.518   7.620  0.6474  0.5073  0.5166
 1875SOL    HW1 6867   3.980   4.431   7.634  0.6194  0.4424  0.0402
 1875SOL    HW2 6868   3.957   4.577   7.665  1.0674  0.2171  1.4960
 1876SOL     OW 6869   4.865   5.713   7.163 -0.7055 -0.2856 -0.6607
 1876SOL    HW1 6870   4.952   5.708   7.123 -0.8430  1.2517 -1.1815
 1876SOL    HW2 6871   4.861   5.637   7.220  1.5723  0.4216  0.5141
 1877SOL     OW 6872   0.118   5.372   7.082  0.3665 -0.3866 -0.3715
 1877SOL    HW1 6873   0.056   5.369   7.010  0.5667  0.9947 -0.6181
 1877SOL    HW2 6874   0.179   5.442   7.058  0.3674  0.1695  1.1735
 1878SOL     OW 6875   1.930   3.127   7.918  0.1168  0.4636  0.0638
 1878SOL    HW1 6876   1.920   3.218   7.892 -1.0518 -0.1114 -1.6032
 1878SOL    HW2 6877   1.840   3.093   7.918  0.6230 -0.8910 -0.2033
 1879SOL     OW 6878   1.185   0.527   1.631  0.1926 -0.3460 -0.2058
 1879SOL    HW1 6879   1.196   0.449   1.577  0.7523 -0.4492  0.0443
 1879SOL    HW2 6880   1.275   0.556   1.648 -0.0214  0.7520 -0.8741
 1880SOL     OW 6881   5.648   7.860   0.515  0.3788  0.4199 -0.1720
 1880SOL    HW1 6882   5.603   7.909   0.446  0.5749  0.5084 -0.2371
 1880SOL    HW2 6883   5.739   7.856   0.486  0.3545 -0.0162 -0.1849
 1881SOL     OW 6884   5.086   4.902   5.572  0.0156  0.0728  0.4268
 1881SOL    HW1 6885   5.008   4.951   5.598 -1.5658 -1.1399 -1.8119
 1881SOL    HW2 6886   5.106   4.934   5.485  2.3542  0.7180  1.1847
 1882SOL     OW 6887   2.143   6.325   5.736  0.5918  0.3520  0.8865
 1882SOL    HW1 6888   2.193   6.266   5.680  0.2178  0.5712  0.3088
 1882SOL    HW2 6889   2.106   6.389   5.675  2.1753  2.0448  1.6679
 1883SOL     OW 6890   1.230   3.816   0.918  0.0832  0.1235 -0.2163
 1883SOL    HW1 6891   1.253   3.737   0.869 -1.0761 -0.5071  0.2101
 1883SOL    HW2 6892   1.245   3.888   0.857  1.7695 -0.3700 -0.3967
 1884SOL     OW 6893   2.156   0.611   2.863 -0.0067  0.0872  0.2613
 1884SOL    HW1 6894   2.092   0.557   2.909 -0.3173  1.6059  1.6771
 1884SOL    HW2 6895   2.149   0.697   2.905  1.3065  0.9055 -1.1434
 1885SOL     OW 6896   2.486   1.612   0.557  0.4408 -0.4221 -0.1677
 1885SOL    HW1 6897   2.424   1.553   0.513  0.1810 -0.4226  0.1962
 1885SOL    HW2 6898   2.439   1.696   0.562  0.4981 -0.4018  0.0412
 1886SOL     OW 6899   1.684   3.550   2.936 -0.1582  0.0699  0.2598
 1886SOL    HW1 6900   1.678   3.540   2.841 -0.5041 -2.3271  0.4956
 1886SOL    HW2 6901   1.599   3.520   2.969  0.8960 -1.7316  1.4646
 1887SOL     OW 6902   0.634   7.211   6.587 -0.0045 -0.3595 -0.2384
 1887SOL    HW1 6903   0.543   7.236   6.600  0.5014  0.9445  1.0260
 1887SOL    HW2 6904   0.658   7.168   6.669  0.9321  0.6936  0.0634
 1888SOL     OW 6905   2.140   6.244   7.999 -0.0084  0.4226  0.0265
 1888SOL    HW1 6906   2.151   6.282   8.086  0.4136  0.6462 -0.1261
 1888SOL    HW2 6907   2.229   6.237   7.964 -0.0728 -0.6715  0.0430
 1889SOL     OW 6908   2.204   1.786   7.724  0.1636  0.2966  0.2888
 1889SOL    HW1 6909   2.228   1.701   7.761  1.0703  0.1352 -0.6358
 1889SOL    HW2 6910   2.125   1.769   7.673  0.6001 -0.0995 -0.2680
 1890SOL     OW 6911   3.173   2.817   2.446 -0.5045  0.2562 -0.0536
 1890SOL    HW1 6912   3.218   2.734   2.427 -1.0665 -0.8471  3.1656
 1890SOL    HW2 6913   3.230   2.884   2.409  0.2246 -1.5201 -2.2680
 1891SOL     OW 6914   2.264   1.300   3.174 -0.2877  0.1922  0.1776
 1891SOL    HW1 6915   2.292   1.246   3.100 -0.5317  0.8966 -0.4270
 1891SOL    HW2 6916   2.169   1.290   3.176 -0.3684  0.8654 -0.1449
 1892SOL     OW 6917   0.474   5.715   7.088  0.2650 -0.0058 -0.3517
 1892SOL    HW1 6918   0.564   5.724   7.120  0.4241  0.2627 -0.8763
 1892SOL    HW2 6919   0.466   5.781   7.020 -0.6864  0.7496  0.4762
 1893SOL     OW 6920   8.085   7.945   4.100 -0.4888  0.2433 -0.2956
 1893SOL    HW1 6921   8.173   7.982   4.102 -0.7127  0.7638 -0.0863
 1893SOL    HW2 6922   8.067   7.921   4.191 -1.5505  2.4783  0.1040
 1894SOL     OW 6923   3.250   2.934   3.378  0.6822 -0.5724 -0.0661
 1894SOL    HW1 6924   3.272   2.914   3.469  1.4189  0.6319  0.0278
 1894SOL    HW2 6925   3.177   2.996   3.384 -0.1533 -1.5117 -0.3264
 1895SOL     OW 6926   2.038   0.946   3.515  0.2999 -0.6646  0.3262
 1895SOL    HW1 6927   2.073   0.913   3.598 -0.5355 -0.3907  0.7909
 1895SOL    HW2 6928   1.974   1.013   3.541 -0.4082 -1.0076 -0.5219
 1896SOL     OW 6929   0.199   1.466   1.519  0.5993 -0.2486 -0.3044
 1896SOL    HW1 6930   0.150   1.402   1.466  1.1519 -0.1156 -0.9873
 1896SOL    HW2 6931   0.138   1.539   1.529  0.1211 -0.6960  0.1042
 1897SOL     OW 6932   8.179   0.661   3.104 -1.1209  0.2523  0.3590
 1897SOL    HW1 6933   8.166   0.716   3.026 -1.5381 -0.4610 -0.0809
 1897SOL    HW2 6934   8.269   0.631   3.097 -0.6541  1.4583  0.9840
 1898SOL     OW 6935   7.319   3.550   4.286  0.1929  0.5767 -0.0990
 1898SOL    HW1 6936   7.293   3.625   4.232 -2.0092 -0.1260 -0.0529
 1898SOL    HW2 6937   7.394   3.582   4.336  1.5439  1.6084 -2.6624
 1899SOL     OW 6938   2.145   6.750   1.446  0.2896 -0.2817 -0.1777
 1899SOL    HW1 6939   2.085   6.689   1.403 -1.0212 -0.0037  1.1974
 1899SOL    HW2 6940   2.210   6.771   1.379  0.6319 -2.9656 -0.7415
 1900SOL     OW 6941   8.268   3.939   0.275  0.2935  0.4605 -0.0654
 1900SOL    HW1 6942   8.301   3.862   0.229 -0.6211  0.4856 -0.7775
 1900SOL    HW2 6943   8.244   4.000   0.206 -3.1239 -0.3448  0.3344
 1901SOL     OW 6944   0.065   1.996   5.201  0.4006 -0.2563  0.3778
 1901SOL    HW1 6945  -0.015   2.002   5.253  0.8548 -2.1664  1.3907
 1901SOL    HW2 6946   0.121   2.067   5.234 -1.5583  2.2904 -1.6606
 1902SOL     OW 6947   5.916   1.230   0.975  0.0655 -0.1219  0.0541
 1902SOL    HW1 6948   5.985   1.168   0.997 -0.2168 -0.0117  1.2497
 1902SOL    HW2 6949   5.950   1.278   0.899  0.3262 -1.6661 -0.8349
 1903SOL     OW 6950   4.888   4.152   3.407 -0.1739  0.0138 -0.0780
 1903SOL    HW1 6951   4.860   4.196   3.488 -0.4025 -0.9787  0.3897
 1903SOL    HW2 6952   4.879   4.058   3.426 -1.2769 -0.2158 -1.6218
 1904SOL     OW 6953   6.139   1.269   1.724  0.2454 -1.0200 -0.0632
 1904SOL    HW1 6954   6.137   1.182   1.684 -1.5024 -0.3025 -1.6249
 1904SOL    HW2 6955   6.050   1.282   1.756  0.4732  0.2311  0.0584
 1905SOL     OW 6956   6.696   3.927   4.021 -0.2852 -0.2627 -0.1800
 1905SOL    HW1 6957   6.724   3.843   4.056 -0.9574  0.3590  1.9616
 1905SOL    HW2 6958   6.770   3.986   4.036 -0.4553 -0.0660 -0.0991
 1906SOL     OW 6959   5.743   4.312   1.999  0.4587 -0.1558  0.2851
 1906SOL    HW1 6960   5.709   4.357   2.076 -0.5055  0.9066 -0.7362
 1906SOL    HW2 6961   5.804   4.374   1.959 -0.7192  0.2056 -1.0148
 1907SOL     OW 6962   7.156   7.842   4.651  0.0994 -0.7581  0.1755
 1907SOL    HW1 6963   7.183   7.927   4.686 -0.9352 -0.5556  0.4750
 1907SOL    HW2 6964   7.207   7.778   4.702 -0.9288 -0.4318  1.6149
 1908SOL     OW 6965   3.541   3.506   3.398  0.7384 -0.6917 -0.3795
 1908SOL    HW1 6966   3.558   3.581   3.453 -0.2081 -0.8224  0.0973
 1908SOL    HW2 6967   3.624   3.458   3.396  0.9216 -0.4198  0.5179
 1909SOL     OW 6968   2.668   5.622   7.851  0.2708 -0.2608  0.4558
 1909SOL    HW1 6969   2.750   5.613   7.802  1.0486  0.4001  1.5956
 1909SOL    HW2 6970   2.648   5.534   7.882  0.8657 -0.3194  0.6686
 1910SOL     OW 6971   5.478   7.496   5.590 -0.2168  0.0014 -0.0650
 1910SOL    HW1 6972   5.441   7.474   5.504 -0.1300 -0.1623 -0.0621
 1910SOL    HW2 6973   5.573   7.486   5.579 -0.3330 -2.1253  0.6186
 1911SOL     OW 6974   5.430   4.576   6.720  0.4720  0.3989 -0.4338
 1911SOL    HW1 6975   5.463   4.657   6.681 -0.9021  1.3905  0.4142
 1911SOL    HW2 6976   5.452   4.584   6.813 -1.1559  0.6026 -0.0433
 1912SOL     OW 6977   3.477   5.941   4.544  0.4046  0.1405 -0.4572
 1912SOL    HW1 6978   3.497   6.007   4.610 -2.9449  0.7273  0.0484
 1912SOL    HW2 6979   3.429   5.872   4.591  0.5177 -0.8231 -1.7053
 1913SOL     OW 6980   6.600   5.445   2.756  0.2136  0.8476  0.2305
 1913SOL    HW1 6981   6.566   5.495   2.682  0.5701  1.1875  0.2955
 1913SOL    HW2 6982   6.682   5.489   2.780 -0.0346  0.9092  1.0032
 1914SOL     OW 6983   2.796   4.229   1.211 -0.3269  0.3262  0.1878
 1914SOL    HW1 6984   2.855   4.195   1.278 -0.4369  0.6030  0.4215
 1914SOL    HW2 6985   2.712   4.186   1.229  0.0679 -0.8989 -0.7962
 1915SOL     OW 6986   7.215   6.172   5.396 -1.0186 -0.2375 -0.1342
 1915SOL    HW1 6987   7.165   6.237   5.347 -1.1266  0.7967  1.3266
 1915SOL    HW2 6988   7.166   6.161   5.478 -0.3403 -1.2689  0.1433
 1916SOL     OW 6989   7.330   5.228   1.201 -0.1767 -0.1332  0.0920
 1916SOL    HW1 6990   7.409   5.255   1.154 -0.7118 -1.2833 -1.5461
 1916SOL    HW2 6991   7.278   5.183   1.134 -2.0823  0.3659  1.2205
 1917SOL     OW 6992   5.041   3.919   1.947  0.2870  0.1457 -0.0885
 1917SOL    HW1 6993   5.077   3.830   1.952  2.3733  0.8813 -1.2831
 1917SOL    HW2 6994   4.967   3.912   1.886  0.0106 -0.9028  0.3604
 1918SOL     OW 6995   5.445   1.402   1.149 -0.6479 -0.2774 -0.4115
 1918SOL    HW1 6996   5.532   1.396   1.109 -0.3349 -2.5225  0.5262
 1918SOL    HW2 6997   5.461   1.440   1.235 -0.8709  1.1902 -1.0026
 1919SOL     OW 6998   7.737   3.983   4.564  0.0612  0.6362  0.1066
 1919SOL    HW1 6999   7.766   3.948   4.648 -0.4933  0.3774  0.1851
 1919SOL    HW2 7000   7.792   4.061   4.551  1.5964 -0.4646 -0.2648
 1920SOL     OW 7001   2.859   7.047   2.791  0.2498 -0.7467  0.5745
 1920SOL    HW1 7002   2.889   6.997   2.866  0.1191 -1.7279 -0.0188
 1920SOL    HW2 7003   2.929   7.036   2.726 -1.2063 -2.7886 -0.7009
 1921SOL     OW 7004   2.142   2.347   2.641 -0.3986 -0.2402  0.4859
 1921SOL    HW1 7005   2.113   2.283   2.575  0.6980  2.8457 -3.1859
 1921SOL    HW2 7006   2.062   2.392   2.667 -0.7762 -1.1634  0.9574
 1922SOL     OW 7007   6.376   6.453   7.095 -0.3371  0.2676 -0.2510
 1922SOL    HW1 7008   6.329   6.536   7.079 -2.6522 -1.1872 -1.3101
 1922SOL    HW2 7009   6.461   6.466   7.054 -0.6455  2.1440 -0.3765
 1923SOL     OW 7010   0.344   5.652   7.363 -0.2073  0.9146  0.2084
 1923SOL    HW1 7011   0.383   5.627   7.280 -3.0094  1.1210 -1.2395
 1923SOL    HW2 7012   0.331   5.570   7.410 -0.5292  0.5915 -0.4417
 1924SOL     OW 7013   2.958   1.027   4.890  0.4437 -0.3213 -0.0388
 1924SOL    HW1 7014   2.903   0.985   4.956 -1.5167  0.9841 -0.7689
 1924SOL    HW2 7015   2.968   1.117   4.922 -1.1148  0.5206 -1.8117
 1925SOL     OW 7016   3.176   1.415   2.342  0.2020  0.2643  0.5256
 1925SOL    HW1 7017   3.158   1.392   2.251  0.8839 -1.4841  0.8264
 1925SOL    HW2 7018   3.261   1.459   2.339  0.6595 -0.6237  0.4374
 1926SOL     OW 7019   7.685   1.625   7.087  0.1894 -0.0371  0.1645
 1926SOL    HW1 7020   7.763   1.573   7.103  0.1277 -0.7673 -1.7232
 1926SOL    HW2 7021   7.710   1.714   7.110  1.7825 -0.1689 -0.9353
 1927SOL     OW 7022   0.907   0.895   0.250  0.2259  0.2676 -0.5068
 1927SOL    HW1 7023   0.834   0.947   0.217 -0.4228 -1.2330 -1.4855
 1927SOL    HW2 7024   0.866   0.824   0.299  1.1321  1.1521  1.6064
 1928SOL     OW 7025   5.655   2.249   2.656 -0.3545 -0.1389 -0.1313
 1928SOL    HW1 7026   5.687   2.330   2.616  0.1678 -0.2591  0.0357
 1928SOL    HW2 7027   5.651   2.269   2.750 -0.2418 -0.2963 -0.0918
 1929SOL     OW 7028   3.164   8.296   2.264 -0.4041  0.1373  0.1199
 1929SOL    HW1 7029   3.077   8.331   2.285 -0.4116 -0.2468  0.7426
 1929SOL    HW2 7030   3.147   8.221   2.209 -0.4710  0.0448  0.2660
 1930SOL     OW 7031   3.873   5.095   4.759  1.1386  0.4447 -0.1057
 1930SOL    HW1 7032   3.821   5.176   4.764  1.5315  0.6634  0.5944
 1930SOL    HW2 7033   3.814   5.031   4.719  0.5695  0.8783  0.0239
 1931SOL     OW 7034   0.145   5.539   2.375 -0.3289 -0.0306  0.4618
 1931SOL    HW1 7035   0.217   5.520   2.435  0.5950  0.4558 -0.4741
 1931SOL    HW2 7036   0.111   5.624   2.404  1.6996  1.3866 -1.1645
 1932SOL     OW 7037   5.894   1.709   6.410  0.1005 -0.0434 -0.1220
 1932SOL    HW1 7038   5.900   1.801   6.384  1.2629  0.4855  1.9003
 1932SOL    HW2 7039   5.911   1.661   6.330 -0.9318  1.4912 -1.3079
 1933SOL     OW 7040   4.424   3.101   3.578  0.2662  0.1266 -0.4642
 1933SOL    HW1 7041   4.499   3.119   3.636 -0.7210 -0.1663  0.9442
 1933SOL    HW2 7042   4.419   3.178   3.522  1.0795  0.5582  0.0313
 1934SOL     OW 7043   6.569   4.637   5.482  0.3002  0.4621  0.4133
 1934SOL    HW1 7044   6.591   4.709   5.542  1.7207  0.0655  0.3670
 1934SOL    HW2 7045   6.473   4.630   5.488  0.3862  0.6932  2.3190
 1935SOL     OW 7046   4.129   8.179   3.564  0.4361  0.0692 -0.1831
 1935SOL    HW1 7047   4.123   8.110   3.498 -0.5262  0.2494 -0.3006
 1935SOL    HW2 7048   4.145   8.259   3.514 -0.7701  0.2786 -0.2454
 1936SOL     OW 7049   4.553   2.320   2.746 -0.0178 -0.1066 -0.0274
 1936SOL    HW1 7050   4.469   2.365   2.738 -0.5630 -1.1450 -0.2172
 1936SOL    HW2 7051   4.559   2.297   2.839 -0.9802 -1.9955 -0.4161
 1937SOL     OW 7052   0.805   3.370   6.142 -0.3285  0.2229 -0.2722
 1937SOL    HW1 7053   0.781   3.459   6.169  0.0446  1.7094 -4.4295
 1937SOL    HW2 7054   0.875   3.344   6.201 -1.6752  1.9803  2.1467
 1938SOL     OW 7055   5.202   2.165   1.623  0.1706 -0.4651 -0.2611
 1938SOL    HW1 7056   5.151   2.095   1.583 -2.0204 -0.2976  2.1395
 1938SOL    HW2 7057   5.239   2.126   1.702  0.3353  0.5901  0.1870
 1939SOL     OW 7058   1.558   6.317   2.143  0.7637 -0.4411  0.1344
 1939SOL    HW1 7059   1.576   6.288   2.054 -0.5509 -0.2765 -0.1952
 1939SOL    HW2 7060   1.553   6.413   2.137  1.9696 -0.3426  0.6313
 1940SOL     OW 7061   6.229   1.628   7.944  0.1405  0.1320 -0.1298
 1940SOL    HW1 7062   6.230   1.621   8.039 -0.2399 -0.4108 -0.1640
 1940SOL    HW2 7063   6.274   1.549   7.913 -1.9626 -0.9651 -0.4518
 1941SOL     OW 7064   5.148   0.628   2.793 -0.5039  0.0414 -0.1938
 1941SOL    HW1 7065   5.121   0.680   2.717  0.4538  1.6270  0.5294
 1941SOL    HW2 7066   5.243   0.640   2.799 -0.5747  0.0085  1.3080
 1942SOL     OW 7067   2.382   4.221   1.801  0.3699  0.5084  0.9233
 1942SOL    HW1 7068   2.369   4.168   1.880 -2.4273 -1.7020 -0.9079
 1942SOL    HW2 7069   2.298   4.265   1.788  0.6881  0.5756 -0.9750
 1943SOL     OW 7070   2.670   5.695   3.726  0.7585  0.4038 -0.2869
 1943SOL    HW1 7071   2.612   5.771   3.732  1.8420  1.4789 -2.6569
 1943SOL    HW2 7072   2.630   5.640   3.659  0.3143 -0.8383  0.9777
 1944SOL     OW 7073   5.157   4.249   6.118  0.2546 -0.2672 -0.8631
 1944SOL    HW1 7074   5.157   4.154   6.102  2.4602 -0.7331  1.4808
 1944SOL    HW2 7075   5.099   4.260   6.193 -0.3962  0.2883 -1.4586
 1945SOL     OW 7076   7.717   6.194   6.722  0.0108 -0.2762 -0.3583
 1945SOL    HW1 7077   7.672   6.278   6.717  0.3025 -0.0410  1.0071
 1945SOL    HW2 7078   7.752   6.181   6.634 -1.9738 -0.0543 -1.2167
 1946SOL     OW 7079   6.448   1.764   3.789  0.4511  0.3589 -0.5114
 1946SOL    HW1 7080   6.495   1.836   3.746  1.4906 -0.3356 -0.5464
 1946SOL    HW2 7081   6.360   1.767   3.751  1.2849 -0.1022 -2.5511
 1947SOL     OW 7082   1.898   3.304   7.501  0.7240  0.3532  0.9441
 1947SOL    HW1 7083   1.891   3.360   7.423  1.7988 -0.0137  0.5725
 1947SOL    HW2 7084   1.810   3.271   7.515  0.6006  0.0746 -0.3873
 1948SOL     OW 7085   6.692   3.801   7.286 -0.4260 -0.1480 -0.1405
 1948SOL    HW1 7086   6.664   3.710   7.282  1.4057 -0.8030  1.1216
 1948SOL    HW2 7087   6.625   3.845   7.338 -0.8958 -0.9513 -0.0690
 1949SOL     OW 7088   7.668   8.120   1.078  0.1468  0.0003  0.1798
 1949SOL    HW1 7089   7.668   8.036   1.032  1.1148  0.2142 -0.2136
 1949SOL    HW2 7090   7.754   8.158   1.060 -1.0852  2.0967 -1.4750
 1950SOL     OW 7091   7.754   2.394   7.670  0.2321  0.2183  0.1915
 1950SOL    HW1 7092   7.765   2.401   7.575  0.8780 -0.6542  0.1936
 1950SOL    HW2 7093   7.745   2.300   7.686  0.1533  0.3601  1.0039
 1951SOL     OW 7094   5.526   6.194   2.286 -0.4422 -0.1886 -0.1736
 1951SOL    HW1 7095   5.523   6.109   2.241 -2.2281  0.5502 -1.5175
 1951SOL    HW2 7096   5.533   6.258   2.216 -1.3897  0.8982  0.7062
 1952SOL     OW 7097   0.120   7.724   0.031 -0.6824 -0.3385 -0.0770
 1952SOL    HW1 7098   0.038   7.686   0.001 -1.8749  0.7736  1.7546
 1952SOL    HW2 7099   0.096   7.806   0.072  1.2290 -0.4496  1.3430
 1953SOL     OW 7100   2.430   6.160   4.063 -0.5087  0.6854 -0.3110
 1953SOL    HW1 7101   2.342   6.191   4.085 -0.2895 -0.1122  1.7433
 1953SOL    HW2 7102   2.478   6.239   4.039 -1.9081  1.0778 -1.9243
 1954SOL     OW 7103   5.660   8.237   4.838  0.9891  0.2143  0.6133
 1954SOL    HW1 7104   5.589   8.227   4.901 -0.3383  1.2165 -0.7027
 1954SOL    HW2 7105   5.713   8.158   4.849 -0.6422 -0.8077  1.2134
 1955SOL     OW 7106   5.886   2.835   3.909  0.3963 -0.4443 -0.0532
 1955SOL    HW1 7107   5.892   2.876   3.995  0.0524  1.0043 -0.7181
 1955SOL    HW2 7108   5.967   2.860   3.865 -0.3893  0.5874 -0.9257
 1956SOL     OW 7109   4.824   2.036   5.937  0.4596  0.6600  0.6343
 1956SOL    HW1 7110   4.884   2.078   5.875  0.6238  0.2661  0.5219
 1956SOL    HW2 7111   4.846   2.075   6.021  1.1559  0.2340  0.6589
 1957SOL     OW 7112   6.346   7.996   0.542 -0.1624 -0.6082 -0.5434
 1957SOL    HW1 7113   6.421   8.042   0.579 -0.6123  1.0785 -1.6487
 1957SOL    HW2 7114   6.379   7.961   0.459  0.2909 -2.6684  0.4792
 1958SOL     OW 7115   7.760   7.976   7.235  0.3293 -0.0679 -0.0390
 1958SOL    HW1 7116   7.669   7.977   7.205  1.1053  2.0099 -2.5694
 1958SOL    HW2 7117   7.764   8.047   7.300  0.0378 -0.4451  0.3893
 1959SOL     OW 7118   0.017   1.717   1.934  0.0953  0.4692 -0.5185
 1959SOL    HW1 7119   0.012   1.628   1.899  0.1678  0.4489 -0.4760
 1959SOL    HW2 7120   0.043   1.706   2.025 -1.0943  0.4650 -0.1707
 1960SOL     OW 7121   8.016   7.499   4.241 -0.1907 -0.6368  0.1168
 1960SOL    HW1 7122   8.102   7.494   4.199 -0.4042 -0.3553 -0.3523
 1960SOL    HW2 7123   8.035   7.493   4.335  0.2724 -1.4880 -0.0179
 1961SOL     OW 7124   4.733   2.502   7.846  0.1548  0.7866  0.4272
 1961SOL    HW1 7125   4.653   2.477   7.893 -0.4012  1.4136 -0.1691
 1961SOL    HW2 7126   4.803   2.491   7.910 -0.5014  0.9599  1.1831
 1962SOL     OW 7127   7.653   2.780   3.880  0.3282  0.3483 -0.1032
 1962SOL    HW1 7128   7.609   2.853   3.836 -0.5488 -1.3052 -2.0426
 1962SOL    HW2 7129   7.623   2.784   3.970 -0.6918  1.6257 -0.4857
 1963SOL     OW 7130   0.230   6.778   3.111  0.0410  0.6655 -0.3996
 1963SOL    HW1 7131   0.164   6.736   3.055  1.6322  0.0508 -1.8382
 1963SOL    HW2 7132   0.251   6.711   3.176 -0.6628  0.8333  0.0160
 1964SOL     OW 7133   5.101   3.599   2.046  0.2842 -0.8015 -0.4114
 1964SOL    HW1 7134   5.016   3.587   2.088  0.4766  1.8420  0.8091
 1964SOL    HW2 7135   5.162   3.550   2.102  0.0353 -0.0173  0.5710
 1965SOL     OW 7136   0.415   2.860   3.289  0.0543 -0.7325 -0.0871
 1965SOL    HW1 7137   0.324   2.886   3.307 -0.0363 -0.8314 -0.3984
 1965SOL    HW2 7138   0.426   2.875   3.195 -0.5755 -3.5322 -0.6610
 1966SOL     OW 7139   3.202   6.592   2.890  0.2720  0.4354 -0.4471
 1966SOL    HW1 7140   3.246   6.509   2.910  1.2003  1.0517  0.1238
 1966SOL    HW2 7141   3.200   6.595   2.795  1.5715  0.4459 -0.4787
 1967SOL     OW 7142   0.983   8.210   5.713 -0.0345  0.8107 -0.0395
 1967SOL    HW1 7143   1.003   8.184   5.622 -0.5214  0.3319 -0.0101
 1967SOL    HW2 7144   1.027   8.144   5.766  0.3483  1.1607  0.0735
 1968SOL     OW 7145   8.021   2.916   6.682 -0.0840 -0.0818  0.2014
 1968SOL    HW1 7146   8.101   2.875   6.715  0.5501  0.3035 -0.8156
 1968SOL    HW2 7147   7.954   2.848   6.690  0.4126 -0.5019  0.8073
 1969SOL     OW 7148   1.968   6.742   6.866  0.2816  0.6953  0.4938
 1969SOL    HW1 7149   1.887   6.703   6.834 -0.8300  3.3626 -0.0683
 1969SOL    HW2 7150   2.022   6.753   6.788  0.6032  0.3030  0.6567
 1970SOL     OW 7151   6.365   7.313   4.137  0.4567  0.4579  0.5510
 1970SOL    HW1 7152   6.356   7.408   4.131 -0.6538  0.4382  1.5504
 1970SOL    HW2 7153   6.334   7.280   4.053 -0.0244  0.9418  0.5346
 1971SOL     OW 7154   8.069   6.349   3.559  0.0257 -0.1089  0.0540
 1971SOL    HW1 7155   8.138   6.367   3.495  0.0257  1.2063  0.4064
 1971SOL    HW2 7156   7.996   6.315   3.508  0.4390 -0.1658 -0.4965
 1972SOL     OW 7157   6.373   2.925   0.617 -0.3040 -0.2068 -0.2664
 1972SOL    HW1 7158   6.403   3.012   0.644  2.0099 -0.5958 -1.4587
 1972SOL    HW2 7159   6.406   2.916   0.528 -0.3582 -2.3913 -0.0780
 1973SOL     OW 7160   7.584   8.238   4.006 -0.0170  0.5229 -0.5763
 1973SOL    HW1 7161   7.625   8.297   4.070  0.1399 -0.0802 -0.1237
 1973SOL    HW2 7162   7.597   8.150   4.041 -0.4832  0.2284 -1.1254
 1974SOL     OW 7163   3.026   1.862   2.550 -0.2702 -0.1296  0.5406
 1974SOL    HW1 7164   3.000   1.881   2.459  0.8021 -0.3875  0.1770
 1974SOL    HW2 7165   2.963   1.797   2.580  0.1695 -1.0430 -0.4708
 1975SOL     OW 7166   7.546   5.233   0.906 -0.6094 -0.3781 -0.6346
 1975SOL    HW1 7167   7.600   5.158   0.883 -0.6072 -0.4590 -0.3731
 1975SOL    HW2 7168   7.456   5.201   0.898 -0.6618  0.1763 -2.4986
 1976SOL     OW 7169   1.844   6.600   2.584 -0.2399 -0.0564 -0.2119
 1976SOL    HW1 7170   1.898   6.679   2.577 -0.6978  0.1853 -1.1629
 1976SOL    HW2 7171   1.773   6.625   2.642 -0.3044  0.1869 -0.3929
 1977SOL     OW 7172   5.465   6.937   6.440 -0.5416  0.5946 -0.0326
 1977SOL    HW1 7173   5.525   6.937   6.515 -0.2900 -0.0963 -0.2347
 1977SOL    HW2 7174   5.517   6.903   6.368 -0.6576  1.6657 -0.6342
 1978SOL     OW 7175   2.452   5.321   5.899 -0.0252  0.1703 -0.9653
 1978SOL    HW1 7176   2.537   5.280   5.887 -0.8638 -1.4701 -1.4360
 1978SOL    HW2 7177   2.392   5.269   5.845 -1.5941  0.3711  0.5308
 1979SOL     OW 7178   4.015   0.810   3.421  0.0678 -0.1043  0.7383
 1979SOL    HW1 7179   3.996   0.846   3.507  0.8276 -1.1689  1.3552
 1979SOL    HW2 7180   3.929   0.783   3.387 -0.2213  0.2364  1.1870
 1980SOL     OW 7181   5.156   7.600   7.873 -0.0833  0.5266 -0.4474
 1980SOL    HW1 7182   5.092   7.546   7.827  0.3819 -0.5333  0.1440
 1980SOL    HW2 7183   5.113   7.623   7.955 -0.6566  1.8789 -1.1015
 1981SOL     OW 7184   2.362   2.831   5.800  0.6133 -0.0368  0.4248
 1981SOL    HW1 7185   2.409   2.880   5.869 -0.4155 -0.1425  1.2126
 1981SOL    HW2 7186   2.344   2.746   5.840 -0.2646  0.0121  0.1344
 1982SOL     OW 7187   5.316   4.130   0.947 -0.0255  0.4284  0.2934
 1982SOL    HW1 7188   5.223   4.105   0.941 -0.0878  0.2650  1.8805
 1982SOL    HW2 7189   5.351   4.074   1.016  1.4059  0.1032 -0.6807
 1983SOL     OW 7190   7.128   6.656   7.781 -0.3927 -0.2409 -0.0839
 1983SOL    HW1 7191   7.219   6.626   7.785  0.1037  1.2183  0.0319
 1983SOL    HW2 7192   7.078   6.589   7.827  0.9476  0.1110  1.9680
 1984SOL     OW 7193   6.364   6.226   2.499  0.0863  0.0140 -0.5580
 1984SOL    HW1 7194   6.451   6.236   2.540  0.2196  0.6477 -0.9838
 1984SOL    HW2 7195   6.382   6.225   2.405 -0.2605 -1.0302 -0.6184
 1985SOL     OW 7196   2.918   3.001   0.562  0.5397  0.3901 -0.8473
 1985SOL    HW1 7197   2.835   2.967   0.529  0.9923 -0.3522 -1.2451
 1985SOL    HW2 7198   2.969   3.021   0.484  0.1829  2.2381 -0.6090
 1986SOL     OW 7199   1.944   3.649   3.359  0.5407 -0.5505 -0.5476
 1986SOL    HW1 7200   1.900   3.648   3.274 -0.5897 -1.4726  0.0288
 1986SOL    HW2 7201   1.948   3.741   3.383 -0.0234 -0.3616 -1.1510
 1987SOL     OW 7202   0.523   2.838   0.561  0.0055  0.1388  0.1689
 1987SOL    HW1 7203   0.547   2.890   0.637 -0.0141  1.2759 -0.5837
 1987SOL    HW2 7204   0.439   2.875   0.532  0.8123  0.8179 -1.3768
 1988SOL     OW 7205   4.834   1.840   7.134 -0.6415 -0.6204  0.1156
 1988SOL    HW1 7206   4.837   1.761   7.188 -0.6577 -0.0088  1.0217
 1988SOL    HW2 7207   4.879   1.815   7.053 -0.1735 -1.3897  0.6030
 1989SOL     OW 7208   2.198   2.245   0.917  0.2341 -0.5530 -0.7413
 1989SOL    HW1 7209   2.170   2.295   0.840  0.1894  0.1110 -0.3042
 1989SOL    HW2 7210   2.288   2.220   0.899  0.9354  1.4089 -0.1321
 1990SOL     OW 7211   5.539   2.448   1.252 -0.3248  0.0157 -0.6487
 1990SOL    HW1 7212   5.557   2.373   1.308  0.3103  0.0321 -0.8265
 1990SOL    HW2 7213   5.472   2.498   1.299 -0.5365 -0.5099 -0.3952
 1991SOL     OW 7214   0.473   8.094   6.363 -0.0869  0.5281 -0.0284
 1991SOL    HW1 7215   0.457   8.033   6.434  0.5368 -1.3426 -1.4683
 1991SOL    HW2 7216   0.548   8.146   6.393  0.2198 -0.2962  0.6505
 1992SOL     OW 7217   6.648   1.105   7.267 -0.1282 -0.2052 -0.1460
 1992SOL    HW1 7218   6.570   1.161   7.255 -1.3550 -1.6750  0.8053
 1992SOL    HW2 7219   6.645   1.080   7.359  2.1377  0.6306  0.1885
 1993SOL     OW 7220   4.476   4.182   4.542  0.5642 -0.0422  0.0779
 1993SOL    HW1 7221   4.407   4.146   4.486  1.4652 -1.2358 -0.2574
 1993SOL    HW2 7222   4.506   4.260   4.495 -0.5611  0.4978  0.2340
 1994SOL     OW 7223   3.312   3.911   7.041  0.8350 -0.5837 -0.6992
 1994SOL    HW1 7224   3.356   3.900   6.957  1.1400 -1.7010 -0.4018
 1994SOL    HW2 7225   3.378   3.886   7.106  0.1784 -1.0155 -0.1920
 1995SOL     OW 7226   3.813   2.960   3.135  0.3084  0.4576 -0.1903
 1995SOL    HW1 7227   3.751   3.032   3.130 -1.1127 -0.7413 -0.1406
 1995SOL    HW2 7228   3.836   2.941   3.044  3.3446  3.1676 -0.0978
 1996SOL     OW 7229   0.239   3.392   7.783  0.0267 -0.7005  0.2187
 1996SOL    HW1 7230   0.245   3.451   7.708 -0.1286 -0.9547  0.0067
 1996SOL    HW2 7231   0.174   3.432   7.841 -0.7536 -1.1376 -0.3508
 1997SOL     OW 7232   3.337   6.669   6.283  0.1419  0.0174 -0.4728
 1997SOL    HW1 7233   3.317   6.715   6.202 -3.0692 -0.0733  0.2082
 1997SOL    HW2 7234   3.289   6.717   6.350  1.7505 -0.6539  1.1865
 1998SOL     OW 7235   7.924   5.048   0.139  0.7905  0.6096  0.0506
 1998SOL    HW1 7236   7.849   4.997   0.107  1.1738  0.1572 -0.1317
 1998SOL    HW2 7237   7.887   5.134   0.161  0.4493  0.8151 -1.2695
 1999SOL     OW 7238   7.809   5.930   0.388 -0.6033 -0.3606 -0.1242
 1999SOL    HW1 7239   7.846   5.847   0.358  0.8440 -0.2301  1.2757
 1999SOL    HW2 7240   7.878   5.994   0.375 -1.6738  0.6192 -1.0864
 2000SOL     OW 7241   4.195   6.347   7.345  0.1545  0.2579 -0.1366
 2000SOL    HW1 7242   4.220   6.432   7.310 -2.5989  0.6648 -1.2136
 2000SOL    HW2 7243   4.102   6.337   7.322  0.6119 -3.3995 -0.7720
 2001SOL     OW 7244   1.405   3.910   3.456  0.6156 -0.2865 -0.1454
 2001SOL    HW1 7245   1.439   3.868   3.536  0.7284 -1.1670 -0.6454
 2001SOL    HW2 7246   1.463   3.985   3.442  0.8959 -0.4117  0.3356
 2002SOL     OW 7247   4.733   8.012   7.484 -0.1608 -0.5755  0.0083
 2002SOL    HW1 7248   4.790   8.077   7.527  2.7338 -4.6796  2.7609
 2002SOL    HW2 7249   4.760   8.013   7.392  0.3484  1.5454  0.1561
 2003SOL     OW 7250   2.609   7.310   0.358  0.1131 -0.0332  0.0148
 2003SOL    HW1 7251   2.519   7.291   0.330 -0.2716 -2.1066  2.4113
 2003SOL    HW2 7252   2.664   7.277   0.287 -0.9444 -1.4029 -0.1929
 2004SOL     OW 7253   3.068   1.887   0.418 -0.2400 -0.0007 -0.9399
 2004SOL    HW1 7254   3.014   1.820   0.375  0.3177 -0.1755 -1.3792
 2004SOL    HW2 7255   3.023   1.905   0.500 -0.9514 -0.1655 -1.2897
 2005SOL     OW 7256   2.949   5.246   1.613 -0.1719  0.8449 -0.0584
 2005SOL    HW1 7257   2.977   5.258   1.704 -0.7920 -1.5774  0.5033
 2005SOL    HW2 7258   2.854   5.233   1.619 -0.1456  0.1591 -0.9835
 2006SOL     OW 7259   0.745   1.990   7.897 -0.0786  0.2046 -0.2953
 2006SOL    HW1 7260   0.801   2.037   7.835  0.8213  0.9482  1.0475
 2006SOL    HW2 7261   0.659   2.032   7.889 -0.0576  0.0514 -1.3003
 2007SOL     OW 7262   1.594   0.427   0.651  0.1357 -0.2474 -0.2346
 2007SOL    HW1 7263   1.593   0.412   0.745 -1.3888  1.0072 -0.0401
 2007SOL    HW2 7264   1.564   0.344   0.613 -2.7080  0.3724  0.5601
 2008SOL     OW 7265   3.131   2.818   4.376  0.3195  0.5327  0.7050
 2008SOL    HW1 7266   3.080   2.854   4.303 -0.2556  1.1085  1.3784
 2008SOL    HW2 7267   3.107   2.725   4.378  0.7470  0.4003 -0.1724
 2009SOL     OW 7268   6.417   7.618   7.436 -0.0697 -0.0049 -0.1420
 2009SOL    HW1 7269   6.387   7.668   7.360  0.2899 -2.1038 -1.6944
 2009SOL    HW2 7270   6.456   7.684   7.494  1.7899  1.3049 -2.8163
 2010SOL     OW 7271   4.627   0.881   3.294  0.7078 -0.3242 -0.3072
 2010SOL    HW1 7272   4.601   0.792   3.268  1.6528 -0.3082 -1.3301
 2010SOL    HW2 7273   4.716   0.891   3.259  0.5459  1.0763 -0.3290
 2011SOL     OW 7274   3.519   7.009   7.306 -0.2274  0.2297  0.0335
 2011SOL    HW1 7275   3.541   7.042   7.393  1.3679 -0.1796 -0.2161
 2011SOL    HW2 7276   3.512   6.914   7.317  3.0948 -0.1748 -0.9163
 2012SOL     OW 7277   4.864   1.249   4.560  0.2365  0.0066  0.2289
 2012SOL    HW1 7278   4.781   1.254   4.514 -0.1379  0.2507  0.9289
 2012SOL    HW2 7279   4.929   1.279   4.496 -0.0557 -1.3710 -0.7158
 2013SOL     OW 7280   7.554   7.509   7.092  0.4382  0.0823 -0.2873
 2013SOL    HW1 7281   7.589   7.423   7.112 -0.0753 -0.3560 -1.2398
 2013SOL    HW2 7282   7.631   7.564   7.078  0.7921 -0.9945 -2.8621
 2014SOL     OW 7283   5.314   3.961   4.566  0.0177  0.2446  0.8946
 2014SOL    HW1 7284   5.394   4.001   4.599  0.5283 -0.6467  0.7686
 2014SOL    HW2 7285   5.244   4.001   4.617  0.5027  1.3411  0.7106
 2015SOL     OW 7286   1.657   4.963   3.954 -0.3958  0.2259 -0.0595
 2015SOL    HW1 7287   1.652   4.875   3.992  0.0681 -0.0258 -0.5924
 2015SOL    HW2 7288   1.568   4.979   3.922 -1.5240  1.4620  3.3953
 2016SOL     OW 7289   6.537   7.774   0.081  0.0389 -0.1817  0.2913
 2016SOL    HW1 7290   6.593   7.760   0.005 -0.8650  1.3232 -0.6718
 2016SOL    HW2 7291   6.493   7.689   0.094  0.4762 -0.5604 -0.6225
 2017SOL     OW 7292   2.821   6.981   7.647 -0.2184 -0.6059  0.0233
 2017SOL    HW1 7293   2.740   7.010   7.689  0.4112  0.5640  0.4612
 2017SOL    HW2 7294   2.792   6.931   7.571 -1.3648  0.5432 -0.3213
 2018SOL     OW 7295   2.500   7.288   5.501  0.5064 -0.0616 -0.0880
 2018SOL    HW1 7296   2.412   7.252   5.517  0.4160  0.2308  0.0725
 2018SOL    HW2 7297   2.518   7.266   5.410  0.4104 -0.4293 -0.0210
 2019SOL     OW 7298   4.485   6.219   1.389 -0.4274  0.0361  0.1657
 2019SOL    HW1 7299   4.511   6.151   1.327  1.1994  0.6860  0.1249
 2019SOL    HW2 7300   4.397   6.244   1.361 -0.2901 -0.7197 -0.9767
 2020SOL     OW 7301   7.371   4.939   0.943 -0.0755  0.2125 -0.2836
 2020SOL    HW1 7302   7.329   4.916   1.026 -1.1792  0.1091 -0.8491
 2020SOL    HW2 7303   7.405   4.855   0.910  0.9903  0.3718  0.3919
 2021SOL     OW 7304   5.996   4.610   3.522 -0.1504 -0.4592  0.1934
 2021SOL    HW1 7305   6.054   4.667   3.573 -0.3909  0.9200 -1.0351
 2021SOL    HW2 7306   5.910   4.620   3.564 -0.1707  0.0113  0.0409
 2022SOL     OW 7307   5.708   7.366   1.194  0.1355  0.4234  0.0651
 2022SOL    HW1 7308   5.780   7.398   1.139  1.2262 -0.1940  1.1271
 2022SOL    HW2 7309   5.722   7.408   1.279 -0.1236 -0.5734  0.6002
 2023SOL     OW 7310   1.239   5.412   2.536  0.2687  0.0238 -0.1574
 2023SOL    HW1 7311   1.331   5.417   2.561  0.4583  0.2796 -0.8809
 2023SOL    HW2 7312   1.241   5.390   2.442 -0.3220  2.9289 -0.9159
 2024SOL     OW 7313   0.845   4.442   3.403 -0.4691 -0.1646 -1.0138
 2024SOL    HW1 7314   0.928   4.417   3.445 -1.3147 -0.7215  0.3883
 2024SOL    HW2 7315   0.824   4.527   3.441 -0.1523  0.3326 -1.9541
 2025SOL     OW 7316   1.340   8.049   6.677 -0.3194 -0.1079 -0.0148
 2025SOL    HW1 7317   1.408   7.983   6.669 -0.2163  0.0784 -0.7474
 2025SOL    HW2 7318   1.380   8.129   6.643 -0.6644  0.1733  0.2339
 2026SOL     OW 7319   2.466   0.192   3.781  0.3308 -0.3984  0.3617
 2026SOL    HW1 7320   2.460   0.282   3.750 -1.6790 -0.6294  0.0089
 2026SOL    HW2 7321   2.465   0.139   3.702 -0.5221 -0.8084  0.6397
 2027SOL     OW 7322   7.712   2.039   2.019 -0.1503  0.1491  0.5704
 2027SOL    HW1 7323   7.677   2.105   1.960  1.6405 -1.3684 -2.2899
 2027SOL    HW2 7324   7.796   2.075   2.048 -0.0856 -0.0036  0.5728
 2028SOL     OW 7325   1.574   7.397   1.444  0.2877 -0.2575 -0.3796
 2028SOL    HW1 7326   1.651   7.449   1.421 -0.9721  2.0533  0.4510
 2028SOL    HW2 7327   1.505   7.429   1.386 -0.8894  0.1112  1.1632
 2029SOL     OW 7328   4.262   5.905   0.471 -0.2309 -0.3258 -0.7658
 2029SOL    HW1 7329   4.301   5.944   0.393 -1.2059  1.2024 -0.5253
 2029SOL    HW2 7330   4.169   5.927   0.465 -0.3493 -0.3596  0.7093
 2030SOL     OW 7331   6.186   2.923   8.111 -0.2686  0.4099 -0.1541
 2030SOL    HW1 7332   6.160   2.835   8.138  2.5994 -0.0715  1.2167
 2030SOL    HW2 7333   6.145   2.981   8.176 -1.8710  0.0897 -0.8596
 2031SOL     OW 7334   5.673   4.711   5.781  0.0347  1.0784 -0.5506
 2031SOL    HW1 7335   5.742   4.742   5.839 -0.0953  0.9289 -0.3163
 2031SOL    HW2 7336   5.718   4.696   5.697  0.7038 -0.9008  0.1271
 2032SOL     OW 7337   2.058   0.322   0.458  0.3077  0.1401 -0.2902
 2032SOL    HW1 7338   2.144   0.280   0.452  0.6096  0.8184 -0.7145
 2032SOL    HW2 7339   2.073   0.399   0.512 -0.3475 -0.5441  0.8902
 2033SOL     OW 7340   5.232   3.057   3.916 -0.2255 -0.2370 -0.2768
 2033SOL    HW1 7341   5.152   3.098   3.883  0.4145 -0.0547 -1.6160
 2033SOL    HW2 7342   5.206   2.968   3.937 -1.1051  0.2076  0.5878
 2034SOL     OW 7343   2.242   1.515   1.187  0.1421  0.0366 -0.2193
 2034SOL    HW1 7344   2.294   1.579   1.139 -0.4788  0.1383 -0.7578
 2034SOL    HW2 7345   2.290   1.502   1.269  0.4411  0.9420 -0.2488
 2035SOL     OW 7346   6.725   2.462   2.169  0.1697  0.3730 -0.5319
 2035SOL    HW1 7347   6.705   2.369   2.160  1.0681 -0.0178  1.3643
 2035SOL    HW2 7348   6.806   2.474   2.119  2.5530 -0.8226  2.9041
 2036SOL     OW 7349   6.136   0.431   4.758  0.2251  0.3064  0.1149
 2036SOL    HW1 7350   6.216   0.474   4.727 -0.1567  0.9812  0.0705
 2036SOL    HW2 7351   6.144   0.341   4.727  1.4081  0.1311  0.8935
 2037SOL     OW 7352   2.137   3.477   5.618 -0.7971  0.4377  0.0065
 2037SOL    HW1 7353   2.078   3.547   5.588 -1.7271  0.9830  2.9183
 2037SOL    HW2 7354   2.220   3.495   5.573 -1.9853  1.4287 -1.8513
 2038SOL     OW 7355   2.201   7.346   5.901  0.2994  0.1296  0.2174
 2038SOL    HW1 7356   2.252   7.428   5.902  0.5911 -0.0527  0.3246
 2038SOL    HW2 7357   2.131   7.362   5.964 -0.7967  1.0217 -1.1984
 2039SOL     OW 7358   1.146   2.842   4.665 -0.1899  0.0771 -0.3792
 2039SOL    HW1 7359   1.124   2.930   4.633  3.0527  1.2250  0.3715
 2039SOL    HW2 7360   1.087   2.829   4.739 -0.8461  1.5375 -0.6130
 2040SOL     OW 7361   2.774   7.241   7.900 -0.1806 -0.4183 -0.1871
 2040SOL    HW1 7362   2.768   7.164   7.844  0.7019 -1.1281  0.6667
 2040SOL    HW2 7363   2.836   7.216   7.968  0.3425  1.1624 -0.0670
 2041SOL     OW 7364   5.722   2.039   6.301 -0.5688 -0.1811 -0.3700
 2041SOL    HW1 7365   5.805   1.992   6.307 -0.5306  0.0996  1.4499
 2041SOL    HW2 7366   5.747   2.128   6.278 -0.4394 -0.2993 -0.7008
 2042SOL     OW 7367   1.450   6.622   2.384  0.7853  0.1518  0.1103
 2042SOL    HW1 7368   1.502   6.577   2.451  0.5035  0.6474  0.6687
 2042SOL    HW2 7369   1.388   6.675   2.434  1.0199  1.0449 -0.5365
 2043SOL     OW 7370   7.566   6.025   1.127 -0.3072  0.0356 -0.1879
 2043SOL    HW1 7371   7.514   6.091   1.081 -1.3650 -1.5966 -1.3811
 2043SOL    HW2 7372   7.533   6.026   1.216 -1.9170 -0.4727 -0.7642
 2044SOL     OW 7373   8.018   4.465   3.903  0.1343  0.0020  0.2032
 2044SOL    HW1 7374   7.981   4.499   3.822 -1.0035  0.0643  0.7297
 2044SOL    HW2 7375   8.059   4.382   3.878 -1.7768 -0.8765 -0.1421
 2045SOL     OW 7376   3.701   3.007   4.120  0.6286  0.4284 -0.0751
 2045SOL    HW1 7377   3.688   3.036   4.029  0.2613  2.2665  0.5396
 2045SOL    HW2 7378   3.710   3.088   4.170 -2.5098 -0.4412  2.0559
 2046SOL     OW 7379   7.305   4.404   2.175  0.2064  0.1461  0.3066
 2046SOL    HW1 7380   7.226   4.350   2.172  0.5634 -0.4593  1.7324
 2046SOL    HW2 7381   7.333   4.409   2.083 -1.5419  0.4767 -0.2414
 2047SOL     OW 7382   5.368   0.274   4.474 -0.2394  0.1605 -0.1938
 2047SOL    HW1 7383   5.421   0.353   4.474  0.7524 -0.4912 -0.8443
 2047SOL    HW2 7384   5.286   0.299   4.515 -0.5266  1.9378 -1.7895
 2048SOL     OW 7385   5.464   5.454   3.676  0.3107  0.7189  0.0602
 2048SOL    HW1 7386   5.547   5.443   3.723  0.2523 -1.0706 -0.2231
 2048SOL    HW2 7387   5.487   5.440   3.584 -0.2736  0.4096 -0.0392
 2049SOL     OW 7388   2.986   7.082   0.054  0.4850 -0.8918  0.1536
 2049SOL    HW1 7389   3.066   7.132   0.036  0.0863  0.0617  0.9211
 2049SOL    HW2 7390   2.981   7.019  -0.017  0.2152  1.1545 -1.7153
 2050SOL     OW 7391   0.700   2.129   6.640  0.2576  0.6346  0.1977
 2050SOL    HW1 7392   0.685   2.035   6.651  1.4998  0.3530 -0.3789
 2050SOL    HW2 7393   0.742   2.155   6.722  3.2221 -0.0708 -1.0308
 2051SOL     OW 7394   5.971   3.239   3.329  0.0675  0.0373 -0.1147
 2051SOL    HW1 7395   6.065   3.234   3.312 -0.1243 -1.8307 -0.7326
 2051SOL    HW2 7396   5.933   3.268   3.246 -0.1148 -1.4944 -0.5789
 2052SOL     OW 7397   4.151   2.981   4.914  1.1429  0.4543 -0.4467
 2052SOL    HW1 7398   4.190   3.068   4.921 -1.1840  1.4068  1.6579
 2052SOL    HW2 7399   4.065   2.996   4.874  1.2845 -1.0547 -1.3341
 2053SOL     OW 7400   2.841   1.139   5.727  0.0556 -0.1775 -0.2706
 2053SOL    HW1 7401   2.797   1.153   5.810 -0.1663 -0.1806 -0.3887
 2053SOL    HW2 7402   2.834   1.222   5.680  1.0574  0.1366  0.1280
 2054SOL     OW 7403   5.596   5.781   4.154  0.5640 -0.0840 -0.4142
 2054SOL    HW1 7404   5.661   5.726   4.197  1.4816  0.8337 -0.6135
 2054SOL    HW2 7405   5.541   5.814   4.225  2.5519  2.0675  0.1924
 2055SOL     OW 7406   6.120   6.349   1.686 -0.0470 -0.0882  0.3848
 2055SOL    HW1 7407   6.077   6.343   1.772 -0.4043  1.2335  0.3038
 2055SOL    HW2 7408   6.154   6.438   1.683 -0.8549  0.1792 -1.2275
 2056SOL     OW 7409   5.953   3.284   4.424  0.1398 -0.0564 -0.0583
 2056SOL    HW1 7410   6.007   3.259   4.499  2.8291 -0.1687 -1.9664
 2056SOL    HW2 7411   5.982   3.226   4.353 -1.0089  1.3259 -1.6974
 2057SOL     OW 7412   1.086   3.411   2.330  0.1843  0.0861  0.0201
 2057SOL    HW1 7413   1.037   3.465   2.392 -0.1153 -0.0340 -0.1107
 2057SOL    HW2 7414   1.032   3.409   2.251 -0.5145 -1.5961  0.5142
 2058SOL     OW 7415   7.962   4.782   6.346 -0.1269  0.3290 -0.0539
 2058SOL    HW1 7416   7.968   4.773   6.441 -0.8647 -1.2922 -0.1274
 2058SOL    HW2 7417   7.879   4.827   6.332  0.0721  0.7352  0.0819
 2059SOL     OW 7418   4.541   1.827   2.017 -0.6195  0.4466 -0.3391
 2059SOL    HW1 7419   4.608   1.764   1.990 -2.0970 -1.8105  1.0472
 2059SOL    HW2 7420   4.574   1.863   2.099 -0.6387  0.0827 -0.1705
 2060SOL     OW 7421   4.515   3.565   0.681 -0.2276  0.2558  0.6558
 2060SOL    HW1 7422   4.437   3.528   0.721 -0.4327  1.0236  0.9820
 2060SOL    HW2 7423   4.555   3.618   0.750  0.9396 -0.6407  0.6977
 2061SOL     OW 7424   2.106   4.501   6.226  0.7043  0.4545 -0.5489
 2061SOL    HW1 7425   2.170   4.555   6.178  1.7286 -1.4600 -1.3912
 2061SOL    HW2 7426   2.158   4.459   6.295  1.0093 -3.3555 -3.0014
 2062SOL     OW 7427   6.878   4.388   5.719 -0.1793 -0.0783  0.2469
 2062SOL    HW1 7428   6.925   4.350   5.793  0.8920 -1.6373 -1.1886
 2062SOL    HW2 7429   6.805   4.328   5.703 -0.4795  0.3168  0.1236
 2063SOL     OW 7430   0.765   3.924   6.342 -0.6662 -0.0612 -0.4564
 2063SOL    HW1 7431   0.726   3.917   6.256 -2.1261  0.2374  0.1695
 2063SOL    HW2 7432   0.774   4.018   6.357  1.6429 -0.1236 -1.1706
 2064SOL     OW 7433   4.247   4.386   5.693  0.5937  0.0718 -0.0417
 2064SOL    HW1 7434   4.250   4.300   5.650  1.1596  0.0913 -0.0452
 2064SOL    HW2 7435   4.258   4.449   5.622  3.5235  0.0529  0.3403
 2065SOL     OW 7436   5.441   4.532   2.670 -0.2212  0.4955 -0.2716
 2065SOL    HW1 7437   5.502   4.501   2.604 -0.9920 -2.6288  0.4262
 2065SOL    HW2 7438   5.357   4.493   2.645 -0.2836 -1.7093  3.1705
 2066SOL     OW 7439   0.688   7.424   0.153  0.5179 -0.0944 -0.1248
 2066SOL    HW1 7440   0.776   7.447   0.122 -0.0276  1.2872 -0.7086
 2066SOL    HW2 7441   0.636   7.415   0.073  0.1370 -0.9933  0.2181
 2067SOL     OW 7442   6.275   1.093   6.188 -0.1069 -0.1805 -0.0740
 2067SOL    HW1 7443   6.370   1.102   6.184 -0.0556 -0.1797  1.0022
 2067SOL    HW2 7444   6.255   1.022   6.127  0.3399  1.4253 -2.1377
 2068SOL     OW 7445   4.279   1.961   1.275  0.3196  0.3686  0.0572
 2068SOL    HW1 7446   4.241   1.983   1.361 -0.9971  0.8611 -0.6352
 2068SOL    HW2 7447   4.322   2.042   1.247  0.6630  0.2386  0.2129
 2069SOL     OW 7448   2.959   2.120   2.910  0.3888 -0.1723  0.0275
 2069SOL    HW1 7449   2.936   2.105   2.819  0.5467  0.0870 -0.0564
 2069SOL    HW2 7450   2.930   2.041   2.956 -0.0055 -0.1552 -0.1912
 2070SOL     OW 7451   7.161   0.960   2.758 -0.2747  0.3782  0.3154
 2070SOL    HW1 7452   7.097   0.975   2.688 -1.2356 -0.1597  1.0637
 2070SOL    HW2 7453   7.211   1.042   2.763 -1.1098  0.9143 -0.0661
 2071SOL     OW 7454   6.188   3.865   6.057 -0.1696 -0.0974  0.2559
 2071SOL    HW1 7455   6.266   3.854   6.002 -0.3957 -0.7722  0.0723
 2071SOL    HW2 7456   6.133   3.926   6.007 -0.2002 -0.3989 -0.0755
 2072SOL     OW 7457   0.487   4.027   5.178 -0.2795  0.0682 -0.1716
 2072SOL    HW1 7458   0.539   4.008   5.256 -0.6653 -1.5663 -0.2997
 2072SOL    HW2 7459   0.434   3.948   5.165 -0.9264  0.7210 -1.5182
 2073SOL     OW 7460   6.645   2.913   2.716 -0.0503 -0.0371 -0.5550
 2073SOL    HW1 7461   6.737   2.920   2.744 -0.7761 -2.1866  2.6326
 2073SOL    HW2 7462   6.613   3.003   2.717  0.9493  0.3337  2.3299
 2074SOL     OW 7463   5.147   4.592   5.124 -0.1696  0.0351  0.0274
 2074SOL    HW1 7464   5.084   4.637   5.180 -0.7761  2.3870 -2.4107
 2074SOL    HW2 7465   5.093   4.551   5.056  0.6727 -1.4460  0.2246
 2075SOL     OW 7466   8.174   2.230   5.469  0.3312  0.5341 -0.5403
 2075SOL    HW1 7467   8.241   2.277   5.518 -0.5515 -0.2294  1.4325
 2075SOL    HW2 7468   8.091   2.255   5.510 -0.3803 -0.5751 -1.2624
 2076SOL     OW 7469   3.716   3.119   0.648  0.4163 -0.0813  0.8396
 2076SOL    HW1 7470   3.649   3.186   0.662  0.4883  0.7920 -2.5772
 2076SOL    HW2 7471   3.680   3.063   0.579  3.1071  0.3272 -0.9704
 2077SOL     OW 7472   1.011   5.417   5.953  0.0687 -0.0585 -0.4140
 2077SOL    HW1 7473   0.934   5.397   5.900 -0.8643  1.9419  0.1459
 2077SOL    HW2 7474   0.978   5.421   6.043  1.1302 -0.7672  0.0120
 2078SOL     OW 7475   7.645   0.212   2.169 -0.0967 -0.0602  0.2525
 2078SOL    HW1 7476   7.624   0.245   2.256 -0.4902 -0.8586  0.4750
 2078SOL    HW2 7477   7.573   0.243   2.114  1.1776  2.1347 -0.2251
 2079SOL     OW 7478   1.977   5.070   7.379  0.4562 -0.1481  0.6322
 2079SOL    HW1 7479   2.045   5.137   7.363  0.9519 -0.1853  2.5025
 2079SOL    HW2 7480   1.895   5.114   7.360  0.8650  0.6376  0.6669
 2080SOL     OW 7481   3.962   2.646   1.095 -1.6563 -0.1369  0.2637
 2080SOL    HW1 7482   4.009   2.652   1.012 -0.9072 -1.7364  0.5679
 2080SOL    HW2 7483   3.876   2.610   1.071 -0.9195 -1.9904  0.3605
 2081SOL     OW 7484   4.531   0.830   6.097 -0.3367 -0.3639 -0.3589
 2081SOL    HW1 7485   4.607   0.884   6.076  0.9450 -0.8083  2.8538
 2081SOL    HW2 7486   4.469   0.890   6.139 -0.3886 -0.6848  0.0259
 2082SOL     OW 7487   4.708   5.632   5.669 -0.8537  0.0932  0.5955
 2082SOL    HW1 7488   4.774   5.698   5.646  1.9567 -1.5995  3.3667
 2082SOL    HW2 7489   4.708   5.570   5.596 -1.1873  1.4100 -0.5381
 2083SOL     OW 7490   7.463   6.416   2.000  0.3930  0.5916 -0.1053
 2083SOL    HW1 7491   7.555   6.420   2.028 -0.3784  3.4881  2.2635
 2083SOL    HW2 7492   7.467   6.377   1.913  3.8906  0.7427 -0.1052
 2084SOL     OW 7493   1.478   5.850   4.823  0.3792 -0.3058 -0.2766
 2084SOL    HW1 7494   1.516   5.927   4.865  1.5995 -0.4663 -1.0945
 2084SOL    HW2 7495   1.383   5.865   4.827  0.5342  0.3710  1.2026
 2085SOL     OW 7496   1.600   5.893   1.178  0.3171  0.0823 -0.3711
 2085SOL    HW1 7497   1.633   5.853   1.097  2.1274  2.0964 -0.6697
 2085SOL    HW2 7498   1.621   5.830   1.246  0.3889 -0.8339 -1.2296
 2086SOL     OW 7499   0.986   7.138   3.416 -0.0103  0.0715  0.1835
 2086SOL    HW1 7500   1.071   7.177   3.437  0.5669 -1.4225  0.6637
 2086SOL    HW2 7501   0.932   7.212   3.388  0.6422  1.3964  2.3684
 2087SOL     OW 7502   4.959   2.241   6.795  0.4598 -0.0453 -0.0149
 2087SOL    HW1 7503   4.900   2.302   6.840 -0.9552 -0.3615 -1.3771
 2087SOL    HW2 7504   4.997   2.188   6.865  0.2101  1.1117  1.0153
 2088SOL     OW 7505   6.902   1.273   2.816  0.0356  0.5980  0.3411
 2088SOL    HW1 7506   6.837   1.224   2.867  0.2583  0.5383  0.5644
 2088SOL    HW2 7507   6.935   1.339   2.877  0.4981  0.3550  0.3528
 2089SOL     OW 7508   2.114   3.924   4.010  0.6771  0.3178  0.2929
 2089SOL    HW1 7509   2.094   4.015   4.033 -1.5856 -0.5200  1.8127
 2089SOL    HW2 7510   2.151   3.887   4.090  0.5800 -0.3762  0.0188
 2090SOL     OW 7511   5.882   6.207   3.489 -0.0036 -0.9513  0.5956
 2090SOL    HW1 7512   5.899   6.131   3.545  1.1847 -0.1825  1.2780
 2090SOL    HW2 7513   5.945   6.199   3.418  0.0585 -0.6431  0.6167
 2091SOL     OW 7514   3.197   3.988   4.383 -0.3748  0.4851 -0.0159
 2091SOL    HW1 7515   3.257   3.969   4.310 -1.1725  1.8026 -1.0296
 2091SOL    HW2 7516   3.245   3.959   4.461  2.6334  3.6301 -0.5535
 2092SOL     OW 7517   5.591   3.743   2.701  0.5653 -0.3538  0.6622
 2092SOL    HW1 7518   5.601   3.649   2.716  1.7723  0.0615  2.6129
 2092SOL    HW2 7519   5.670   3.783   2.737 -0.5686  1.5284  1.2099
 2093SOL     OW 7520   1.646   1.618   7.398 -0.1743  0.1203  0.4163
 2093SOL    HW1 7521   1.606   1.601   7.313  2.7455 -0.7951 -0.8373
 2093SOL    HW2 7522   1.643   1.713   7.407  0.7596  0.3530 -1.4095
 2094SOL     OW 7523   0.500   8.208   2.387  0.5993 -0.3290  0.4675
 2094SOL    HW1 7524   0.424   8.250   2.345  0.5154  1.3348  2.2507
 2094SOL    HW2 7525   0.462   8.152   2.455  0.9997  1.0742  1.8556
 2095SOL     OW 7526   7.697   7.486   8.133 -0.3828 -0.2767  0.1971
 2095SOL    HW1 7527   7.604   7.461   8.134 -0.5013 -0.3933 -4.1503
 2095SOL    HW2 7528   7.743   7.404   8.152 -1.1270 -0.6809  0.2999
 2096SOL     OW 7529   5.892   3.619   0.562 -0.1372  0.6212  0.0899
 2096SOL    HW1 7530   5.917   3.659   0.646 -1.0728  1.8775 -0.2245
 2096SOL    HW2 7531   5.952   3.545   0.553  2.2504  2.4763  0.2280
 2097SOL     OW 7532   1.572   3.705   6.968 -0.2321 -0.3389 -0.0211
 2097SOL    HW1 7533   1.639   3.637   6.967 -0.8620 -1.0128  2.0873
 2097SOL    HW2 7534   1.619   3.784   6.997  0.0545 -0.3399 -0.4721
 2098SOL     OW 7535   7.821   7.012   7.549  0.4119 -0.6164  0.2659
 2098SOL    HW1 7536   7.751   6.970   7.599  1.3777  0.4864  2.6160
 2098SOL    HW2 7537   7.782   7.091   7.513 -0.0558 -0.9802 -0.0268
 2099SOL     OW 7538   0.891   1.759   7.014 -0.3352  0.6766  0.9182
 2099SOL    HW1 7539   0.895   1.754   6.919 -1.3279 -2.5159  0.9703
 2099SOL    HW2 7540   0.802   1.789   7.032  0.2088  2.4077  0.8746
 2100SOL     OW 7541   8.088   0.637   6.645 -0.5955  0.1231 -0.5124
 2100SOL    HW1 7542   8.144   0.663   6.572 -1.0851  0.4356 -0.7860
 2100SOL    HW2 7543   8.093   0.542   6.647 -2.0443 -0.0226 -2.1572
 2101SOL     OW 7544   6.964   7.091   3.146  0.2406  0.0896  0.0046
 2101SOL    HW1 7545   6.897   7.137   3.096 -0.1590 -0.6446 -0.1407
 2101SOL    HW2 7546   6.949   6.998   3.127  1.2617 -0.0861  0.0071
 2102SOL     OW 7547   7.902   2.446   5.439  0.1059 -0.0594 -0.4354
 2102SOL    HW1 7548   7.962   2.517   5.459 -0.4719  0.3410 -0.1097
 2102SOL    HW2 7549   7.947   2.395   5.372  0.6440  0.4488 -0.4653
 2103SOL     OW 7550   1.348   3.449   6.636 -0.2687  0.0047  0.2050
 2103SOL    HW1 7551   1.253   3.440   6.633 -0.2693 -0.0499  0.3478
 2103SOL    HW2 7552   1.362   3.525   6.693 -0.3323  2.4561 -2.9219
 2104SOL     OW 7553   2.798   1.326   3.098 -0.1602  0.2222  0.4321
 2104SOL    HW1 7554   2.815   1.242   3.140 -0.8822 -2.1173 -3.6313
 2104SOL    HW2 7555   2.710   1.350   3.126 -0.6630 -1.3182  0.2007
 2105SOL     OW 7556   5.807   4.967   5.945 -0.5292 -0.0274  0.1336
 2105SOL    HW1 7557   5.876   4.919   5.991 -1.4280 -0.8845  0.5891
 2105SOL    HW2 7558   5.817   5.057   5.976 -0.3726 -0.3770  1.1314
 2106SOL     OW 7559   3.907   5.877   6.009  0.0974 -0.3773 -0.5438
 2106SOL    HW1 7560   3.916   5.951   6.068  0.4454  0.2448 -1.3573
 2106SOL    HW2 7561   3.933   5.801   6.061  0.5384  0.1779  0.0510
 2107SOL     OW 7562   2.407   1.344   7.281  0.5984 -0.2099  0.1552
 2107SOL    HW1 7563   2.443   1.311   7.199  1.3474  0.7871  0.0715
 2107SOL    HW2 7564   2.336   1.403   7.254  0.6602 -0.1018  0.2261
 2108SOL     OW 7565   1.696   5.070   3.251 -0.2666  0.8373 -0.2151
 2108SOL    HW1 7566   1.714   5.087   3.343  2.5089  1.6221 -0.8477
 2108SOL    HW2 7567   1.742   4.987   3.233 -1.4312  0.2927 -0.7191
 2109SOL     OW 7568   2.890   6.336   7.093 -0.2554  0.0377  0.2375
 2109SOL    HW1 7569   2.812   6.355   7.146 -0.6312 -0.6936 -0.0561
 2109SOL    HW2 7570   2.949   6.292   7.154 -0.7460 -0.9371  0.0262
 2110SOL     OW 7571   1.805   4.550   2.596 -0.0810 -0.4638  0.2238
 2110SOL    HW1 7572   1.883   4.601   2.573 -0.0589  0.1665  1.5941
 2110SOL    HW2 7573   1.742   4.568   2.526 -0.1927  1.7437  0.8530
 2111SOL     OW 7574   1.831   3.060   1.453  0.0107  0.2315  0.4984
 2111SOL    HW1 7575   1.926   3.054   1.447  0.1765  2.3578  0.5800
 2111SOL    HW2 7576   1.800   3.042   1.364  0.4044 -1.3349  0.6549
 2112SOL     OW 7577   3.160   7.297   3.443  0.0241 -0.2292  0.1049
 2112SOL    HW1 7578   3.136   7.306   3.351 -1.9926 -1.3090  0.5165
 2112SOL    HW2 7579   3.089   7.247   3.483  1.4627 -0.8518  2.0055
 2113SOL     OW 7580   7.403   8.165   5.340 -0.0642 -0.4906  0.1159
 2113SOL    HW1 7581   7.314   8.199   5.330 -0.7262 -1.9117  0.9712
 2113SOL    HW2 7582   7.423   8.178   5.433  0.5275 -0.4055 -0.0197
 2114SOL     OW 7583   3.597   7.669   3.129 -0.0855 -0.6202  0.4493
 2114SOL    HW1 7584   3.530   7.674   3.197  0.0307 -0.8762  0.5844
 2114SOL    HW2 7585   3.621   7.576   3.126 -0.7426 -0.7708 -0.5747
 2115SOL     OW 7586   3.868   3.084   1.722  0.2482  0.2476  0.5359
 2115SOL    HW1 7587   3.791   3.098   1.667 -0.3425 -1.0157  1.0063
 2115SOL    HW2 7588   3.848   3.004   1.770  1.6002  0.2546  1.1281
 2116SOL     OW 7589   5.954   4.081   2.568 -0.2477  0.4314  0.0528
 2116SOL    HW1 7590   6.048   4.096   2.578 -0.2636  0.4283  0.2058
 2116SOL    HW2 7591   5.923   4.158   2.519 -0.4970  1.3800  1.6737
 2117SOL     OW 7592   0.059   6.766   8.267  0.2399  0.8788  0.1837
 2117SOL    HW1 7593   0.040   6.774   8.174  1.9532  0.6206 -0.1899
 2117SOL    HW2 7594  -0.027   6.776   8.309 -1.0866 -2.1894 -1.5712
 2118SOL     OW 7595   0.015   1.692   8.181  0.2607 -0.3336 -0.3679
 2118SOL    HW1 7596   0.109   1.694   8.199 -0.0931  1.4945  1.4267
 2118SOL    HW2 7597  -0.018   1.776   8.215 -2.1675 -1.3607 -0.0892
 2119SOL     OW 7598   5.144   0.163   5.954  0.4751  0.4294 -0.0652
 2119SOL    HW1 7599   5.088   0.241   5.956 -2.6949 -1.7469 -1.1843
 2119SOL    HW2 7600   5.168   0.149   6.046 -0.0913  1.8656  0.3264
 2120SOL     OW 7601   6.366   4.787   6.451  0.4709 -0.5208  0.6886
 2120SOL    HW1 7602   6.274   4.777   6.426  0.2198  0.1056  1.3341
 2120SOL    HW2 7603   6.410   4.807   6.369 -0.2676  1.0081  0.6399
 2121SOL     OW 7604   5.779   0.460   4.193  0.0008  0.1730  0.3216
 2121SOL    HW1 7605   5.859   0.510   4.177  1.5388 -2.6184 -1.0587
 2121SOL    HW2 7606   5.785   0.435   4.286 -1.5788  3.7570  1.4895
 2122SOL     OW 7607   1.760   7.206   2.349 -0.2177 -1.1027  0.5615
 2122SOL    HW1 7608   1.732   7.115   2.341  0.3618 -1.3236  0.9952
 2122SOL    HW2 7609   1.811   7.223   2.270 -0.0339 -1.2645  0.6437
 2123SOL     OW 7610   6.979   0.044   0.741 -0.3703 -0.5559 -0.6040
 2123SOL    HW1 7611   6.994   0.136   0.717 -0.5681 -0.7330 -1.4294
 2123SOL    HW2 7612   7.029  -0.006   0.676  0.2424 -1.0280  0.2075
 2124SOL     OW 7613   0.487   7.105   7.881 -0.1691 -0.2528  0.3191
 2124SOL    HW1 7614   0.424   7.167   7.844 -2.0945 -1.4563  1.4807
 2124SOL    HW2 7615   0.493   7.036   7.815  0.4664  0.1848 -0.0900
 2125SOL     OW 7616   3.876   6.377   7.797  0.2207  0.8855 -0.3664
 2125SOL    HW1 7617   3.859   6.292   7.758 -0.2043  0.6729  0.2811
 2125SOL    HW2 7618   3.799   6.394   7.852  0.0968  1.8798 -0.8321
 2126SOL     OW 7619   4.682   6.714   4.575  0.6143  0.7260  0.1315
 2126SOL    HW1 7620   4.724   6.628   4.576 -1.6741 -0.4149  1.4443
 2126SOL    HW2 7621   4.627   6.714   4.496 -1.4726 -0.0974  1.5420
 2127SOL     OW 7622   5.779   4.627   4.099 -0.2797 -0.0132  0.6107
 2127SOL    HW1 7623   5.759   4.718   4.078  0.4806 -0.2515 -1.2224
 2127SOL    HW2 7624   5.797   4.627   4.193 -0.4374  1.6883  0.6467
 2128SOL     OW 7625   3.440   5.688   2.936  0.5893 -0.3953  0.3173
 2128SOL    HW1 7626   3.401   5.739   3.007  0.3495  0.1028 -0.1712
 2128SOL    HW2 7627   3.433   5.744   2.859  1.3182 -0.7246  0.0022
 2129SOL     OW 7628   4.060   7.743   2.901 -0.3179 -0.0651 -0.0954
 2129SOL    HW1 7629   4.039   7.779   2.987 -1.7300  1.0646 -0.8862
 2129SOL    HW2 7630   3.976   7.740   2.855  0.6554  0.7907 -1.9647
 2130SOL     OW 7631   6.286   2.430   4.842  0.5491 -0.1348 -0.2903
 2130SOL    HW1 7632   6.348   2.498   4.816  2.4977 -1.6250  0.2630
 2130SOL    HW2 7633   6.334   2.379   4.908 -1.6607 -0.7194  0.9053
 2131SOL     OW 7634   6.200   6.276   3.470  0.7615 -0.4635 -0.1025
 2131SOL    HW1 7635   6.135   6.260   3.402  0.6241 -0.2036 -0.0323
 2131SOL    HW2 7636   6.188   6.368   3.494 -0.7502 -1.1740  1.9263
 2132SOL     OW 7637   0.235   3.304   5.545 -0.3592  0.1311  0.1297
 2132SOL    HW1 7638   0.329   3.303   5.565 -0.7418  0.6405  1.9760
 2132SOL    HW2 7639   0.216   3.214   5.518  0.7863  0.1879 -0.9600
 2133SOL     OW 7640   0.555   0.726   3.055  0.0113 -0.3417  0.2503
 2133SOL    HW1 7641   0.619   0.781   3.010  0.4294  0.6122  1.9622
 2133SOL    HW2 7642   0.590   0.716   3.144 -0.9027 -1.9919  0.4426
 2134SOL     OW 7643   8.081   3.993   4.670 -0.4625 -0.2115  0.0324
 2134SOL    HW1 7644   8.051   4.065   4.727 -1.0943 -0.3283 -0.1519
 2134SOL    HW2 7645   8.004   3.970   4.618  1.2428  3.0096 -4.2350
 2135SOL     OW 7646   7.537   0.759   6.312  0.0440  0.5081 -0.3991
 2135SOL    HW1 7647   7.579   0.679   6.344 -1.3686 -0.4601 -0.9239
 2135SOL    HW2 7648   7.493   0.795   6.389  1.0883  1.0607 -0.0481
 2136SOL     OW 7649   0.267   5.821   7.638  0.0316 -0.1525 -0.1717
 2136SOL    HW1 7650   0.216   5.873   7.576  0.0170  1.0135  0.7990
 2136SOL    HW2 7651   0.235   5.731   7.626 -1.8518  0.4742  0.0243
 2137SOL     OW 7652   5.914   4.367   3.470 -0.0600 -0.5644 -0.0380
 2137SOL    HW1 7653   5.934   4.452   3.509  2.0082 -1.0609  0.0239
 2137SOL    HW2 7654   5.824   4.376   3.440  0.6843  2.2688 -1.6650
 2138SOL     OW 7655   0.570   5.871   6.374 -0.1196 -0.1433 -0.1683
 2138SOL    HW1 7656   0.587   5.812   6.301 -1.5481 -0.8761  0.0776
 2138SOL    HW2 7657   0.624   5.837   6.445  0.3854 -0.1114 -0.5288
 2139SOL     OW 7658   4.834   2.435   6.944 -0.8283 -0.0528 -0.5629
 2139SOL    HW1 7659   4.866   2.525   6.946 -0.3904 -0.1763 -1.5206
 2139SOL    HW2 7660   4.823   2.410   7.036 -0.3771  0.7727 -0.2858
 2140SOL     OW 7661   6.483   5.378   6.821  0.3357 -0.0951 -0.3496
 2140SOL    HW1 7662   6.542   5.434   6.770  1.2240 -0.8953 -0.2241
 2140SOL    HW2 7663   6.492   5.409   6.911 -0.4276  0.6247 -0.5114
 2141SOL     OW 7664   1.696   1.144   7.949 -0.3900 -0.6043 -0.0021
 2141SOL    HW1 7665   1.665   1.112   7.865 -1.6322  1.3241 -0.3153
 2141SOL    HW2 7666   1.617   1.176   7.993  0.8766  3.0557 -0.2040
 2142SOL     OW 7667   2.538   0.067   2.487 -0.2856 -0.0779 -0.1089
 2142SOL    HW1 7668   2.486   0.113   2.553  2.2319  1.8487  0.6632
 2142SOL    HW2 7669   2.551   0.132   2.418  1.5201 -0.3031 -0.0100
 2143SOL     OW 7670   1.785   0.805   4.270  0.8270 -0.2393 -0.5826
 2143SOL    HW1 7671   1.817   0.750   4.197  3.1114 -0.4160  0.5173
 2143SOL    HW2 7672   1.853   0.871   4.282 -1.0581  1.7868 -0.6866
 2144SOL     OW 7673   1.557   0.813   1.618  0.1240  0.2128  0.3295
 2144SOL    HW1 7674   1.598   0.852   1.695 -0.4908  0.3008  0.6126
 2144SOL    HW2 7675   1.464   0.836   1.626 -0.0397 -0.2949 -0.1214
 2145SOL     OW 7676   1.726   2.017   0.451 -0.0640 -0.1545  0.4635
 2145SOL    HW1 7677   1.695   1.932   0.419 -0.0430  0.7094 -1.9371
 2145SOL    HW2 7678   1.653   2.051   0.504 -0.3749 -1.3014  0.7855
 2146SOL     OW 7679   2.913   2.308   0.115  0.1092  0.0769 -0.4950
 2146SOL    HW1 7680   2.914   2.215   0.095 -0.4886 -0.0116 -0.1306
 2146SOL    HW2 7681   2.861   2.347   0.045  0.4329  0.1439 -0.6950
 2147SOL     OW 7682   3.520   8.300   0.411  0.0322  0.6213 -0.2862
 2147SOL    HW1 7683   3.541   8.391   0.391 -0.5497  0.6670 -0.7277
 2147SOL    HW2 7684   3.458   8.274   0.342  1.0481 -0.4415 -0.8131
 2148SOL     OW 7685   3.746   4.970   4.521 -0.5856 -0.3831 -0.2919
 2148SOL    HW1 7686   3.665   5.002   4.482  0.9828  1.6128 -1.9990
 2148SOL    HW2 7687   3.783   4.912   4.454 -0.0539 -0.4223  0.0383
 2149SOL     OW 7688   5.512   3.709   5.089 -0.4278 -0.2210 -0.0192
 2149SOL    HW1 7689   5.511   3.614   5.080 -2.8162 -0.2071 -0.1941
 2149SOL    HW2 7690   5.481   3.725   5.178 -3.6677  0.4442 -1.1843
 2150SOL     OW 7691   1.524   5.274   7.057 -0.2349  0.2143  0.3014
 2150SOL    HW1 7692   1.578   5.239   7.128 -0.6427 -0.2483  0.3878
 2150SOL    HW2 7693   1.437   5.240   7.074 -0.5468  0.9174  0.1336
 2151SOL     OW 7694   1.091   7.619   6.958 -0.0512  0.5939 -0.1684
 2151SOL    HW1 7695   1.123   7.560   6.891  0.3667  1.5476 -0.8248
 2151SOL    HW2 7696   1.169   7.650   7.003 -0.3942 -0.8200  1.4449
 2152SOL     OW 7697   1.799   5.117   1.354 -0.2283  0.6130  0.1645
 2152SOL    HW1 7698   1.769   5.145   1.268 -0.0522  2.0190  0.5481
 2152SOL    HW2 7699   1.792   5.195   1.409  0.2214 -0.1111  1.2804
 2153SOL     OW 7700   7.719   0.804   7.916  0.0208 -0.3978  0.1167
 2153SOL    HW1 7701   7.803   0.849   7.926 -0.1089 -0.5751  2.1962
 2153SOL    HW2 7702   7.724   0.730   7.977 -2.0177  0.1736  1.0090
 2154SOL     OW 7703   8.279   1.453   1.887 -0.0296  0.1712  0.2143
 2154SOL    HW1 7704   8.263   1.420   1.799 -1.0351  0.4896  0.2629
 2154SOL    HW2 7705   8.335   1.388   1.929  0.1596 -0.1522 -0.5480
 2155SOL     OW 7706   8.184   5.282   4.560  0.2338  0.5273  0.2984
 2155SOL    HW1 7707   8.228   5.254   4.640  0.8657  1.4408  0.2836
 2155SOL    HW2 7708   8.254   5.290   4.495 -0.0492  1.3187  0.0828
 2156SOL     OW 7709   6.669   0.348   2.923  0.1402 -0.3279 -0.7311
 2156SOL    HW1 7710   6.632   0.422   2.874 -0.7935  0.5518  1.2403
 2156SOL    HW2 7711   6.684   0.383   3.011 -0.5707 -2.5612  0.3078
 2157SOL     OW 7712   7.803   5.540   4.821 -0.2488  0.5947  0.1450
 2157SOL    HW1 7713   7.850   5.465   4.857 -0.0193  1.6538  2.0801
 2157SOL    HW2 7714   7.854   5.566   4.745 -0.8849 -1.8315 -1.1789
 2158SOL     OW 7715   3.823   6.173   0.164 -0.9097 -0.0922  0.7481
 2158SOL    HW1 7716   3.804   6.266   0.179 -1.5030  0.0824 -1.0297
 2158SOL    HW2 7717   3.822   6.163   0.069  3.2745 -1.0714  0.7047
 2159SOL     OW 7718   3.863   6.225   4.128 -0.4671 -0.2203  0.2551
 2159SOL    HW1 7719   3.863   6.285   4.203 -0.1889  0.2815 -0.1403
 2159SOL    HW2 7720   3.818   6.147   4.160  1.4317 -0.8054  1.5865
 2160SOL     OW 7721   5.175   6.483   1.777 -0.2567  0.5238  0.0982
 2160SOL    HW1 7722   5.158   6.421   1.706  1.2731  0.1201  0.0650
 2160SOL    HW2 7723   5.115   6.556   1.760  0.2034  0.5130 -1.6988
 2161SOL     OW 7724   5.584   1.012   4.906 -0.0150  0.2463  0.0591
 2161SOL    HW1 7725   5.544   1.033   4.821  0.2160  1.4975  0.2483
 2161SOL    HW2 7726   5.678   1.005   4.887 -0.2804 -2.6154 -0.3716
 2162SOL     OW 7727   6.265   7.780   0.705 -0.0611  0.1281  0.5627
 2162SOL    HW1 7728   6.223   7.808   0.786 -1.1196 -0.4662  0.2287
 2162SOL    HW2 7729   6.283   7.861   0.657  0.6990  0.4931  1.4434
 2163SOL     OW 7730   6.138   3.547   2.889 -0.1855  0.3482  0.8776
 2163SOL    HW1 7731   6.216   3.493   2.872  0.4228  1.2882  0.6476
 2163SOL    HW2 7732   6.064   3.489   2.870  0.4528 -0.7771  1.7660
 2164SOL     OW 7733   5.858   1.384   2.113  0.0344  0.6444 -0.1290
 2164SOL    HW1 7734   5.799   1.314   2.142  0.0773  0.6028 -0.1408
 2164SOL    HW2 7735   5.818   1.465   2.145  0.0811  0.5994  0.0470
 2165SOL     OW 7736   0.352   0.966   6.778  0.0666  0.3727 -0.1360
 2165SOL    HW1 7737   0.408   0.944   6.852  0.1353  1.2349  0.0777
 2165SOL    HW2 7738   0.271   1.000   6.818  0.3431  1.4234 -0.4450
 2166SOL     OW 7739   4.901   8.036   0.032  0.0312 -0.0198 -0.1999
 2166SOL    HW1 7740   4.819   8.014  -0.012  0.2361  0.7531 -0.9994
 2166SOL    HW2 7741   4.892   8.001   0.120 -0.0204 -2.3971 -1.1307
 2167SOL     OW 7742   7.416   1.574   1.548 -0.3185  0.6398 -0.1493
 2167SOL    HW1 7743   7.416   1.611   1.636  0.5196 -0.5015  0.3400
 2167SOL    HW2 7744   7.353   1.502   1.553 -0.3472  0.6383 -0.5184
 2168SOL     OW 7745   1.584   6.816   4.151  0.2516  0.5599 -0.3935
 2168SOL    HW1 7746   1.600   6.722   4.150  0.7048  0.6328 -0.3332
 2168SOL    HW2 7747   1.527   6.831   4.227  0.9828  0.4604  0.1750
 2169SOL     OW 7748   4.720   4.046   6.414 -0.3213  0.0237 -0.5437
 2169SOL    HW1 7749   4.716   4.011   6.326  0.4523  1.1253 -1.0274
 2169SOL    HW2 7750   4.628   4.064   6.437 -0.5915 -1.0085 -0.8041
 2170SOL     OW 7751   0.103   4.943   0.674 -0.0801  0.2411  0.0897
 2170SOL    HW1 7752   0.012   4.916   0.671 -0.8379  2.5591  0.6009
 2170SOL    HW2 7753   0.132   4.942   0.583 -1.2630  1.5042 -0.3094
 2171SOL     OW 7754   5.422   5.787   3.431  0.5002 -0.1443 -0.1180
 2171SOL    HW1 7755   5.514   5.784   3.458 -0.0777 -1.0268  1.8329
 2171SOL    HW2 7756   5.391   5.873   3.461  0.8102  0.3925 -1.2837
 2172SOL     OW 7757   3.330   4.165   5.927 -0.2869 -0.0586  0.1997
 2172SOL    HW1 7758   3.389   4.089   5.930  0.0845  0.2714  1.1949
 2172SOL    HW2 7759   3.348   4.205   5.842  0.9010  0.0139  0.4761
 2173SOL     OW 7760   3.781   3.319   6.702  0.1216  0.1839  0.0212
 2173SOL    HW1 7761   3.685   3.314   6.701  0.1791 -1.0161  0.0817
 2173SOL    HW2 7762   3.806   3.290   6.790  0.5512  0.2976 -0.0620
 2174SOL     OW 7763   4.856   7.587   3.511  0.5324  0.1429  0.3850
 2174SOL    HW1 7764   4.930   7.580   3.451  0.2278 -0.4144  0.0673
 2174SOL    HW2 7765   4.779   7.573   3.456 -0.1451  5.1179 -0.1038
 2175SOL     OW 7766   3.540   3.114   5.786 -0.2179  0.6750 -0.4422
 2175SOL    HW1 7767   3.603   3.064   5.838 -0.8376  0.6891  0.3331
 2175SOL    HW2 7768   3.560   3.205   5.806 -1.4625  0.6541  1.0029
 2176SOL     OW 7769   2.747   2.411   5.460 -0.3480  0.1058  0.2018
 2176SOL    HW1 7770   2.697   2.355   5.402  1.0418 -0.1614 -0.7737
 2176SOL    HW2 7771   2.683   2.447   5.521 -1.8623  0.6020 -1.6500
 2177SOL     OW 7772   8.040   4.025   7.959 -0.2676 -0.0183  0.4045
 2177SOL    HW1 7773   8.063   3.937   7.989  1.3059  0.3867  0.4397
 2177SOL    HW2 7774   8.124   4.069   7.947 -1.0061  1.1432 -0.6553
 2178SOL     OW 7775   0.496   1.712   7.279  0.2465  0.3346  0.2967
 2178SOL    HW1 7776   0.557   1.655   7.326 -0.4342 -0.5929  0.0642
 2178SOL    HW2 7777   0.441   1.749   7.348 -1.9664 -2.4710  0.1051
 2179SOL     OW 7778   7.874   8.066   6.963 -0.1002 -0.1960  0.5148
 2179SOL    HW1 7779   7.907   8.058   7.052  0.3621  0.2500  0.3876
 2179SOL    HW2 7780   7.950   8.092   6.912 -1.1406  3.2033  0.6091
 2180SOL     OW 7781   0.436   6.909   3.427 -0.6950  0.6400 -0.5588
 2180SOL    HW1 7782   0.518   6.956   3.409 -0.8321  0.9577 -0.3497
 2180SOL    HW2 7783   0.369   6.958   3.378 -0.8780  0.8064 -0.1396
 2181SOL     OW 7784   6.889   3.606   2.754 -0.2958 -0.1147  0.2989
 2181SOL    HW1 7785   6.914   3.535   2.813 -0.0115 -0.4259 -0.1916
 2181SOL    HW2 7786   6.806   3.638   2.790 -0.0194 -0.1551  0.9900
 2182SOL     OW 7787   6.922   7.614   8.008 -0.4910 -0.0309 -0.1842
 2182SOL    HW1 7788   6.877   7.699   8.004  0.3725  0.4387  0.0353
 2182SOL    HW2 7789   7.013   7.634   7.989  0.1736 -0.5457  2.2799
 2183SOL     OW 7790   1.850   5.801   7.030  0.2533 -0.7575 -1.0593
 2183SOL    HW1 7791   1.756   5.807   7.049  0.2996 -0.4400 -0.9327
 2183SOL    HW2 7792   1.889   5.772   7.112  0.6896  2.4608 -0.0538
 2184SOL     OW 7793   1.352   3.599   0.772 -0.2298  0.0009  0.2377
 2184SOL    HW1 7794   1.322   3.510   0.790  0.7463 -0.3318  0.2763
 2184SOL    HW2 7795   1.340   3.610   0.678 -1.8225  0.3958  0.4759
 2185SOL     OW 7796   0.931   5.938   3.528  0.1160 -0.0726  0.0589
 2185SOL    HW1 7797   0.888   6.004   3.583  2.1048  0.4529  0.9969
 2185SOL    HW2 7798   0.869   5.925   3.456 -0.6837  2.2420  0.2611
 2186SOL     OW 7799   2.322   5.619   2.624  0.3423  0.0348  0.1713
 2186SOL    HW1 7800   2.368   5.694   2.661 -1.1825  2.5389 -2.8145
 2186SOL    HW2 7801   2.374   5.594   2.548 -1.5453  0.9480 -1.4509
 2187SOL     OW 7802   3.067   6.089   2.493 -0.1945  0.2051 -0.0825
 2187SOL    HW1 7803   3.160   6.069   2.492 -0.5380 -1.5511  0.9409
 2187SOL    HW2 7804   3.052   6.131   2.577 -0.1258  1.5902 -0.7468
 2188SOL     OW 7805   8.152   2.029   6.434 -0.1500  0.1689 -0.7604
 2188SOL    HW1 7806   8.111   1.987   6.510  0.3920 -1.1477 -1.1904
 2188SOL    HW2 7807   8.224   2.080   6.471  0.5300 -1.0033 -0.4484
 2189SOL     OW 7808   6.664   6.994   8.226  0.0042  0.3027 -0.6323
 2189SOL    HW1 7809   6.748   6.993   8.272  1.4360 -1.4132 -3.1322
 2189SOL    HW2 7810   6.660   7.081   8.185 -0.1203  0.9134  0.6643
 2190SOL     OW 7811   2.460   0.369   7.939  0.0638  0.1587 -0.3069
 2190SOL    HW1 7812   2.479   0.404   8.025  0.3457 -1.3095  0.2517
 2190SOL    HW2 7813   2.528   0.405   7.882  2.0434 -1.6760  0.8240
 2191SOL     OW 7814   6.842   1.906   3.368  0.0401 -0.1861 -0.4077
 2191SOL    HW1 7815   6.927   1.866   3.388  0.0329 -1.3415 -2.4949
 2191SOL    HW2 7816   6.820   1.956   3.446  3.6894  1.9560 -0.6202
 2192SOL     OW 7817   0.534   5.844   7.623  0.3190 -0.7951  0.1783
 2192SOL    HW1 7818   0.522   5.912   7.557 -0.2005  1.9204  2.9480
 2192SOL    HW2 7819   0.451   5.797   7.624  0.3322 -0.8667 -1.0937
 2193SOL     OW 7820   1.911   4.576   5.183  0.0329 -0.1762 -0.0991
 2193SOL    HW1 7821   1.954   4.628   5.250 -0.9733 -0.5248  0.8378
 2193SOL    HW2 7822   1.949   4.606   5.100  0.7396  0.7843  0.5698
 2194SOL     OW 7823   7.248   0.762   2.450  0.5388 -0.0505  0.0066
 2194SOL    HW1 7824   7.314   0.831   2.447 -1.1799  1.8205  2.5374
 2194SOL    HW2 7825   7.165   0.809   2.458 -0.7873 -2.3956  0.6326
 2195SOL     OW 7826   7.723   3.674   5.833  0.0890 -0.0361  0.1997
 2195SOL    HW1 7827   7.788   3.685   5.763  0.6241  0.9639  0.8369
 2195SOL    HW2 7828   7.772   3.635   5.905  0.1203  1.2291  0.8744
 2196SOL     OW 7829   0.332   6.460   8.028 -0.2709 -0.7049 -0.5837
 2196SOL    HW1 7830   0.327   6.542   8.076  0.7596 -1.1539  0.2959
 2196SOL    HW2 7831   0.359   6.486   7.940 -0.1033 -0.0857 -0.3527
 2197SOL     OW 7832   6.605   6.467   4.926  0.1656  0.1459 -0.0110
 2197SOL    HW1 7833   6.648   6.544   4.887  0.0987 -1.0364 -2.5451
 2197SOL    HW2 7834   6.668   6.396   4.915  0.8848  0.1110  3.7645
 2198SOL     OW 7835   0.792   1.379   0.270  0.0220  0.0578  0.0296
 2198SOL    HW1 7836   0.745   1.451   0.229 -0.6683 -1.1005 -1.2509
 2198SOL    HW2 7837   0.724   1.315   0.293  0.7462 -0.7267  0.0453
 2199SOL     OW 7838   2.886   2.133   7.349 -0.2402  0.5846  0.2138
 2199SOL    HW1 7839   2.916   2.095   7.266 -0.4034  0.3344  0.2663
 2199SOL    HW2 7840   2.814   2.191   7.325 -0.6640  0.0749  0.2376
 2200SOL     OW 7841   7.439   4.020   5.851  0.1471  0.1293 -0.2945
 2200SOL    HW1 7842   7.428   4.013   5.756 -1.9119  1.0187 -0.1592
 2200SOL    HW2 7843   7.532   4.008   5.866  0.5639  0.5037 -2.4831
 2201SOL     OW 7844   0.415   3.056   2.091 -0.5964 -0.4532  0.3422
 2201SOL    HW1 7845   0.470   3.119   2.139  0.0866  0.7652 -1.9726
 2201SOL    HW2 7846   0.337   3.106   2.066 -0.1421 -0.5419 -1.3337
 2202SOL     OW 7847   2.911   3.555   1.871  0.3316 -0.2755 -0.0819
 2202SOL    HW1 7848   2.899   3.592   1.784 -0.6311 -1.5295 -0.4827
 2202SOL    HW2 7849   2.927   3.462   1.857 -0.5573 -0.6267  1.1121
 2203SOL     OW 7850   2.469   5.096   3.409 -0.0253  0.1138 -0.4100
 2203SOL    HW1 7851   2.402   5.107   3.476 -0.8613 -0.2592 -1.1837
 2203SOL    HW2 7852   2.421   5.094   3.327  1.0018  0.6021 -1.0265
 2204SOL     OW 7853   4.892   0.155   0.571  0.1143 -0.3265 -1.2418
 2204SOL    HW1 7854   4.970   0.209   0.566  0.2415 -0.4043 -0.2218
 2204SOL    HW2 7855   4.896   0.100   0.493  0.1402  0.9056 -2.1407
 2205SOL     OW 7856   3.789   5.114   1.756  0.2338  0.0017 -0.1459
 2205SOL    HW1 7857   3.879   5.080   1.759  0.3477  0.3180  0.0440
 2205SOL    HW2 7858   3.800   5.208   1.742  0.0045  0.5333  2.9879
 2206SOL     OW 7859   3.365   2.984   2.361 -0.2484 -0.4986  0.5103
 2206SOL    HW1 7860   3.439   2.944   2.315 -1.8682 -1.0531 -1.7067
 2206SOL    HW2 7861   3.375   3.078   2.347 -0.6274 -0.6537 -0.8651
 2207SOL     OW 7862   5.323   2.459   7.301  0.3382 -0.2838  0.0999
 2207SOL    HW1 7863   5.302   2.525   7.235  1.6532 -0.5382 -0.5829
 2207SOL    HW2 7864   5.357   2.509   7.375 -1.7211  0.0562  0.8581
 2208SOL     OW 7865   3.827   2.355   6.427  0.0497 -0.2907 -0.0926
 2208SOL    HW1 7866   3.836   2.388   6.338 -2.2760 -0.1659 -0.3332
 2208SOL    HW2 7867   3.869   2.269   6.426 -1.8364 -1.2286 -1.9234
 2209SOL     OW 7868   4.382   8.131   0.906 -0.1687  0.0837  0.1455
 2209SOL    HW1 7869   4.323   8.183   0.851 -0.4154 -1.2363 -0.8461
 2209SOL    HW2 7870   4.332   8.053   0.930  0.1417  0.3583  1.7787
 2210SOL     OW 7871   7.004   4.633   5.777 -0.0066 -0.1786 -0.2605
 2210SOL    HW1 7872   6.964   4.549   5.753 -1.1936  0.4338 -0.4590
 2210SOL    HW2 7873   6.995   4.687   5.699 -1.1516  0.8274  0.5513
 2211SOL     OW 7874   0.705   7.530   1.890 -0.9248 -0.0611 -0.0385
 2211SOL    HW1 7875   0.780   7.586   1.911 -0.5901  0.0716 -1.5104
 2211SOL    HW2 7876   0.628   7.586   1.901 -0.6680  0.3642 -0.3921
 2212SOL     OW 7877   3.009   7.821   0.683  0.1166 -0.9353 -0.0401
 2212SOL    HW1 7878   2.967   7.907   0.676  0.4872 -0.5920  1.6347
 2212SOL    HW2 7879   2.976   7.786   0.766  0.8573 -1.9308 -0.1629
 2213SOL     OW 7880   4.635   3.150   7.681 -0.0080  0.4756 -0.2795
 2213SOL    HW1 7881   4.619   3.088   7.752  1.0116  0.0015 -0.4571
 2213SOL    HW2 7882   4.660   3.231   7.725 -1.1819  0.7217 -0.0525
 2214SOL     OW 7883   2.501   7.347   2.284 -0.5231 -0.2653  0.3600
 2214SOL    HW1 7884   2.442   7.297   2.340 -0.3932  1.0373  1.6907
 2214SOL    HW2 7885   2.487   7.438   2.310  2.2488  0.0498  0.8889
 2215SOL     OW 7886   3.042   2.559   0.364 -0.2798 -0.3474 -0.4702
 2215SOL    HW1 7887   2.954   2.593   0.380  0.7421  1.8480  0.7150
 2215SOL    HW2 7888   3.069   2.600   0.282  0.0894 -0.0927 -0.2216
 2216SOL     OW 7889   7.692   4.617   0.093  0.0639  0.0061  0.0088
 2216SOL    HW1 7890   7.760   4.553   0.116  0.2865 -0.3546 -1.6498
 2216SOL    HW2 7891   7.640   4.574   0.025 -0.8281  0.9392  0.0819
 2217SOL     OW 7892   7.920   4.446   0.716 -0.5529  0.1635  0.3920
 2217SOL    HW1 7893   7.839   4.408   0.750 -0.6057  1.7617  2.1800
 2217SOL    HW2 7894   7.955   4.380   0.656 -2.3091 -1.2498  0.8835
 2218SOL     OW 7895   5.995   8.270   1.370  0.2599  0.8293  0.9851
 2218SOL    HW1 7896   5.988   8.357   1.409  0.3605  1.3601 -0.1610
 2218SOL    HW2 7897   6.089   8.250   1.374  0.2822  0.9222  0.9203
 2219SOL     OW 7898   0.515   2.192   0.461 -0.0790 -0.2943 -0.9322
 2219SOL    HW1 7899   0.426   2.222   0.484  0.6191  1.1649 -0.0158
 2219SOL    HW2 7900   0.551   2.161   0.544  1.2340  1.7518 -0.6859
 2220SOL     OW 7901   0.777   5.722   6.798  0.7129 -0.2154  0.2397
 2220SOL    HW1 7902   0.686   5.719   6.769 -0.2890 -0.9271  3.2157
 2220SOL    HW2 7903   0.796   5.815   6.810 -0.3107 -0.1505  1.5043
 2221SOL     OW 7904   3.938   0.716   0.366 -0.5351  0.3219  0.3878
 2221SOL    HW1 7905   4.027   0.682   0.360 -0.4827  0.5310 -0.0102
 2221SOL    HW2 7906   3.948   0.807   0.394 -0.6882 -0.0538  1.6971
 2222SOL     OW 7907   3.761   0.786   6.487  0.6909  0.0705 -0.1481
 2222SOL    HW1 7908   3.771   0.783   6.582 -0.1520 -1.8659 -0.0955
 2222SOL    HW2 7909   3.673   0.823   6.474 -0.3222 -2.1995 -0.0665
 2223SOL     OW 7910   0.724   1.219   2.174 -0.0404 -0.2569 -0.0510
 2223SOL    HW1 7911   0.646   1.171   2.203  0.0347 -0.1418  0.3407
 2223SOL    HW2 7912   0.771   1.156   2.120  0.6366 -1.0134  1.4009
 2224SOL     OW 7913   3.270   4.520   6.166 -0.3955  0.0760 -0.3261
 2224SOL    HW1 7914   3.189   4.512   6.115  0.4505 -0.5874 -1.6002
 2224SOL    HW2 7915   3.250   4.477   6.249 -0.8028 -1.7598 -1.3291
 2225SOL     OW 7916   6.097   5.752   4.698  0.2429 -0.0394 -0.0186
 2225SOL    HW1 7917   6.125   5.687   4.634  0.4944 -0.0947  0.1457
 2225SOL    HW2 7918   6.131   5.719   4.781 -0.5845 -0.2833  0.2361
 2226SOL     OW 7919   1.597   3.299   6.940  0.0229 -0.5310  0.0133
 2226SOL    HW1 7920   1.516   3.349   6.939  0.2183 -0.2290 -0.5896
 2226SOL    HW2 7921   1.571   3.209   6.919 -0.3122 -0.6784  0.9967
 2227SOL     OW 7922   5.691   0.017   4.273  0.5500  0.4726  0.1676
 2227SOL    HW1 7923   5.668   0.051   4.359 -1.5359 -0.3886 -0.0324
 2227SOL    HW2 7924   5.727  -0.070   4.290  1.4865  0.8688  0.2713
 2228SOL     OW 7925   7.640   5.518   2.832  0.6450  1.3039 -0.0407
 2228SOL    HW1 7926   7.733   5.497   2.844  0.0729 -2.0198 -0.6956
 2228SOL    HW2 7927   7.626   5.507   2.738 -1.1035 -1.7608  0.5037
 2229SOL     OW 7928   6.771   7.111   0.943  0.1527  0.2823  0.2166
 2229SOL    HW1 7929   6.695   7.148   0.988 -0.5734 -1.6269  0.6162
 2229SOL    HW2 7930   6.775   7.158   0.860 -1.6963  0.1756  0.0372
 2230SOL     OW 7931   5.405   1.070   3.190  0.3689 -0.2607 -0.1410
 2230SOL    HW1 7932   5.399   1.125   3.112  3.4086  1.3046  0.6495
 2230SOL    HW2 7933   5.392   1.130   3.264  0.8060 -1.1367  0.6657
 2231SOL     OW 7934   6.977   5.639   3.023 -0.5302  0.0923 -0.2302
 2231SOL    HW1 7935   7.004   5.563   3.074  0.4610  0.3690 -0.3194
 2231SOL    HW2 7936   6.904   5.677   3.072 -0.4808 -0.4323  0.2506
 2232SOL     OW 7937   3.338   2.236   7.137  0.3958  0.0251 -0.2432
 2232SOL    HW1 7938   3.284   2.230   7.216 -0.3396 -1.4817 -0.8457
 2232SOL    HW2 7939   3.312   2.318   7.096  0.4057  0.5585  0.7929
 2233SOL     OW 7940   2.835   4.294   7.112  0.4507  0.1357  0.0730
 2233SOL    HW1 7941   2.813   4.365   7.171 -0.9464 -0.4469  0.2702
 2233SOL    HW2 7942   2.870   4.225   7.168  1.0192  0.3517 -0.0174
 2234SOL     OW 7943   4.082   6.014   5.828 -0.1009  0.0977 -0.0683
 2234SOL    HW1 7944   4.029   6.047   5.755 -0.1616  0.6133  0.2046
 2234SOL    HW2 7945   4.021   5.961   5.880  0.0420 -0.6043 -0.6098
 2235SOL     OW 7946   3.452   1.744   3.091  0.2109  0.4312  0.0657
 2235SOL    HW1 7947   3.370   1.727   3.137 -0.7851  3.6653 -0.4162
 2235SOL    HW2 7948   3.431   1.730   2.999  0.3695  0.6046  0.0034
 2236SOL     OW 7949   0.748   5.052   7.891  0.3971 -0.0186  0.4021
 2236SOL    HW1 7950   0.753   5.025   7.799 -0.7824 -3.0742  1.1647
 2236SOL    HW2 7951   0.724   5.145   7.887 -0.5764 -0.3325 -2.3853
 2237SOL     OW 7952   0.913   5.454   1.451 -0.1484 -0.1800 -0.2641
 2237SOL    HW1 7953   0.887   5.483   1.363  1.2816  0.7285 -0.4073
 2237SOL    HW2 7954   0.924   5.535   1.500 -3.3145 -0.7279  1.5105
 2238SOL     OW 7955   6.627   5.547   4.751  0.1169 -0.2332 -0.2752
 2238SOL    HW1 7956   6.595   5.549   4.841 -0.8999 -1.9082 -0.5615
 2238SOL    HW2 7957   6.603   5.632   4.715 -1.4381 -0.3743  0.3933
 2239SOL     OW 7958   3.962   8.072   7.431  0.9174  0.6167  0.4483
 2239SOL    HW1 7959   4.045   8.117   7.443  1.4258 -0.1652 -0.0780
 2239SOL    HW2 7960   3.961   8.005   7.499  0.0037  1.6327  1.4554
 2240SOL     OW 7961   0.629   3.642   2.585  0.0625 -0.3213  0.2819
 2240SOL    HW1 7962   0.634   3.736   2.564  1.0685 -0.7434 -1.5014
 2240SOL    HW2 7963   0.703   3.626   2.642 -0.7407  0.1738  1.4852
 2241SOL     OW 7964   4.520   5.497   1.089  0.9274 -0.5274  0.0461
 2241SOL    HW1 7965   4.512   5.543   1.173  0.0687  1.1011 -0.8935
 2241SOL    HW2 7966   4.614   5.488   1.076  1.1026  0.5461  0.4890
 2242SOL     OW 7967   0.965   6.242   3.518  0.0661 -0.3135  0.0473
 2242SOL    HW1 7968   0.961   6.222   3.424 -0.0348  0.9622 -0.2191
 2242SOL    HW2 7969   1.052   6.279   3.532 -0.2649  0.3707  0.2918
 2243SOL     OW 7970   7.411   2.883   4.950 -0.4002  0.0741  0.2333
 2243SOL    HW1 7971   7.390   2.915   4.862 -1.0898  0.5013  0.5483
 2243SOL    HW2 7972   7.370   2.946   5.009 -0.8009 -0.7525  0.8567
 2244SOL     OW 7973   8.186   4.346   6.128 -0.0303  0.3939 -0.3554
 2244SOL    HW1 7974   8.134   4.268   6.108  0.9597 -0.4861  0.4190
 2244SOL    HW2 7975   8.254   4.348   6.061  0.4962  0.0621  0.1619
 2245SOL     OW 7976   0.688   4.581   0.383  0.0144 -0.7315  0.0151
 2245SOL    HW1 7977   0.601   4.623   0.380 -0.3811 -1.5519 -0.0754
 2245SOL    HW2 7978   0.710   4.565   0.292 -0.1772 -1.4204  0.0901
 2246SOL     OW 7979   0.931   4.011   7.759 -0.3352 -0.0670  0.1285
 2246SOL    HW1 7980   1.016   4.000   7.716 -0.6512 -0.3050 -0.4463
 2246SOL    HW2 7981   0.904   4.100   7.734  0.0601  0.2727  0.8884
 2247SOL     OW 7982   5.674   1.870   5.943  0.1590 -0.0116  0.5587
 2247SOL    HW1 7983   5.614   1.879   6.017 -0.5798 -1.8151  0.1952
 2247SOL    HW2 7984   5.705   1.780   5.948  1.3773  0.3472 -0.3752
 2248SOL     OW 7985   3.536   6.081   0.078 -0.2351 -0.5353 -0.0395
 2248SOL    HW1 7986   3.444   6.055   0.085 -0.6744  1.1790  0.6417
 2248SOL    HW2 7987   3.567   6.083   0.169 -0.1495  1.1021 -0.0990
 2249SOL     OW 7988   5.197   2.446   1.575 -0.1550  0.2667  0.0480
 2249SOL    HW1 7989   5.183   2.353   1.593 -1.6370  0.5577  0.4548
 2249SOL    HW2 7990   5.290   2.460   1.592  0.1845 -1.2396 -0.4608
 2250SOL     OW 7991   6.342   6.929   6.699 -0.3296  0.3159  0.5814
 2250SOL    HW1 7992   6.333   6.850   6.646 -0.2833 -0.2914  1.4569
 2250SOL    HW2 7993   6.430   6.961   6.681  0.2967 -0.8289  1.5497
 2251SOL     OW 7994   1.442   7.423   0.796  0.2043  0.3533 -0.0099
 2251SOL    HW1 7995   1.428   7.513   0.767 -2.9331  0.1349  0.6505
 2251SOL    HW2 7996   1.464   7.432   0.889 -0.5955  0.4136  0.1750
 2252SOL     OW 7997   1.866   4.677   0.572  0.0762 -0.1543  0.0566
 2252SOL    HW1 7998   1.780   4.718   0.567  0.2937  0.0367 -3.1324
 2252SOL    HW2 7999   1.848   4.584   0.557  0.5165  0.0345 -1.7165
 2253SOL     OW 8000   3.095   3.315   3.182 -0.0461  0.3897 -0.3297
 2253SOL    HW1 8001   3.062   3.234   3.143 -0.8630  1.1522 -1.2165
 2253SOL    HW2 8002   3.026   3.342   3.243  1.1338 -0.6923  1.5357
 2254SOL     OW 8003   1.883   4.581   7.818 -0.1030 -0.0622 -0.9324
 2254SOL    HW1 8004   1.868   4.498   7.864  0.2486  0.3111 -0.1479
 2254SOL    HW2 8005   1.799   4.602   7.778 -1.0589  0.7904  1.4375
 2255SOL     OW 8006   0.558   6.955   8.227 -0.2230  0.3057 -0.1462
 2255SOL    HW1 8007   0.591   6.886   8.285 -0.4474 -0.3344 -0.7728
 2255SOL    HW2 8008   0.630   7.018   8.221  0.8391 -0.9984 -1.3793
 2256SOL     OW 8009   1.243   4.649   5.694  0.0638 -0.0724 -0.3268
 2256SOL    HW1 8010   1.232   4.687   5.781 -0.6316 -1.6459  0.2895
 2256SOL    HW2 8011   1.289   4.567   5.709  0.8282  0.1303 -1.5521
 2257SOL     OW 8012   1.728   0.964   2.212  0.5935  0.0887  0.1824
 2257SOL    HW1 8013   1.779   0.883   2.223 -1.3554 -1.0748  0.8587
 2257SOL    HW2 8014   1.646   0.936   2.171 -0.1877  1.7008  0.5881
 2258SOL     OW 8015   3.763   5.085   2.690 -0.3517  0.0845 -0.2414
 2258SOL    HW1 8016   3.694   5.021   2.706 -0.4363 -0.1325 -1.4057
 2258SOL    HW2 8017   3.717   5.169   2.687 -0.3152  0.1470  0.7408
 2259SOL     OW 8018   0.901   2.162   1.356 -0.1849  0.0389 -0.2899
 2259SOL    HW1 8019   0.966   2.092   1.361  0.4210  0.6734  0.8641
 2259SOL    HW2 8020   0.825   2.129   1.404  0.7846  0.8910  1.8755
 2260SOL     OW 8021   6.918   5.685   8.247  0.2523  0.1505  0.2521
 2260SOL    HW1 8022   6.832   5.694   8.289  0.2828 -1.4032  0.6913
 2260SOL    HW2 8023   6.916   5.747   8.174 -1.4679 -0.3046 -0.1116
 2261SOL     OW 8024   3.938   0.006   0.239 -0.2589 -0.3322  0.0704
 2261SOL    HW1 8025   3.967   0.077   0.182  0.2666 -0.6558 -0.0689
 2261SOL    HW2 8026   3.853  -0.020   0.203 -0.7584  0.6660  0.5238
 2262SOL     OW 8027   2.569   6.360   2.061 -0.3059  0.1375 -0.1295
 2262SOL    HW1 8028   2.612   6.403   2.135  0.0501  1.7774 -1.2582
 2262SOL    HW2 8029   2.551   6.431   1.999 -0.1898 -1.2563 -1.8138
 2263SOL     OW 8030   0.834   5.188   4.092 -0.3283 -0.0448 -0.1718
 2263SOL    HW1 8031   0.782   5.109   4.105 -0.8401  0.4802  0.9941
 2263SOL    HW2 8032   0.803   5.249   4.159  0.5136  0.9197 -0.6436
 2264SOL     OW 8033   3.431   3.754   7.989  0.4782  0.0883 -0.3507
 2264SOL    HW1 8034   3.503   3.769   8.050 -1.6498  2.0547  1.7842
 2264SOL    HW2 8035   3.423   3.659   7.983  1.6372 -0.1271  1.3426
 2265SOL     OW 8036   4.376   5.423   2.914 -0.2398 -0.1407 -0.1057
 2265SOL    HW1 8037   4.362   5.465   2.999  0.2188 -0.9923  0.3919
 2265SOL    HW2 8038   4.389   5.496   2.853 -1.3208  0.4992  0.4127
 2266SOL     OW 8039   2.046   5.523   2.223  0.2938 -0.4282 -0.4292
 2266SOL    HW1 8040   1.995   5.516   2.142 -0.0985 -2.1975 -0.0694
 2266SOL    HW2 8041   2.000   5.589   2.275 -2.0156 -2.3888  0.1111
 2267SOL     OW 8042   1.930   0.082   4.720  0.5245 -0.5029 -0.6146
 2267SOL    HW1 8043   1.837   0.057   4.717 -0.0342  1.2842  0.8970
 2267SOL    HW2 8044   1.973   0.006   4.760 -0.6109 -0.5286  0.6128
 2268SOL     OW 8045   3.846   2.880   0.829  0.0357 -0.6788 -0.3309
 2268SOL    HW1 8046   3.839   2.892   0.734  0.4581  1.4306 -0.1281
 2268SOL    HW2 8047   3.761   2.906   0.863  0.2427 -0.3634 -0.0503
 2269SOL     OW 8048   0.043   3.479   3.410 -0.4266  0.2229  0.4010
 2269SOL    HW1 8049   0.069   3.535   3.483 -0.0818 -2.3903  2.3267
 2269SOL    HW2 8050   0.125   3.444   3.376 -0.8161 -1.1746  0.8861
 2270SOL     OW 8051   2.169   6.882   1.685  0.7279  0.5412  0.3282
 2270SOL    HW1 8052   2.149   6.834   1.605  0.3036  1.1148  0.0858
 2270SOL    HW2 8053   2.116   6.839   1.752 -0.2211  1.1290 -0.0314
 2271SOL     OW 8054   1.440   3.144   0.464 -0.1393 -0.0320 -0.2310
 2271SOL    HW1 8055   1.417   3.125   0.372 -3.7294  5.3113 -0.6618
 2271SOL    HW2 8056   1.523   3.191   0.458 -0.1979  0.0215 -0.6793
 2272SOL     OW 8057   1.129   4.772   5.463 -0.6570  0.2404  0.1127
 2272SOL    HW1 8058   1.139   4.714   5.388 -0.5745 -1.1901  1.2172
 2272SOL    HW2 8059   1.192   4.741   5.527 -0.9048  1.2806  0.8864
 2273SOL     OW 8060   6.382   3.438   2.629 -0.1928  0.1436  0.2528
 2273SOL    HW1 8061   6.396   3.465   2.720 -1.1321 -1.0506  0.7669
 2273SOL    HW2 8062   6.460   3.469   2.583  1.8657 -2.0497  2.1007
 2274SOL     OW 8063   1.325   0.089   2.344  0.6379 -0.2283  0.7489
 2274SOL    HW1 8064   1.420   0.084   2.352  0.6742  1.3999  1.6388
 2274SOL    HW2 8065   1.304   0.180   2.366 -0.9973 -0.1940 -0.8790
 2275SOL     OW 8066   7.881   6.706   6.277  0.1685  0.2462 -0.3270
 2275SOL    HW1 8067   7.917   6.779   6.328  0.1626  1.1064 -1.5526
 2275SOL    HW2 8068   7.941   6.696   6.203 -1.0822  0.4782 -1.3776
 2276SOL     OW 8069   5.572   0.734   6.140  0.4143  0.2453  0.0364
 2276SOL    HW1 8070   5.638   0.666   6.149  1.0293  0.9207  0.7059
 2276SOL    HW2 8071   5.600   0.783   6.062 -1.3710 -1.7180 -1.9048
 2277SOL     OW 8072   6.565   5.392   7.080  0.6255  0.2124  0.1781
 2277SOL    HW1 8073   6.489   5.356   7.125  0.9492 -0.0905  0.4820
 2277SOL    HW2 8074   6.620   5.316   7.061  0.3386  0.2983 -1.0149
 2278SOL     OW 8075   3.022   8.136   4.752 -0.7577  0.2409  0.3971
 2278SOL    HW1 8076   3.042   8.051   4.713  0.2829  0.5799  0.1658
 2278SOL    HW2 8077   2.926   8.140   4.755 -0.8058 -1.5243  1.7390
 2279SOL     OW 8078   7.167   1.746   7.557  0.0631 -0.5956  0.0054
 2279SOL    HW1 8079   7.124   1.691   7.492 -0.1852 -1.6204  1.0104
 2279SOL    HW2 8080   7.112   1.823   7.565 -0.7374 -1.1743  0.1222
 2280SOL     OW 8081   0.928   6.707   1.316  0.4150 -0.2611  0.1687
 2280SOL    HW1 8082   0.910   6.798   1.341 -1.5136 -0.6185  0.1320
 2280SOL    HW2 8083   1.010   6.712   1.266  0.1453  1.5059 -0.1356
 2281SOL     OW 8084   7.630   5.601   3.622  0.3744  0.6232 -0.1176
 2281SOL    HW1 8085   7.541   5.628   3.647  0.0944  0.4622 -0.9184
 2281SOL    HW2 8086   7.617   5.548   3.544  1.1852  0.5985 -0.2326
 2282SOL     OW 8087   7.721   6.697   0.699 -0.0749 -0.0341  0.4747
 2282SOL    HW1 8088   7.765   6.630   0.750  1.3531  0.3532 -0.2028
 2282SOL    HW2 8089   7.792   6.751   0.665 -1.1994  1.9736  1.2119
 2283SOL     OW 8090   3.803   7.942   4.971  0.0850 -0.2769 -0.0848
 2283SOL    HW1 8091   3.793   7.891   4.891 -1.0604 -0.6566  0.2824
 2283SOL    HW2 8092   3.732   8.006   4.968  0.3372  0.0311  0.3906
 2284SOL     OW 8093   8.245   5.701   1.960 -0.1492 -0.3193 -0.4282
 2284SOL    HW1 8094   8.272   5.625   2.012 -2.1916  0.1607  1.3997
 2284SOL    HW2 8095   8.292   5.691   1.877  2.5948 -1.5146  1.2023
 2285SOL     OW 8096   5.021   1.130   5.806  0.4038 -0.4047 -0.1506
 2285SOL    HW1 8097   4.975   1.143   5.890 -1.5708  1.0601 -1.4092
 2285SOL    HW2 8098   5.086   1.200   5.804 -0.7734  0.6986 -0.6265
 2286SOL     OW 8099   1.880   1.073   0.588  1.0445  0.1309  0.1735
 2286SOL    HW1 8100   1.877   1.012   0.515  0.2685 -0.8590  1.0145
 2286SOL    HW2 8101   1.941   1.141   0.560  0.8322 -0.2885 -1.3405
 2287SOL     OW 8102   4.947   8.189   2.810  0.7996 -0.0152 -0.1675
 2287SOL    HW1 8103   4.873   8.243   2.837  0.9060  0.3207 -0.5527
 2287SOL    HW2 8104   5.020   8.221   2.862  1.0252  0.6937 -0.9187
 2288SOL     OW 8105   5.267   3.099   6.102  0.2687 -1.0293 -0.5899
 2288SOL    HW1 8106   5.265   3.063   6.014  0.7380 -1.6437 -0.3529
 2288SOL    HW2 8107   5.339   3.053   6.145 -1.2594 -2.2167  0.7482
 2289SOL     OW 8108   0.511   8.023   7.776  0.7817 -0.4047 -0.0781
 2289SOL    HW1 8109   0.500   8.112   7.743 -1.3900 -1.2281 -1.7586
 2289SOL    HW2 8110   0.494   8.030   7.870  0.4189  0.9212 -0.2310
 2290SOL     OW 8111   7.759   0.126   0.952  0.6345 -0.9279 -0.5175
 2290SOL    HW1 8112   7.689   0.155   1.011 -0.5040 -2.4123 -1.1001
 2290SOL    HW2 8113   7.839   0.155   0.994 -0.2178 -1.1456  1.3077
 2291SOL     OW 8114   4.173   1.833   7.618  0.0860  0.3270 -0.1569
 2291SOL    HW1 8115   4.204   1.743   7.604 -0.5698 -0.0972  1.0121
 2291SOL    HW2 8116   4.215   1.859   7.700  0.2629  1.0789 -0.4920
 2292SOL     OW 8117   3.574   4.986   5.269  0.0222  0.0202  0.0110
 2292SOL    HW1 8118   3.562   4.918   5.334 -0.8665  1.6551  1.6120
 2292SOL    HW2 8119   3.506   4.969   5.203  0.3343 -1.1023 -0.0258
 2293SOL     OW 8120   4.259   5.055   3.731  0.1558 -0.5489 -0.0193
 2293SOL    HW1 8121   4.294   5.136   3.770 -0.2720 -0.0524 -0.6678
 2293SOL    HW2 8122   4.220   5.009   3.805  0.2326 -0.0764  0.3245
 2294SOL     OW 8123   0.616   2.400   6.928 -0.6049  0.3011  0.2063
 2294SOL    HW1 8124   0.621   2.491   6.957  0.3212  1.1535 -2.4834
 2294SOL    HW2 8125   0.679   2.353   6.983 -0.2797  1.4853  0.8562
 2295SOL     OW 8126   8.120   3.934   3.707  0.3509  0.1315 -0.4269
 2295SOL    HW1 8127   8.152   3.910   3.620  0.7104 -2.8265  0.4866
 2295SOL    HW2 8128   8.198   3.946   3.760  0.1051  0.4819 -0.1404
 2296SOL     OW 8129   5.131   6.557   3.185  0.3329 -0.0361 -0.3539
 2296SOL    HW1 8130   5.207   6.602   3.147  1.3940 -0.8001  0.8263
 2296SOL    HW2 8131   5.067   6.555   3.114  1.9245 -0.5961 -1.8059
 2297SOL     OW 8132   4.303   2.863   3.509 -0.8153 -0.3079 -0.0296
 2297SOL    HW1 8133   4.348   2.946   3.522 -2.0033  0.0249  2.3011
 2297SOL    HW2 8134   4.373   2.798   3.505  0.0869  0.7058 -1.1450
 2298SOL     OW 8135   7.904   3.313   3.756 -0.0744  0.4413  0.2302
 2298SOL    HW1 8136   7.987   3.284   3.717  0.1232  1.0538  0.1952
 2298SOL    HW2 8137   7.837   3.266   3.706  0.2852 -0.8878  0.9638
 2299SOL     OW 8138   7.537   2.934   7.099  0.3395 -1.1444  0.1959
 2299SOL    HW1 8139   7.490   3.015   7.080 -0.6657 -0.6818  4.2268
 2299SOL    HW2 8140   7.474   2.865   7.077 -0.0361 -0.7146 -0.1041
 2300SOL     OW 8141   3.172   1.960   3.077  0.1959 -0.6311  0.1516
 2300SOL    HW1 8142   3.105   1.910   3.030 -0.6595  0.0826  0.5935
 2300SOL    HW2 8143   3.122   2.015   3.137  1.2530 -1.1587  1.5243
 2301SOL     OW 8144   3.587   4.177   2.724  0.0946 -0.1560  0.4443
 2301SOL    HW1 8145   3.626   4.152   2.808  0.8358  1.3917  0.5914
 2301SOL    HW2 8146   3.656   4.226   2.680  0.4020 -2.5836 -1.9219
 2302SOL     OW 8147   2.188   3.172   1.913 -0.7821 -0.4110  0.6025
 2302SOL    HW1 8148   2.277   3.188   1.882 -0.6661 -0.1285  1.0748
 2302SOL    HW2 8149   2.157   3.098   1.860 -0.1904 -0.6477  0.5803
 2303SOL     OW 8150   6.673   0.937   5.429 -0.1447  0.0192 -0.2151
 2303SOL    HW1 8151   6.735   0.888   5.375  0.9453  0.7863  0.3268
 2303SOL    HW2 8152   6.726   0.971   5.501 -1.1041  1.1031 -0.0105
 2304SOL     OW 8153   5.385   6.309   0.034  0.1835  0.5339 -0.2688
 2304SOL    HW1 8154   5.384   6.315   0.130 -0.5770 -0.1682 -0.2262
 2304SOL    HW2 8155   5.414   6.219   0.016 -3.7345 -0.7667 -0.6090
 2305SOL     OW 8156   0.720   3.239   3.709 -0.3905 -0.0387  0.5087
 2305SOL    HW1 8157   0.736   3.170   3.645  0.6179  0.1944  0.4914
 2305SOL    HW2 8158   0.772   3.313   3.677  0.5316 -0.0841  1.8727
 2306SOL     OW 8159   5.095   8.061   6.185  0.3598  0.1754 -1.1038
 2306SOL    HW1 8160   5.137   7.996   6.129  0.6920 -1.8440  1.4115
 2306SOL    HW2 8161   5.141   8.143   6.164  2.3466 -1.0799 -1.8342
 2307SOL     OW 8162   6.041   6.424   1.935 -0.1639  0.4174  0.1637
 2307SOL    HW1 8163   6.126   6.445   1.975 -0.0707 -1.1094  0.7978
 2307SOL    HW2 8164   6.007   6.508   1.906  0.4291  1.3704  2.1526
 2308SOL     OW 8165   0.500   0.998   2.521 -0.0126  0.3503 -0.0026
 2308SOL    HW1 8166   0.468   0.991   2.611  1.5238 -2.4733  0.3817
 2308SOL    HW2 8167   0.539   1.085   2.516 -0.3171  0.6239  2.0171
 2309SOL     OW 8168   4.582   7.645   1.463 -0.3797  0.1198  0.5031
 2309SOL    HW1 8169   4.593   7.644   1.368 -1.3087  0.7156  0.3863
 2309SOL    HW2 8170   4.503   7.593   1.478 -1.8085  2.3222  0.7327
 2310SOL     OW 8171   7.373   5.612   4.754  0.5877  0.0113 -0.2605
 2310SOL    HW1 8172   7.439   5.602   4.685 -0.5193 -1.5578 -1.1270
 2310SOL    HW2 8173   7.405   5.557   4.826 -0.5460 -2.0883 -1.3015
 2311SOL     OW 8174   6.335   2.328   4.564 -0.4283  0.4390 -0.4586
 2311SOL    HW1 8175   6.335   2.390   4.637  1.3781 -0.2817  0.1935
 2311SOL    HW2 8176   6.281   2.255   4.594  0.7090 -0.0755  0.3738
 2312SOL     OW 8177   5.037   1.076   8.296  0.3952 -0.6455  0.2194
 2312SOL    HW1 8178   5.109   1.018   8.320  0.5699 -0.1228  0.9988
 2312SOL    HW2 8179   4.961   1.041   8.343  0.6312  0.0887  1.1892
 2313SOL     OW 8180   2.762   1.020   1.072  0.2131 -0.1001  0.4230
 2313SOL    HW1 8181   2.787   1.092   1.130  1.7048 -0.7283  0.5768
 2313SOL    HW2 8182   2.766   0.942   1.127 -3.0564 -0.1420  0.7114
 2314SOL     OW 8183   6.415   0.953   5.543  0.5657  0.1256 -0.3094
 2314SOL    HW1 8184   6.491   0.971   5.489  1.0396 -0.4542  0.1562
 2314SOL    HW2 8185   6.443   0.973   5.632  0.5617 -1.2163  0.0103
 2315SOL     OW 8186   5.570   4.659   7.848 -0.5224  0.1110  0.3332
 2315SOL    HW1 8187   5.476   4.644   7.846 -0.6391  0.5338  2.0063
 2315SOL    HW2 8188   5.592   4.688   7.759 -2.3689  2.4635  0.5931
 2316SOL     OW 8189   4.771   0.890   3.746  0.6199  0.1784 -0.4540
 2316SOL    HW1 8190   4.750   0.797   3.745  0.0702  0.3000 -0.1914
 2316SOL    HW2 8191   4.845   0.898   3.685 -1.3730  0.0443 -2.9857
 2317SOL     OW 8192   2.838   1.952   1.511 -0.0864  0.0460 -0.3948
 2317SOL    HW1 8193   2.933   1.937   1.507 -0.1750 -1.2340  1.5302
 2317SOL    HW2 8194   2.808   1.896   1.582 -2.1045  1.4118 -0.1250
 2318SOL     OW 8195   6.952   4.108   4.842 -0.2740 -0.1218  0.2732
 2318SOL    HW1 8196   6.973   4.161   4.919  1.8923  0.5314 -0.7183
 2318SOL    HW2 8197   6.932   4.021   4.877  1.4632 -0.0327  1.5317
 2319SOL     OW 8198   6.312   2.735   2.702 -0.1117  0.4564 -0.0925
 2319SOL    HW1 8199   6.376   2.721   2.772  0.8419  2.6478 -0.4865
 2319SOL    HW2 8200   6.360   2.718   2.621 -0.5469  0.2801 -0.3153
 2320SOL     OW 8201   3.717   1.489   0.537  0.3163  0.0540  0.2671
 2320SOL    HW1 8202   3.630   1.463   0.566 -0.6292  2.1368 -0.6031
 2320SOL    HW2 8203   3.764   1.511   0.617 -0.6698  1.0042  0.5920
 2321SOL     OW 8204   0.649   0.784   7.425 -0.2700  0.4953  0.1730
 2321SOL    HW1 8205   0.666   0.799   7.518  0.9366 -0.5615  0.1221
 2321SOL    HW2 8206   0.652   0.872   7.387  2.5292  0.6422  0.5958
 2322SOL     OW 8207   7.341   7.661   4.791 -0.0347  0.3395 -0.6114
 2322SOL    HW1 8208   7.386   7.732   4.836  0.4891 -0.3573 -0.0245
 2322SOL    HW2 8209   7.403   7.588   4.792 -1.0658 -0.5541  0.0050
 2323SOL     OW 8210   2.366   6.130   0.844 -0.6326  0.4866  0.3598
 2323SOL    HW1 8211   2.287   6.083   0.870 -0.6058  1.2510  1.8495
 2323SOL    HW2 8212   2.335   6.195   0.780 -1.0038 -0.1130 -0.0670
 2324SOL     OW 8213   0.329   1.513   4.361  0.4680 -0.4444  0.3719
 2324SOL    HW1 8214   0.376   1.480   4.285  1.0622  0.4845  0.3235
 2324SOL    HW2 8215   0.252   1.456   4.369  1.2961 -1.6201  0.1100
 2325SOL     OW 8216   4.387   2.212   3.620  0.3691  0.1765 -0.3265
 2325SOL    HW1 8217   4.399   2.117   3.619 -1.6966 -0.0936 -1.0045
 2325SOL    HW2 8218   4.318   2.227   3.685 -0.0001  1.1204 -0.9261
 2326SOL     OW 8219   7.935   1.023   0.587 -0.2034  0.1476 -0.0169
 2326SOL    HW1 8220   7.968   0.953   0.644 -1.0350 -1.7304 -1.7804
 2326SOL    HW2 8221   8.003   1.091   0.590  2.3255 -2.2444 -1.0269
 2327SOL     OW 8222   6.150   7.806   6.026  0.4266 -0.5772 -0.1575
 2327SOL    HW1 8223   6.122   7.718   5.999  1.2431 -0.3287 -1.8285
 2327SOL    HW2 8224   6.173   7.850   5.945 -0.0551  1.2234  0.6747
 2328SOL     OW 8225   6.190   3.868   7.162 -0.3948 -0.5035  0.3069
 2328SOL    HW1 8226   6.128   3.864   7.234 -0.3956 -0.0803  0.3300
 2328SOL    HW2 8227   6.241   3.947   7.178 -0.3061 -0.4785 -0.0824
 2329SOL     OW 8228   1.035   1.875   7.373 -0.3795 -0.4280  0.1561
 2329SOL    HW1 8229   1.100   1.918   7.318 -0.6329  0.0139  0.2009
 2329SOL    HW2 8230   1.038   1.923   7.455 -0.0478 -1.0471  0.5113
 2330SOL     OW 8231   7.873   5.809   1.330 -0.5402 -0.1908 -0.2823
 2330SOL    HW1 8232   7.883   5.729   1.381 -0.1429  0.3205  0.4408
 2330SOL    HW2 8233   7.829   5.871   1.389  1.1141  0.8354 -0.0911
 2331SOL     OW 8234   0.697   2.147   2.696 -0.2073  0.0735  0.0341
 2331SOL    HW1 8235   0.775   2.201   2.689  0.2710 -0.6802 -0.5396
 2331SOL    HW2 8236   0.628   2.199   2.655  0.2104  0.3207 -0.3581
 2332SOL     OW 8237   6.200   6.278   6.366  0.0756 -0.3526  0.3631
 2332SOL    HW1 8238   6.105   6.287   6.362  0.0333  0.7571  2.8003
 2332SOL    HW2 8239   6.215   6.184   6.379 -0.7136 -0.4451  0.6274
 2333SOL     OW 8240   0.935   8.229   1.893 -0.4613 -0.1915 -0.4708
 2333SOL    HW1 8241   1.025   8.199   1.905 -0.5904 -1.5501 -2.6135
 2333SOL    HW2 8242   0.942   8.296   1.824 -1.0856 -0.2724 -0.6107
 2334SOL     OW 8243   1.382   1.722   4.197  0.5344 -0.1509  0.5700
 2334SOL    HW1 8244   1.289   1.730   4.219  0.6474  1.2056  0.6144
 2334SOL    HW2 8245   1.420   1.671   4.269  0.0096  0.1804  1.0804
 2335SOL     OW 8246   2.490   4.379   5.800  0.5096 -1.0046  0.2422
 2335SOL    HW1 8247   2.427   4.426   5.745  1.6340 -1.2329 -1.2780
 2335SOL    HW2 8248   2.436   4.321   5.854 -0.7154  0.1854  0.3389
 2336SOL     OW 8249   0.704   1.477   2.307  0.2579  0.3381 -0.1236
 2336SOL    HW1 8250   0.623   1.460   2.356 -0.7041  1.0021 -1.4630
 2336SOL    HW2 8251   0.721   1.396   2.260  0.0288  0.4090 -0.3279
 2337SOL     OW 8252   5.343   4.905   4.991  0.0141 -0.3375 -0.0969
 2337SOL    HW1 8253   5.329   4.999   4.995  0.8934 -0.1070 -2.1986
 2337SOL    HW2 8254   5.288   4.874   4.920  1.5334 -1.0413 -1.0090
 2338SOL     OW 8255   2.833   2.074   1.166 -0.0029 -0.4469 -0.4826
 2338SOL    HW1 8256   2.877   2.144   1.118  0.4645 -1.0391 -0.9313
 2338SOL    HW2 8257   2.898   2.045   1.231  0.1313 -1.0589 -0.8851
 2339SOL     OW 8258   1.583   3.482   2.540 -0.2125 -0.2758 -0.5346
 2339SOL    HW1 8259   1.523   3.431   2.486 -0.7236 -1.3430  1.0019
 2339SOL    HW2 8260   1.536   3.564   2.557 -0.7563 -0.6325 -0.3024
 2340SOL     OW 8261   7.723   0.410   6.971 -0.5510  0.0285 -0.2399
 2340SOL    HW1 8262   7.775   0.487   6.949 -0.2661  0.7929  2.8223
 2340SOL    HW2 8263   7.641   0.421   6.923  0.5132  0.8807 -1.8840
 2341SOL     OW 8264   1.715   4.596   3.368  0.4543  0.4549 -0.7429
 2341SOL    HW1 8265   1.733   4.515   3.322 -0.5555  0.4860 -1.2188
 2341SOL    HW2 8266   1.782   4.602   3.436 -0.5744 -1.7325  0.5174
 2342SOL     OW 8267   3.761   3.676   4.141 -0.3688 -0.5647 -0.4198
 2342SOL    HW1 8268   3.825   3.675   4.212  0.0497  0.3557 -0.7818
 2342SOL    HW2 8269   3.692   3.735   4.172 -0.2002 -0.1857 -0.7675
 2343SOL     OW 8270   7.498   3.564   5.790  0.0256  0.0104 -0.2050
 2343SOL    HW1 8271   7.582   3.604   5.813 -1.4338  2.1814  1.4981
 2343SOL    HW2 8272   7.440   3.585   5.863 -1.7347 -2.4261 -0.8090
 2344SOL     OW 8273   7.907   5.585   1.518 -0.2350 -0.6437 -0.3632
 2344SOL    HW1 8274   7.825   5.536   1.516 -0.7573  0.2154 -0.6236
 2344SOL    HW2 8275   7.932   5.586   1.610 -1.5177  0.6692  0.0110
 2345SOL     OW 8276   7.770   5.842   5.758 -0.2159 -0.2288  0.2876
 2345SOL    HW1 8277   7.836   5.846   5.827 -0.1441  0.9120  0.1572
 2345SOL    HW2 8278   7.702   5.903   5.786 -0.3662 -0.0443 -0.4728
 2346SOL     OW 8279   4.758   7.988   2.732 -0.4291 -0.3958 -0.0304
 2346SOL    HW1 8280   4.803   8.067   2.761 -0.0673 -0.3225 -0.7853
 2346SOL    HW2 8281   4.768   7.927   2.806 -0.4463  0.1542  0.4292
 2347SOL     OW 8282   3.421   3.714   1.577  0.3903 -0.0550  0.1364
 2347SOL    HW1 8283   3.355   3.770   1.617  1.9208  1.1138  1.0651
 2347SOL    HW2 8284   3.448   3.761   1.499  0.4805 -0.3033  0.0183
 2348SOL     OW 8285   7.240   6.152   5.741 -0.1065  0.0557 -0.2594
 2348SOL    HW1 8286   7.278   6.209   5.807 -0.9752  1.1715 -0.7102
 2348SOL    HW2 8287   7.316   6.108   5.702  0.4823  0.0639  0.8450
 2349SOL     OW 8288   1.561   0.428   5.782 -0.3693 -0.6219 -0.4317
 2349SOL    HW1 8289   1.556   0.521   5.804 -1.7077 -0.2973 -1.9726
 2349SOL    HW2 8290   1.628   0.423   5.714 -0.1283 -0.8313 -0.1821
 2350SOL     OW 8291   6.548   1.125   6.249  0.0027  0.0541  0.1527
 2350SOL    HW1 8292   6.527   1.135   6.342  1.5475  2.3828  0.2806
 2350SOL    HW2 8293   6.619   1.061   6.248  1.1105  1.2699  0.7156
 2351SOL     OW 8294   7.675   5.973   3.229  0.4607 -0.0277 -0.0598
 2351SOL    HW1 8295   7.730   5.956   3.305  0.2228  0.1532  0.1535
 2351SOL    HW2 8296   7.617   6.044   3.256  0.7723  0.4342 -0.6094
 2352SOL     OW 8297   4.078   5.112   6.549  0.0287 -0.3074  0.6190
 2352SOL    HW1 8298   4.060   5.018   6.557  0.3294 -0.3547  0.7780
 2352SOL    HW2 8299   3.997   5.150   6.515 -0.2930 -0.5332  1.1289
 2353SOL     OW 8300   4.424   5.755   1.466 -0.1977  0.3567 -0.3343
 2353SOL    HW1 8301   4.391   5.844   1.457 -0.3293  0.2308 -1.1824
 2353SOL    HW2 8302   4.396   5.727   1.553  0.2633  1.3108  0.1225
 2354SOL     OW 8303   4.555   0.007   3.038  0.2871 -0.9143  0.6789
 2354SOL    HW1 8304   4.635  -0.042   3.016  0.7393 -0.3251  0.9779
 2354SOL    HW2 8305   4.544  -0.005   3.132  0.7948  0.1149  0.8822
 2355SOL     OW 8306   4.244   5.043   4.085 -0.0752 -0.3234 -0.2568
 2355SOL    HW1 8307   4.192   5.006   4.157 -0.1728 -0.6718 -0.5067
 2355SOL    HW2 8308   4.334   5.042   4.118 -0.4218  1.9754  0.8996
 2356SOL     OW 8309   3.905   6.664   2.109 -0.2836 -0.0134  0.0596
 2356SOL    HW1 8310   3.826   6.626   2.148  0.6341 -0.9336  1.0355
 2356SOL    HW2 8311   3.947   6.712   2.181  0.6719 -0.5182 -0.1603
 2357SOL     OW 8312   0.356   7.483   4.645 -0.3031 -0.0246  0.5200
 2357SOL    HW1 8313   0.282   7.533   4.679  0.8418  1.6405  0.6080
 2357SOL    HW2 8314   0.383   7.530   4.566 -1.1293 -2.2492 -1.1467
 2358SOL     OW 8315   6.904   6.367   4.304  0.9889  0.2017  0.9013
 2358SOL    HW1 8316   6.933   6.347   4.215  0.1059  1.1923  0.3809
 2358SOL    HW2 8317   6.982   6.355   4.358  1.8478  0.7945 -0.1847
 2359SOL     OW 8318   6.330   6.578   1.019 -0.1316 -0.0674 -0.4336
 2359SOL    HW1 8319   6.247   6.555   1.060  0.5593 -1.5692  0.1522
 2359SOL    HW2 8320   6.376   6.631   1.084  1.0725 -2.6589  0.8957
 2360SOL     OW 8321   2.377   6.584   2.140 -0.3749 -0.4117 -0.1204
 2360SOL    HW1 8322   2.449   6.580   2.077 -1.5385  1.3265 -1.5997
 2360SOL    HW2 8323   2.365   6.677   2.157 -0.5473 -0.8188  2.1541
 2361SOL     OW 8324   1.671   2.817   3.742 -0.2334 -0.8730  0.2361
 2361SOL    HW1 8325   1.742   2.764   3.779  0.8534 -0.2924 -1.0316
 2361SOL    HW2 8326   1.702   2.907   3.748 -0.8689 -0.6161 -0.3201
 2362SOL     OW 8327   8.128   4.534   4.532  0.0448  0.8217 -0.1624
 2362SOL    HW1 8328   8.122   4.558   4.625  1.3681  1.1317 -0.1468
 2362SOL    HW2 8329   8.083   4.449   4.527 -1.5454  1.5945  0.4281
 2363SOL     OW 8330   0.325   4.782   7.488  0.2072  0.3041 -0.2494
 2363SOL    HW1 8331   0.240   4.806   7.452 -0.8819 -1.4575  1.0677
 2363SOL    HW2 8332   0.344   4.697   7.448  1.3712  0.7101 -0.5729
 2364SOL     OW 8333   4.230   0.131   7.703  0.5356 -0.2264  0.0666
 2364SOL    HW1 8334   4.241   0.223   7.681 -0.0007  0.0990  1.1304
 2364SOL    HW2 8335   4.190   0.132   7.790  0.9279 -1.4655  0.2632
 2365SOL     OW 8336   5.665   3.752   7.988 -0.0974 -0.5539 -0.0630
 2365SOL    HW1 8337   5.611   3.743   7.910  0.1973  1.7742 -0.5779
 2365SOL    HW2 8338   5.603   3.750   8.061 -0.6045 -0.5551 -0.4891
 2366SOL     OW 8339   7.882   6.254   4.331 -0.5023 -0.7754  0.2788
 2366SOL    HW1 8340   7.973   6.225   4.331 -0.4095 -0.4861  0.8210
 2366SOL    HW2 8341   7.881   6.324   4.265 -0.7382 -2.0166 -1.0515
 2367SOL     OW 8342   4.310   4.229   5.184 -0.7382 -0.0925  0.0077
 2367SOL    HW1 8343   4.305   4.220   5.089 -2.4972  0.4257  0.0421
 2367SOL    HW2 8344   4.291   4.321   5.201 -1.2978 -0.3662  0.9158
 2368SOL     OW 8345   5.793   3.441   0.062  1.0493  0.2098 -0.2201
 2368SOL    HW1 8346   5.789   3.466   0.154  0.3887 -2.3556  0.4881
 2368SOL    HW2 8347   5.728   3.497   0.019  1.2705  1.3337  0.8643
 2369SOL     OW 8348   0.969   4.204   6.436  0.2265  0.5798  0.5834
 2369SOL    HW1 8349   1.008   4.290   6.423 -3.0507  1.8221 -1.6903
 2369SOL    HW2 8350   0.977   4.161   6.351 -0.7823 -0.1972  0.8792
 2370SOL     OW 8351   0.534   0.304   4.259 -0.5908  0.0150 -0.4612
 2370SOL    HW1 8352   0.585   0.244   4.314  0.7107  0.3749 -1.2394
 2370SOL    HW2 8353   0.446   0.303   4.297 -0.4814 -2.0589 -0.2193
 2371SOL     OW 8354   1.358   1.676   3.741  0.0445  0.2180  0.2056
 2371SOL    HW1 8355   1.299   1.661   3.814  2.1370 -0.6831  1.7679
 2371SOL    HW2 8356   1.440   1.705   3.782  0.5487  1.8882 -1.9232
 2372SOL     OW 8357   7.414   3.232   8.099  0.4226 -0.6884 -0.1709
 2372SOL    HW1 8358   7.466   3.194   8.029  0.1740 -0.2970 -0.5713
 2372SOL    HW2 8359   7.324   3.204   8.081 -0.2389  2.3441 -2.0866
 2373SOL     OW 8360   3.450   1.596   8.300 -0.2708  0.1270  0.1691
 2373SOL    HW1 8361   3.383   1.532   8.278 -1.0115  1.3512 -1.2670
 2373SOL    HW2 8362   3.483   1.626   8.215 -0.3848  2.0674  0.7891
 2374SOL     OW 8363   2.526   4.204   6.946  0.1526 -0.3661  0.2887
 2374SOL    HW1 8364   2.608   4.239   6.909 -0.4168  1.3462  0.5764
 2374SOL    HW2 8365   2.468   4.280   6.952 -0.8747 -1.2239  1.7015
 2375SOL     OW 8366   8.071   0.198   6.409  0.0489  0.0382  0.2748
 2375SOL    HW1 8367   8.098   0.118   6.363  1.3038  0.8849 -0.4906
 2375SOL    HW2 8368   8.009   0.240   6.349  1.3579  0.9244 -0.4932
 2376SOL     OW 8369   3.787   6.871   5.150 -0.3118  0.0333 -0.0728
 2376SOL    HW1 8370   3.781   6.961   5.183  0.0567 -0.6928  2.0645
 2376SOL    HW2 8371   3.800   6.818   5.228  2.5849 -1.5898 -1.5666
 2377SOL     OW 8372   6.531   1.412   5.318 -0.1050  0.2065 -0.5361
 2377SOL    HW1 8373   6.568   1.356   5.250 -0.9141 -0.5592 -0.3690
 2377SOL    HW2 8374   6.448   1.370   5.340 -0.8829  1.6512 -0.6260
 2378SOL     OW 8375   6.046   5.631   7.622  0.3419 -0.2980 -0.2376
 2378SOL    HW1 8376   6.139   5.637   7.643  0.2993  0.0845 -0.1510
 2378SOL    HW2 8377   6.035   5.544   7.583  0.9698  0.1226 -1.3892
 2379SOL     OW 8378   4.549   3.974   8.301 -0.5190  0.2323 -0.4279
 2379SOL    HW1 8379   4.485   4.019   8.355 -0.0356 -0.9798  1.2030
 2379SOL    HW2 8380   4.620   3.950   8.362 -0.3182 -1.8338 -1.4163
 2380SOL     OW 8381   1.118   7.120   5.339 -0.2631 -0.1760  0.7626
 2380SOL    HW1 8382   1.065   7.189   5.298 -2.6854 -2.4354  0.0014
 2380SOL    HW2 8383   1.120   7.144   5.431 -0.2567  1.4293  0.3706
 2381SOL     OW 8384   2.393   2.072   7.167 -0.2352 -0.5079  0.0191
 2381SOL    HW1 8385   2.364   2.057   7.257  1.9689 -2.2319  0.5002
 2381SOL    HW2 8386   2.397   1.984   7.129  2.7309 -0.2146 -0.4820
 2382SOL     OW 8387   2.431   5.926   0.379 -0.1410 -0.2916  0.2477
 2382SOL    HW1 8388   2.481   5.855   0.418  1.8245  0.9529  0.1106
 2382SOL    HW2 8389   2.340   5.900   0.387  0.6015 -3.3990 -0.9666
 2383SOL     OW 8390   1.911   5.820   3.725  0.1078  0.9480 -0.0487
 2383SOL    HW1 8391   1.877   5.810   3.814  1.0664 -0.6143  0.1512
 2383SOL    HW2 8392   1.832   5.826   3.670 -0.5568 -2.7485  0.3947
 2384SOL     OW 8393   1.347   7.308   2.515  0.1778  0.0278 -0.4987
 2384SOL    HW1 8394   1.375   7.399   2.514  0.2814  0.0063 -2.5331
 2384SOL    HW2 8395   1.427   7.259   2.535  0.2409  0.3621  0.0514
 2385SOL     OW 8396   4.868   5.160   0.479  0.3993 -0.0398  0.1911
 2385SOL    HW1 8397   4.870   5.123   0.568  1.3527  0.4324  0.3707
 2385SOL    HW2 8398   4.941   5.223   0.477  1.5242 -1.3479 -1.4896
 2386SOL     OW 8399   4.881   6.324   0.478  0.6179  0.3719  0.2425
 2386SOL    HW1 8400   4.916   6.329   0.389  2.5755  0.6145  1.0176
 2386SOL    HW2 8401   4.957   6.306   0.533 -0.2644  2.1662  2.1155
 2387SOL     OW 8402   1.828   6.132   8.080 -0.3018 -0.1126  0.5383
 2387SOL    HW1 8403   1.757   6.190   8.050  1.0337  1.4267  0.2582
 2387SOL    HW2 8404   1.884   6.189   8.133  0.4250 -1.4485  1.2258
 2388SOL     OW 8405   6.503   7.798   5.894  0.0254 -0.0291 -0.5620
 2388SOL    HW1 8406   6.514   7.791   5.989 -1.0077  1.8104 -0.2814
 2388SOL    HW2 8407   6.471   7.712   5.867 -1.6203  0.0319  1.0614
 2389SOL     OW 8408   7.544   5.066   1.987 -0.6637 -0.2744  0.3076
 2389SOL    HW1 8409   7.572   4.979   1.959 -2.4910 -0.6570 -0.4344
 2389SOL    HW2 8410   7.508   5.053   2.075  0.8393  0.0993  0.9950
 2390SOL     OW 8411   1.964   3.639   2.466 -0.4984  0.0046 -0.5586
 2390SOL    HW1 8412   1.944   3.731   2.485 -0.9789  0.2405 -2.1235
 2390SOL    HW2 8413   1.899   3.614   2.401 -0.4414 -1.4964 -0.0401
 2391SOL     OW 8414   1.824   7.656   2.653  0.9207  0.3611 -0.0074
 2391SOL    HW1 8415   1.766   7.727   2.679 -0.5199 -1.4345  1.8014
 2391SOL    HW2 8416   1.770   7.599   2.597  1.3515 -0.5818  0.5327
 2392SOL     OW 8417   2.260   0.534   0.608  0.1216  0.1926 -0.0995
 2392SOL    HW1 8418   2.270   0.576   0.694  0.0455  0.0781 -0.0342
 2392SOL    HW2 8419   2.344   0.491   0.592  0.4842  1.0727 -0.5453
 2393SOL     OW 8420   4.171   8.010   3.051  0.6242  0.1889  0.0093
 2393SOL    HW1 8421   4.076   7.995   3.060  0.9543 -1.2053  1.3482
 2393SOL    HW2 8422   4.177   8.082   2.988 -1.2667 -0.9496 -1.5618
 2394SOL     OW 8423   6.255   5.522   6.162 -0.1627 -0.7379  0.0939
 2394SOL    HW1 8424   6.241   5.472   6.082  1.1840 -0.4564 -0.3314
 2394SOL    HW2 8425   6.219   5.467   6.232  1.2052 -2.2747 -0.3789
 2395SOL     OW 8426   0.302   3.322   2.164  0.0675  0.4939 -0.3103
 2395SOL    HW1 8427   0.219   3.324   2.212 -0.7837  0.6644 -1.7493
 2395SOL    HW2 8428   0.278   3.345   2.074  1.8695  1.7624 -0.4847
 2396SOL     OW 8429   0.444   4.137   6.731 -0.4336 -0.0303  0.0272
 2396SOL    HW1 8430   0.525   4.114   6.686 -0.6299 -0.7082  0.0122
 2396SOL    HW2 8431   0.386   4.167   6.662 -0.0909  0.7578  0.0788
 2397SOL     OW 8432   1.967   2.054   2.550  0.1967 -0.3749  0.3133
 2397SOL    HW1 8433   1.889   2.088   2.593 -1.9689 -3.1516 -1.2650
 2397SOL    HW2 8434   1.949   2.064   2.457  1.5264 -1.4382 -0.0773
 2398SOL     OW 8435   6.721   1.057   0.901  0.1624  0.3105 -0.4355
 2398SOL    HW1 8436   6.701   1.029   0.812  0.5841 -2.3685  0.2753
 2398SOL    HW2 8437   6.657   1.012   0.955  0.5887  1.0831  0.7296
 2399SOL     OW 8438   0.959   6.133   7.349 -0.2918 -0.5931 -0.1086
 2399SOL    HW1 8439   0.914   6.145   7.265 -1.7794 -0.0893  0.7379
 2399SOL    HW2 8440   0.923   6.052   7.384 -0.7371 -0.0548  0.6923
 2400SOL     OW 8441   4.208   0.409   8.271  0.0641  0.2460  0.4803
 2400SOL    HW1 8442   4.229   0.461   8.193 -0.1961 -1.9559 -1.0950
 2400SOL    HW2 8443   4.140   0.459   8.315 -0.3501  1.1326 -1.1324
 2401SOL     OW 8444   0.128   6.128   0.738  0.0996 -0.1273 -0.1951
 2401SOL    HW1 8445   0.098   6.042   0.767  0.6238  0.2834  1.6474
 2401SOL    HW2 8446   0.204   6.146   0.792  2.3875 -0.1791 -3.2836
 2402SOL     OW 8447   5.813   6.702   5.796  0.0016 -0.3005  0.4943
 2402SOL    HW1 8448   5.719   6.693   5.780  0.3744 -1.0592 -1.3693
 2402SOL    HW2 8449   5.819   6.752   5.878 -2.0146 -0.3961  0.7170
 2403SOL     OW 8450   0.193   5.781   5.545  0.2014  0.1681  0.0969
 2403SOL    HW1 8451   0.151   5.741   5.621  1.1127  0.4201  0.7411
 2403SOL    HW2 8452   0.159   5.732   5.470  0.2250 -0.8839  0.7597
 2404SOL     OW 8453   7.345   4.457   4.107 -0.5560 -0.0734 -0.1812
 2404SOL    HW1 8454   7.285   4.384   4.118 -0.3050 -0.1724  0.5330
 2404SOL    HW2 8455   7.317   4.499   4.025  0.1207 -1.7367 -1.2894
 2405SOL     OW 8456   0.765   1.638   3.226 -0.3379 -0.0408 -0.2448
 2405SOL    HW1 8457   0.749   1.584   3.303 -1.6432  2.7556  1.5279
 2405SOL    HW2 8458   0.860   1.641   3.218 -0.2172 -1.3401  0.5116
 2406SOL     OW 8459   5.969   1.922   6.253 -0.2864  0.0703  0.2228
 2406SOL    HW1 8460   6.056   1.926   6.292 -0.4218  1.3634  0.3952
 2406SOL    HW2 8461   5.985   1.918   6.159 -0.0393 -0.0136  0.2684
 2407SOL     OW 8462   3.017   3.435   6.184  0.2426  0.2123  0.2876
 2407SOL    HW1 8463   2.929   3.417   6.216 -0.0088 -0.1030 -0.5789
 2407SOL    HW2 8464   3.017   3.528   6.163 -0.6525 -0.3024 -2.0934
 2408SOL     OW 8465   6.048   3.071   5.551 -0.0724 -0.3124  0.0150
 2408SOL    HW1 8466   6.005   3.149   5.585 -1.3680 -1.0895  0.2004
 2408SOL    HW2 8467   6.107   3.103   5.483 -1.3729  0.7181 -0.6422
 2409SOL     OW 8468   3.173   0.074   6.278  0.2790 -0.2148  0.1700
 2409SOL    HW1 8469   3.264   0.097   6.261 -0.2288  1.0129 -0.9552
 2409SOL    HW2 8470   3.122   0.145   6.240 -1.0785  0.3878  2.9262
 2410SOL     OW 8471   5.710   5.624   3.149  0.1167 -0.0394  0.1232
 2410SOL    HW1 8472   5.625   5.652   3.116  0.5844 -0.8462 -1.8645
 2410SOL    HW2 8473   5.693   5.589   3.236 -2.1539 -3.2752 -1.5261
 2411SOL     OW 8474   7.042   0.850   0.239 -0.6292 -0.3443 -0.4026
 2411SOL    HW1 8475   7.060   0.772   0.292 -1.5668  0.1060  0.5821
 2411SOL    HW2 8476   7.125   0.868   0.195 -0.3781 -1.8581 -0.5863
 2412SOL     OW 8477   2.299   6.810   1.214 -0.0527  0.4595 -0.0679
 2412SOL    HW1 8478   2.306   6.739   1.151 -0.3574 -0.4535  0.9115
 2412SOL    HW2 8479   2.382   6.857   1.207  0.3632 -0.3202 -0.3443
 2413SOL     OW 8480   2.105   7.655   3.588 -0.6109  0.1289  0.5698
 2413SOL    HW1 8481   2.038   7.647   3.656 -0.8466 -0.3187  0.2823
 2413SOL    HW2 8482   2.080   7.591   3.522  0.1562 -0.1089  0.5082
 2414SOL     OW 8483   1.579   8.171   5.395 -0.1545  0.2446  0.1176
 2414SOL    HW1 8484   1.546   8.160   5.305  0.6109 -0.7810 -0.0311
 2414SOL    HW2 8485   1.674   8.163   5.387 -0.1229 -0.3380  1.1014
 2415SOL     OW 8486   0.923   2.716   2.717  0.1661 -0.4696 -0.1762
 2415SOL    HW1 8487   1.009   2.757   2.730 -0.7021  1.4990 -0.4786
 2415SOL    HW2 8488   0.880   2.726   2.802 -0.4720  0.2343 -0.5882
 2416SOL     OW 8489   4.782   8.234   0.327  0.3048  0.2195  0.2353
 2416SOL    HW1 8490   4.838   8.246   0.250 -0.5462 -0.1223 -0.4339
 2416SOL    HW2 8491   4.695   8.259   0.298  0.1997  1.3040  1.4477
 2417SOL     OW 8492   5.733   1.999   8.065 -0.1780  0.0086  0.2011
 2417SOL    HW1 8493   5.827   2.003   8.087  0.0283  0.8053 -0.7997
 2417SOL    HW2 8494   5.730   2.009   7.970 -1.2564 -0.5002  0.1766
 2418SOL     OW 8495   4.602   7.635   5.449 -0.2367  0.6208 -0.0856
 2418SOL    HW1 8496   4.570   7.574   5.516 -0.1662  1.7542  1.0098
 2418SOL    HW2 8497   4.696   7.619   5.445 -0.4027 -0.2294 -0.7331
 2419SOL     OW 8498   5.169   3.978   0.567  0.6754  0.0135 -0.1029
 2419SOL    HW1 8499   5.098   3.947   0.511  1.8758 -1.5274 -0.7825
 2419SOL    HW2 8500   5.126   4.000   0.650 -0.2845 -3.0764  0.2636
 2420SOL     OW 8501   2.396   0.267   3.350  0.5815 -0.5106 -0.1647
 2420SOL    HW1 8502   2.352   0.328   3.291  0.3924  0.4053  0.9105
 2420SOL    HW2 8503   2.441   0.205   3.291  0.0041  0.0886 -1.2598
 2421SOL     OW 8504   0.995   3.998   7.197 -0.0232  0.0197  0.0032
 2421SOL    HW1 8505   0.912   3.966   7.234 -0.4007  0.8713 -0.1018
 2421SOL    HW2 8506   0.987   3.982   7.103 -0.1062  0.1890 -0.0184
 2422SOL     OW 8507   1.139   0.011   5.076 -0.4004  0.3671 -1.1006
 2422SOL    HW1 8508   1.191   0.089   5.094  0.6224 -0.6218  0.3658
 2422SOL    HW2 8509   1.051   0.044   5.057  0.2959  1.9345 -1.6135
 2423SOL     OW 8510   4.675   1.979   5.678  0.0964 -0.3317 -0.2321
 2423SOL    HW1 8511   4.584   1.955   5.662 -0.5506  1.7282  0.1371
 2423SOL    HW2 8512   4.670   2.057   5.733  2.0499  0.5054 -1.1870
 2424SOL     OW 8513   6.485   5.275   0.199 -0.1031  0.4563  0.3847
 2424SOL    HW1 8514   6.448   5.201   0.151  0.5858 -0.2758  0.9701
 2424SOL    HW2 8515   6.579   5.269   0.183  0.2465 -0.3060  2.5131
 2425SOL     OW 8516   3.531   0.225   1.597  0.0915  0.3857  0.2052
 2425SOL    HW1 8517   3.488   0.298   1.641 -1.1332 -0.1922 -0.0162
 2425SOL    HW2 8518   3.534   0.251   1.504 -3.0295 -1.0873 -0.3590
 2426SOL     OW 8519   3.477   0.734   7.738 -0.2733  0.0312  0.6941
 2426SOL    HW1 8520   3.567   0.717   7.711  0.0988  3.4692 -0.4517
 2426SOL    HW2 8521   3.430   0.654   7.716  1.7040 -0.3622 -2.3699
 2427SOL     OW 8522   3.266   0.760   7.053 -0.6546  0.4407  0.0582
 2427SOL    HW1 8523   3.192   0.726   7.103  0.0305  0.6298  1.2367
 2427SOL    HW2 8524   3.287   0.692   6.989 -1.3453  0.0542  0.2461
 2428SOL     OW 8525   7.498   5.534   1.264 -0.0774 -0.0183 -0.2871
 2428SOL    HW1 8526   7.551   5.604   1.227 -1.4095  0.3050 -1.6122
 2428SOL    HW2 8527   7.533   5.453   1.226 -1.4721  0.3116 -2.3814
 2429SOL     OW 8528   2.341   3.752   1.053 -0.4152 -0.0542  0.3497
 2429SOL    HW1 8529   2.325   3.845   1.070  3.8069  0.4254  2.4053
 2429SOL    HW2 8530   2.393   3.752   0.972 -0.7902 -0.6460  0.1110
 2430SOL     OW 8531   2.877   7.077   5.376  0.1285 -0.0832  0.2024
 2430SOL    HW1 8532   2.784   7.081   5.399  0.6762  0.9452  2.4347
 2430SOL    HW2 8533   2.889   7.148   5.313 -0.7216 -0.6157 -0.5644
 2431SOL     OW 8534   0.628   4.465   4.681  0.0536  0.5477 -0.5633
 2431SOL    HW1 8535   0.638   4.541   4.739 -0.7219  0.4409 -0.2878
 2431SOL    HW2 8536   0.718   4.432   4.670  0.4814  1.9152 -1.2533
 2432SOL     OW 8537   2.272   1.913   5.084 -0.8188  0.5359  0.2569
 2432SOL    HW1 8538   2.187   1.941   5.051 -0.4899 -1.0916 -2.1734
 2432SOL    HW2 8539   2.286   1.827   5.043  1.5026  0.2872  1.4826
 2433SOL     OW 8540   2.630   8.099   5.353 -0.2682  0.1897 -0.5832
 2433SOL    HW1 8541   2.669   8.183   5.378  1.1773 -0.6408  0.0602
 2433SOL    HW2 8542   2.593   8.115   5.266  2.2595  0.8417 -1.6180
 2434SOL     OW 8543   7.191   8.094   7.729  0.4289 -0.5263  0.5563
 2434SOL    HW1 8544   7.135   8.034   7.679 -0.6855  0.5344  0.5025
 2434SOL    HW2 8545   7.272   8.099   7.679 -1.3600  2.0524 -2.2870
 2435SOL     OW 8546   8.278   2.913   1.401  0.5671  0.0419 -0.2232
 2435SOL    HW1 8547   8.230   2.995   1.389  3.0654  1.1201 -3.7161
 2435SOL    HW2 8548   8.226   2.847   1.356 -0.1511  0.1977  0.3690
 2436SOL     OW 8549   7.243   7.982   3.822  0.5684 -0.2823  0.3201
 2436SOL    HW1 8550   7.196   7.955   3.901  1.4306  0.6596  1.1711
 2436SOL    HW2 8551   7.312   8.040   3.854  1.5386 -0.6735 -1.0357
 2437SOL     OW 8552   0.277   7.679   0.800 -0.6250  0.1463 -0.2817
 2437SOL    HW1 8553   0.251   7.764   0.766 -0.2845  0.0301 -0.8297
 2437SOL    HW2 8554   0.373   7.683   0.804 -0.5196 -0.7324 -1.6883
 2438SOL     OW 8555   1.312   2.981   0.963 -0.1535 -0.6776 -0.0538
 2438SOL    HW1 8556   1.308   2.963   0.869  0.2753 -0.7720 -0.0522
 2438SOL    HW2 8557   1.223   3.010   0.985 -0.0366  0.1776 -0.6593
 2439SOL     OW 8558   6.365   5.882   0.590  0.0667  0.7708 -0.2918
 2439SOL    HW1 8559   6.376   5.800   0.543  1.1892  1.1905 -0.7691
 2439SOL    HW2 8560   6.282   5.872   0.637 -0.2694 -0.2620 -1.0995
 2440SOL     OW 8561   4.847   2.120   4.070 -0.2483 -0.0636 -0.3522
 2440SOL    HW1 8562   4.885   2.053   4.013 -2.3880 -2.1425  0.5828
 2440SOL    HW2 8563   4.763   2.140   4.031 -0.8853 -0.0757  0.9849
 2441SOL     OW 8564   3.680   1.410   2.165 -0.4054 -0.9548 -0.2671
 2441SOL    HW1 8565   3.723   1.388   2.248 -1.5088 -0.7199  0.3768
 2441SOL    HW2 8566   3.724   1.489   2.135 -1.2004 -0.0123  1.0090
 2442SOL     OW 8567   8.026   0.261   6.836 -0.5520 -0.2328 -0.4212
 2442SOL    HW1 8568   7.947   0.312   6.853  0.6946  1.8655 -0.7742
 2442SOL    HW2 8569   8.088   0.288   6.903 -0.0718 -1.7581 -0.2313
 2443SOL     OW 8570   4.901   6.275   5.749  0.0266  0.4686  0.1816
 2443SOL    HW1 8571   4.938   6.355   5.784  0.1693  0.0306  1.0358
 2443SOL    HW2 8572   4.827   6.304   5.695 -0.4502  1.1150  1.1825
 2444SOL     OW 8573   3.182   2.933   7.091 -0.7927 -0.0908 -0.0115
 2444SOL    HW1 8574   3.180   2.941   6.996 -3.2951 -0.8104 -0.0572
 2444SOL    HW2 8575   3.106   2.878   7.112  0.1421 -0.5476  2.3408
 2445SOL     OW 8576   4.878   5.001   7.132  0.2035 -0.4932 -0.7236
 2445SOL    HW1 8577   4.940   5.073   7.118  1.4966 -1.4051  0.1687
 2445SOL    HW2 8578   4.917   4.950   7.203 -2.2474 -0.3563  0.7772
 2446SOL     OW 8579   3.853   7.925   0.155  0.0112  0.1225 -0.0126
 2446SOL    HW1 8580   3.920   7.916   0.222 -0.5681  0.1081  0.5733
 2446SOL    HW2 8581   3.780   7.872   0.186 -0.5966  0.8209 -0.2132
 2447SOL     OW 8582   7.862   5.058   0.843 -0.2454 -0.1417  0.0725
 2447SOL    HW1 8583   7.776   5.015   0.841  0.7121 -2.1433  0.1083
 2447SOL    HW2 8584   7.883   5.071   0.751 -0.0553 -0.8004  0.0165
 2448SOL     OW 8585   2.839   1.678   5.526 -0.5199 -0.8646  0.1591
 2448SOL    HW1 8586   2.846   1.745   5.458  2.4393 -1.2434 -0.0044
 2448SOL    HW2 8587   2.837   1.727   5.608  0.2947 -0.5080 -0.0245
 2449SOL     OW 8588   0.984   0.239   2.265  0.6327 -0.0408 -0.2740
 2449SOL    HW1 8589   0.949   0.164   2.313  0.2539  0.4158  0.1708
 2449SOL    HW2 8590   0.934   0.241   2.184 -0.3895  0.6165  0.3667
 2450SOL     OW 8591   6.112   3.642   7.985 -0.1312  0.3615  0.0489
 2450SOL    HW1 8592   6.125   3.640   7.891  1.1062 -0.9615  0.2288
 2450SOL    HW2 8593   6.111   3.550   8.011 -1.0191  0.6949  1.2514
 2451SOL     OW 8594   2.711   4.398   5.122 -0.4291  0.2477  0.8145
 2451SOL    HW1 8595   2.715   4.302   5.123  1.6771  0.2740 -0.8719
 2451SOL    HW2 8596   2.634   4.418   5.068 -0.6964 -0.4871  0.9143
 2452SOL     OW 8597   1.334   4.715   8.050  0.0858  0.1077  0.0420
 2452SOL    HW1 8598   1.278   4.687   8.122 -0.9017  0.3202 -0.6292
 2452SOL    HW2 8599   1.372   4.797   8.080 -0.6156  0.3886  0.1809
 2453SOL     OW 8600   4.261   5.239   6.691  0.0885  0.4236 -0.8061
 2453SOL    HW1 8601   4.182   5.209   6.647  0.1530 -1.2796  0.2118
 2453SOL    HW2 8602   4.242   5.330   6.715 -1.4935  0.0730 -0.7218
 2454SOL     OW 8603   6.835   0.584   2.277 -0.4825  0.5199 -0.1948
 2454SOL    HW1 8604   6.753   0.545   2.307 -0.0165  0.2111  0.6945
 2454SOL    HW2 8605   6.886   0.597   2.356  0.1233  1.1995 -0.6911
 2455SOL     OW 8606   1.473   7.190   1.596 -0.4297  0.1376 -0.5085
 2455SOL    HW1 8607   1.494   7.272   1.551 -0.7164  1.0126  0.9267
 2455SOL    HW2 8608   1.547   7.133   1.577  1.1563  1.6890  0.7781
 2456SOL     OW 8609   1.539   8.001   1.197 -0.0466 -0.3243  0.7229
 2456SOL    HW1 8610   1.466   8.057   1.172  1.0698 -0.1809 -2.3722
 2456SOL    HW2 8611   1.518   7.974   1.286 -3.7148 -0.0567  0.0227
 2457SOL     OW 8612   5.636   3.360   1.607  0.1031  0.3182  0.9852
 2457SOL    HW1 8613   5.652   3.289   1.669  0.5462  0.0848  0.6062
 2457SOL    HW2 8614   5.718   3.367   1.557  0.4939  1.8735  1.8172
 2458SOL     OW 8615   1.450   0.609   6.272 -0.5011 -0.4047  0.7111
 2458SOL    HW1 8616   1.522   0.668   6.252 -0.5701  0.5449  3.1469
 2458SOL    HW2 8617   1.395   0.658   6.332 -1.6635 -2.1911  1.1317
 2459SOL     OW 8618   4.880   5.480   7.300 -0.2787 -0.2623 -0.4220
 2459SOL    HW1 8619   4.792   5.442   7.308 -0.2225 -0.0160  1.6447
 2459SOL    HW2 8620   4.930   5.438   7.370  0.7412  1.0056 -0.3862
 2460SOL     OW 8621   1.247   1.457   1.750  0.1854 -0.6193  0.0643
 2460SOL    HW1 8622   1.275   1.429   1.663  1.3316 -0.6593  0.4409
 2460SOL    HW2 8623   1.323   1.503   1.786 -0.5470  0.0722  0.7458
 2461SOL     OW 8624   6.431   6.243   6.803 -0.2289 -0.0172 -0.1111
 2461SOL    HW1 8625   6.424   6.182   6.729 -0.3529  0.5171 -0.5463
 2461SOL    HW2 8626   6.512   6.218   6.847  1.8866  2.0384 -2.6162
 2462SOL     OW 8627   2.756   2.729   4.272 -0.1333 -0.3638 -0.4577
 2462SOL    HW1 8628   2.690   2.774   4.220  1.0179  1.5438 -0.3563
 2462SOL    HW2 8629   2.821   2.699   4.208  0.6090  0.8111 -0.2841
 2463SOL     OW 8630   2.991   6.647   1.891  0.0928  0.0438 -0.2972
 2463SOL    HW1 8631   3.066   6.679   1.942 -0.2298  0.3491 -0.0140
 2463SOL    HW2 8632   2.990   6.553   1.908  0.6199 -0.0188 -0.5782
 2464SOL     OW 8633   6.931   1.309   5.689 -0.0326  0.3809  0.7024
 2464SOL    HW1 8634   6.959   1.385   5.739  3.3599 -1.5397  1.8850
 2464SOL    HW2 8635   6.944   1.334   5.597  1.8569  0.9680  1.1153
 2465SOL     OW 8636   5.059   1.948   6.527  0.0854 -0.3169  0.4167
 2465SOL    HW1 8637   5.135   1.950   6.585  0.0154 -0.6205  0.5220
 2465SOL    HW2 8638   4.986   1.976   6.582  0.5181  2.4642 -0.3241
 2466SOL     OW 8639   5.239   3.404   1.373 -0.1004 -0.7858 -0.0962
 2466SOL    HW1 8640   5.207   3.494   1.368 -0.4455 -0.8840  0.3098
 2466SOL    HW2 8641   5.268   3.394   1.463  0.7796 -0.7990 -0.3758
 2467SOL     OW 8642   3.039   4.625   0.505 -0.5660 -0.6456 -0.4637
 2467SOL    HW1 8643   3.084   4.571   0.440 -0.3644  0.3894 -1.2089
 2467SOL    HW2 8644   2.957   4.579   0.522  0.2781 -1.9766  0.0773
 2468SOL     OW 8645   6.228   5.645   4.946 -0.0498 -0.3808 -0.5211
 2468SOL    HW1 8646   6.312   5.678   4.977 -0.3453  0.6764 -0.8030
 2468SOL    HW2 8647   6.196   5.590   5.016 -0.1201  0.9636  0.5275
 2469SOL     OW 8648   8.095   0.382   8.038 -0.4348  0.1949  0.0100
 2469SOL    HW1 8649   8.081   0.296   8.000 -2.7734 -0.7305  2.7799
 2469SOL    HW2 8650   8.012   0.428   8.025  0.4424  1.6956 -0.4983
 2470SOL     OW 8651   6.844   1.215   1.905 -0.2012 -0.8170 -0.1917
 2470SOL    HW1 8652   6.859   1.121   1.901 -2.1252 -1.1225 -0.6101
 2470SOL    HW2 8653   6.887   1.243   1.987  2.2202 -1.6720 -1.1400
 2471SOL     OW 8654   6.648   0.852   8.058  0.3810  0.2370  0.2894
 2471SOL    HW1 8655   6.596   0.788   8.107 -1.5879  1.2087 -0.4924
 2471SOL    HW2 8656   6.732   0.856   8.105  0.5229 -2.8090  0.4302
 2472SOL     OW 8657   6.476   8.257   7.469 -0.0882 -0.2640  0.7016
 2472SOL    HW1 8658   6.566   8.230   7.486 -0.2253 -0.7938  0.6084
 2472SOL    HW2 8659   6.470   8.263   7.374 -0.5349 -1.6194  0.6270
 2473SOL     OW 8660   6.428   7.202   5.937 -0.3990  0.2178  0.0588
 2473SOL    HW1 8661   6.423   7.222   6.031 -0.0032 -2.0890  0.6200
 2473SOL    HW2 8662   6.506   7.148   5.929 -1.2193 -0.7895 -1.3646
 2474SOL     OW 8663   7.351   7.447   5.435 -0.2080 -0.0534  0.4094
 2474SOL    HW1 8664   7.436   7.482   5.410 -0.9829  0.4526 -1.6890
 2474SOL    HW2 8665   7.288   7.514   5.406 -1.6239 -2.4828 -2.5007
 2475SOL     OW 8666   4.822   3.757   6.479  0.0416 -0.1842 -0.6827
 2475SOL    HW1 8667   4.917   3.764   6.476 -0.0184  0.4251 -1.5692
 2475SOL    HW2 8668   4.793   3.840   6.516 -0.1493 -0.3620 -0.4309
 2476SOL     OW 8669   0.877   7.361   5.739 -0.0738  0.7856  0.0593
 2476SOL    HW1 8670   0.878   7.451   5.771 -2.0425  0.1036  2.1414
 2476SOL    HW2 8671   0.788   7.330   5.757  0.3086 -1.2911 -1.4664
 2477SOL     OW 8672   6.375   4.508   4.792  0.0184 -0.0254 -0.3555
 2477SOL    HW1 8673   6.362   4.413   4.801 -0.3510 -0.0013 -0.5812
 2477SOL    HW2 8674   6.454   4.516   4.739 -0.9488 -0.2444 -1.8731
 2478SOL     OW 8675   2.552   4.799   4.877  0.0859  0.3738  0.3101
 2478SOL    HW1 8676   2.486   4.848   4.828 -0.3670 -1.2701 -0.7552
 2478SOL    HW2 8677   2.593   4.741   4.812  2.5359  1.3050  0.9677
 2479SOL     OW 8678   3.925   6.980   7.613 -0.2281  0.2357  0.1268
 2479SOL    HW1 8679   3.901   6.918   7.544 -0.5985  2.0907 -1.4408
 2479SOL    HW2 8680   3.845   6.992   7.664 -0.6453  0.7636 -0.6437
 2480SOL     OW 8681   8.043   5.722   0.525 -0.6848 -0.2949 -0.0883
 2480SOL    HW1 8682   8.048   5.817   0.526 -0.8214 -0.3013  2.0585
 2480SOL    HW2 8683   8.052   5.696   0.616  0.3850 -2.3975 -0.7516
 2481SOL     OW 8684   2.414   0.988   6.238 -0.1824  0.0937 -0.0986
 2481SOL    HW1 8685   2.503   0.957   6.256 -0.4408 -1.0246 -0.6908
 2481SOL    HW2 8686   2.358   0.917   6.270 -0.8227  0.3210 -0.7222
 2482SOL     OW 8687   1.814   2.201   2.374  0.4840  0.1481  0.2362
 2482SOL    HW1 8688   1.868   2.214   2.297 -0.0819 -1.8937 -0.5162
 2482SOL    HW2 8689   1.729   2.238   2.350  1.0063  1.7394  0.7822
 2483SOL     OW 8690   7.653   7.690   5.795 -1.3331 -0.2302 -0.2501
 2483SOL    HW1 8691   7.646   7.711   5.889 -2.0854  1.5968 -0.7012
 2483SOL    HW2 8692   7.603   7.609   5.785 -1.8226 -0.0686  0.8025
 2484SOL     OW 8693   4.896   4.466   3.044  0.0245 -0.4711  0.2099
 2484SOL    HW1 8694   4.846   4.402   3.095 -0.1441 -0.0737  0.5550
 2484SOL    HW2 8695   4.873   4.550   3.084  1.2450 -0.3137  0.5904
 2485SOL     OW 8696   4.408   0.549   6.312  0.1594 -0.6847 -0.1592
 2485SOL    HW1 8697   4.489   0.516   6.349 -0.4414 -1.8904  0.1023
 2485SOL    HW2 8698   4.392   0.631   6.358  2.5986  0.9339 -2.0551
 2486SOL     OW 8699   5.689   0.941   4.441  0.0842  0.0184  0.0064
 2486SOL    HW1 8700   5.680   0.900   4.355 -0.3461 -1.7526  0.8630
 2486SOL    HW2 8701   5.603   0.979   4.459 -0.1863 -0.6652  0.1682
 2487SOL     OW 8702   7.051   2.815   2.148  0.5179  0.1040  0.0831
 2487SOL    HW1 8703   6.984   2.880   2.173 -0.3549 -1.4376  1.9441
 2487SOL    HW2 8704   7.125   2.833   2.206  0.2982 -0.5088  0.5590
 2488SOL     OW 8705   2.696   0.856   0.845  0.3803  0.1583  0.7582
 2488SOL    HW1 8706   2.774   0.889   0.800 -2.3483  3.2106 -1.9806
 2488SOL    HW2 8707   2.664   0.930   0.896 -2.2622 -0.1182 -0.3912
 2489SOL     OW 8708   4.211   6.677   0.103 -0.1838 -0.0811  0.2266
 2489SOL    HW1 8709   4.228   6.623   0.026 -0.3320  0.9148 -0.4969
 2489SOL    HW2 8710   4.235   6.766   0.077 -0.3368  0.2826  1.2900
 2490SOL     OW 8711   8.255   7.472   4.106  0.1174 -0.0655 -0.2978
 2490SOL    HW1 8712   8.223   7.526   4.034 -1.5686 -1.9346 -0.9911
 2490SOL    HW2 8713   8.254   7.382   4.072  0.0346 -0.8988  1.7889
 2491SOL     OW 8714   4.328   6.904   6.399  0.0360  0.5878 -0.0398
 2491SOL    HW1 8715   4.410   6.862   6.375  0.2372  0.4944  0.8094
 2491SOL    HW2 8716   4.290   6.930   6.315 -2.0783 -4.9032 -1.0152
 2492SOL     OW 8717   6.870   3.052   1.621 -0.1698  0.9225 -0.5075
 2492SOL    HW1 8718   6.848   3.130   1.571 -1.6740  1.4355  0.9422
 2492SOL    HW2 8719   6.796   2.992   1.607 -0.2975  0.8201  0.5827
 2493SOL     OW 8720   7.422   2.055   4.720 -0.1180  0.5604 -0.6529
 2493SOL    HW1 8721   7.437   2.112   4.795 -1.3179  1.3813 -1.0213
 2493SOL    HW2 8722   7.467   1.973   4.742 -1.1177  0.5251  1.2897
 2494SOL     OW 8723   4.066   3.958   4.109  0.1372 -0.0751  0.1409
 2494SOL    HW1 8724   4.035   3.905   4.183  0.9744 -1.8850 -0.7945
 2494SOL    HW2 8725   4.083   3.895   4.039  0.8589  1.4636 -1.0982
 2495SOL     OW 8726   6.720   2.842   5.951  0.0129 -0.0558 -0.1490
 2495SOL    HW1 8727   6.720   2.835   6.046 -0.6515 -0.7258 -0.1943
 2495SOL    HW2 8728   6.713   2.936   5.934 -1.6688 -0.0514  0.4696
 2496SOL     OW 8729   7.499   5.419   2.305  0.0099 -0.1988 -0.3321
 2496SOL    HW1 8730   7.420   5.394   2.258 -1.2813  1.6969  0.7733
 2496SOL    HW2 8731   7.512   5.511   2.282  1.8608 -0.4695 -0.4335
 2497SOL     OW 8732   5.465   5.583   1.624  0.0828  0.0138 -0.3124
 2497SOL    HW1 8733   5.495   5.632   1.548 -0.1907 -0.8397 -0.9714
 2497SOL    HW2 8734   5.536   5.592   1.688  0.5415  0.2836 -0.8597
 2498SOL     OW 8735   2.674   1.163   5.138 -0.2283  0.0425 -0.0117
 2498SOL    HW1 8736   2.625   1.170   5.221  0.7620 -0.7956  0.6567
 2498SOL    HW2 8737   2.761   1.134   5.164  0.8385  2.1347 -1.1489
 2499SOL     OW 8738   3.153   7.910   4.672  0.3349 -0.5439 -0.3178
 2499SOL    HW1 8739   3.179   7.840   4.611  0.8022  0.0778 -0.8396
 2499SOL    HW2 8740   3.235   7.956   4.691 -0.0478  0.1504 -0.3463
 2500SOL     OW 8741   4.569   0.834   5.388  1.0002 -0.2073  0.2131
 2500SOL    HW1 8742   4.559   0.747   5.349  2.8710 -0.6523  0.6635
 2500SOL    HW2 8743   4.545   0.821   5.480  0.8888 -0.1501  0.1920
 2501SOL     OW 8744   2.112   8.152   5.877  0.0131 -0.9164  0.1181
 2501SOL    HW1 8745   2.056   8.170   5.952 -1.1741 -1.8560 -0.5227
 2501SOL    HW2 8746   2.073   8.074   5.836  0.7917 -0.5716 -1.3071
 2502SOL     OW 8747   7.915   4.620   1.624 -0.0115 -0.4813  0.3331
 2502SOL    HW1 8748   7.910   4.709   1.590  0.3421 -0.4530  0.3479
 2502SOL    HW2 8749   7.942   4.631   1.715 -0.9948 -0.5534  0.6376
 2503SOL     OW 8750   8.201   2.112   3.891  0.4460  0.4600  0.2571
 2503SOL    HW1 8751   8.141   2.054   3.844  1.8452  0.9736 -2.2931
 2503SOL    HW2 8752   8.144   2.167   3.945 -1.2680 -0.0968 -0.9257
 2504SOL     OW 8753   2.739   4.074   5.537 -0.0579 -0.3320  0.5938
 2504SOL    HW1 8754   2.661   4.024   5.513  0.2996 -0.7349  0.2761
 2504SOL    HW2 8755   2.705   4.144   5.593 -0.8659  0.4870 -0.9007
 2505SOL     OW 8756   2.872   2.919   2.143 -0.0093  0.7131  0.3466
 2505SOL    HW1 8757   2.959   2.890   2.171 -0.2388  0.7142  1.0447
 2505SOL    HW2 8758   2.839   2.973   2.214 -1.9765 -2.0272  1.5995
 2506SOL     OW 8759   2.301   5.381   2.243  0.8966 -0.6795  0.4739
 2506SOL    HW1 8760   2.363   5.394   2.171 -1.8668  0.6235 -1.7157
 2506SOL    HW2 8761   2.281   5.469   2.273 -1.5133 -0.9665 -0.2455
 2507SOL     OW 8762   0.589   2.573   2.372  0.0719 -0.1758 -0.3619
 2507SOL    HW1 8763   0.526   2.508   2.341 -0.1502 -0.0997 -0.0749
 2507SOL    HW2 8764   0.631   2.606   2.293  0.0270 -0.5104 -0.5249
 2508SOL     OW 8765   6.513   0.021   5.118 -0.0470 -0.0679 -0.2467
 2508SOL    HW1 8766   6.594  -0.022   5.148 -1.1183 -0.1209  2.7091
 2508SOL    HW2 8767   6.542   0.105   5.084  1.4520 -0.8020 -0.8343
 2509SOL     OW 8768   6.070   4.399   7.554  0.1635  0.1099 -0.2251
 2509SOL    HW1 8769   6.140   4.440   7.605 -1.1649  0.5881  1.2388
 2509SOL    HW2 8770   6.015   4.471   7.524  0.7784 -0.1792 -2.1781
 2510SOL     OW 8771   1.273   4.821   7.337 -0.1496 -0.2368 -0.1972
 2510SOL    HW1 8772   1.247   4.773   7.259  0.4294 -1.7033  0.4891
 2510SOL    HW2 8773   1.210   4.794   7.404 -0.5319  0.8653 -0.0980
 2511SOL     OW 8774   5.304   6.000   3.550 -0.3394  0.1368  0.0658
 2511SOL    HW1 8775   5.340   6.089   3.546 -0.1290  0.0276 -0.5179
 2511SOL    HW2 8776   5.315   5.974   3.641 -0.1534  0.6103  0.1817
 2512SOL     OW 8777   4.765   5.220   5.448  0.1835  0.3680  0.2370
 2512SOL    HW1 8778   4.674   5.207   5.421 -0.0309  2.1172  0.0950
 2512SOL    HW2 8779   4.779   5.153   5.515 -0.5846 -1.2171 -1.1454
 2513SOL     OW 8780   0.238   3.347   1.332  0.4380  0.7356 -0.5123
 2513SOL    HW1 8781   0.291   3.353   1.252  0.5893  0.5860 -0.4236
 2513SOL    HW2 8782   0.296   3.377   1.402  0.8511 -0.7268 -0.2196
 2514SOL     OW 8783   4.250   2.485   1.177 -0.6163 -0.1706  0.1300
 2514SOL    HW1 8784   4.256   2.419   1.108 -0.1210 -0.2666  0.2620
 2514SOL    HW2 8785   4.296   2.561   1.141 -1.9265  0.4101 -0.3697
 2515SOL     OW 8786   1.538   3.839   5.128  0.2480 -0.1825 -0.0627
 2515SOL    HW1 8787   1.536   3.934   5.136 -0.6649 -0.0080 -1.8904
 2515SOL    HW2 8788   1.613   3.821   5.071  1.0667 -0.6468  1.1486
 2516SOL     OW 8789   6.283   1.746   4.042 -0.0516 -0.0443  0.4972
 2516SOL    HW1 8790   6.349   1.747   4.111  0.6802  1.7855 -0.2038
 2516SOL    HW2 8791   6.332   1.750   3.961 -0.9941  0.6913 -0.0493
 2517SOL     OW 8792   1.196   5.995   7.914  0.4403 -0.0531  0.4919
 2517SOL    HW1 8793   1.105   6.007   7.941  0.2847 -0.1403  0.0173
 2517SOL    HW2 8794   1.211   5.901   7.919  1.2611  0.1945  2.9493
 2518SOL     OW 8795   6.421   0.394   6.330 -0.1204  0.1386 -0.0222
 2518SOL    HW1 8796   6.351   0.380   6.395 -0.2740  1.4145  0.1125
 2518SOL    HW2 8797   6.494   0.427   6.382 -0.4602  1.7976 -0.5604
 2519SOL     OW 8798   0.159   1.876   6.017  0.1220 -0.1475  0.4092
 2519SOL    HW1 8799   0.209   1.821   6.076 -0.7856 -2.1551 -0.6624
 2519SOL    HW2 8800   0.093   1.917   6.073 -0.8107 -2.1328  0.8038
 2520SOL     OW 8801   3.039   1.916   1.265 -0.0079 -0.0196 -0.1509
 2520SOL    HW1 8802   3.030   1.835   1.315 -0.1396  0.5373  0.7490
 2520SOL    HW2 8803   3.115   1.902   1.209  0.1581 -0.6488  0.2273
 2521SOL     OW 8804   4.469   6.802   7.221 -0.0981 -0.0634 -0.1258
 2521SOL    HW1 8805   4.488   6.815   7.314 -0.8863  1.6538 -0.1759
 2521SOL    HW2 8806   4.533   6.857   7.176 -0.4455  0.0013 -0.5470
 2522SOL     OW 8807   5.394   3.523   0.161  0.3632 -0.8907  0.2409
 2522SOL    HW1 8808   5.381   3.604   0.210  1.7231 -0.3825 -0.2159
 2522SOL    HW2 8809   5.425   3.460   0.227  1.0515 -0.5290  0.2721
 2523SOL     OW 8810   0.117   1.229   4.039  0.2115  0.0087  0.8619
 2523SOL    HW1 8811   0.187   1.201   4.099  0.3322 -2.6176 -0.4035
 2523SOL    HW2 8812   0.049   1.163   4.050 -0.8902  0.9962  0.0369
 2524SOL     OW 8813   2.972   0.850   5.121  0.2004  0.3432  0.3377
 2524SOL    HW1 8814   2.996   0.941   5.137 -1.0969  0.5928  0.9248
 2524SOL    HW2 8815   3.012   0.801   5.193  0.5693  0.4986  0.2387
 2525SOL     OW 8816   5.786   4.784   3.266 -0.1668 -0.0019 -0.0694
 2525SOL    HW1 8817   5.831   4.754   3.345  0.0109  0.4123 -0.0139
 2525SOL    HW2 8818   5.813   4.875   3.256  1.0184 -0.4895 -1.4549
 2526SOL     OW 8819   3.278   8.140   0.981  0.0711 -0.0331  0.0110
 2526SOL    HW1 8820   3.352   8.172   1.033 -0.6479  1.0904  0.3396
 2526SOL    HW2 8821   3.308   8.149   0.890  0.7627 -0.6378  0.1676
 2527SOL     OW 8822   2.651   4.066   6.002  0.2768  0.0413 -0.2650
 2527SOL    HW1 8823   2.610   4.047   5.917  0.2775 -0.8487 -0.0656
 2527SOL    HW2 8824   2.742   4.039   5.991  0.2263 -0.2700  0.0911
 2528SOL     OW 8825   4.772   6.813   2.055 -0.1606 -0.1023  0.2968
 2528SOL    HW1 8826   4.795   6.786   1.966 -0.3652  0.9716 -0.0895
 2528SOL    HW2 8827   4.855   6.840   2.094 -0.1342 -0.1730  0.2899
 2529SOL     OW 8828   6.751   7.212   6.198  0.3026  0.1082 -0.3372
 2529SOL    HW1 8829   6.706   7.297   6.206  0.1055  0.0866 -1.2094
 2529SOL    HW2 8830   6.791   7.199   6.284 -1.5938 -0.0110  0.5554
 2530SOL     OW 8831   0.284   3.028   2.630  0.1662 -0.2676  0.5534
 2530SOL    HW1 8832   0.206   3.050   2.681 -0.7793 -0.4568 -0.7925
 2530SOL    HW2 8833   0.304   3.108   2.582  1.0020 -0.1202  1.1383
 2531SOL     OW 8834   0.695   3.764   2.237 -0.5351 -0.0099 -0.1983
 2531SOL    HW1 8835   0.608   3.803   2.229  0.2566  1.7576 -0.6623
 2531SOL    HW2 8836   0.755   3.840   2.234  0.9888 -1.1662  0.3965
 2532SOL     OW 8837   3.216   1.596   0.706 -0.3152  0.4791  0.7286
 2532SOL    HW1 8838   3.163   1.621   0.781  0.0274  2.9608  0.1666
 2532SOL    HW2 8839   3.189   1.506   0.687 -2.3133  0.7404  2.1719
 2533SOL     OW 8840   5.045   3.327   7.727  0.0883  0.4769  0.4227
 2533SOL    HW1 8841   5.055   3.308   7.820 -1.0026 -0.5548  0.3459
 2533SOL    HW2 8842   5.133   3.320   7.690  0.6072  1.4377  1.4666
 2534SOL     OW 8843   7.877   2.783   3.743  0.6192  0.6459  0.0279
 2534SOL    HW1 8844   7.794   2.775   3.790  1.8258  1.2332  2.3304
 2534SOL    HW2 8845   7.858   2.844   3.672 -0.9534  0.6901  0.4730
 2535SOL     OW 8846   6.263   4.111   0.028 -0.0649 -0.2758  0.1834
 2535SOL    HW1 8847   6.197   4.176   0.051  1.6481  0.6965  2.4519
 2535SOL    HW2 8848   6.283   4.066   0.110  1.7293 -0.8860 -0.5602
 2536SOL     OW 8849   3.390   0.625   4.856  0.0190  0.3855 -0.6164
 2536SOL    HW1 8850   3.483   0.621   4.834  0.3368 -3.4544  0.9133
 2536SOL    HW2 8851   3.345   0.581   4.783 -0.2856 -0.1670 -0.1079
 2537SOL     OW 8852   6.799   6.898   5.634 -0.0775 -0.6089  0.5187
 2537SOL    HW1 8853   6.818   6.910   5.541  0.9587 -1.0840  0.6574
 2537SOL    HW2 8854   6.704   6.886   5.638 -0.3279  0.9087 -0.3072
 2538SOL     OW 8855   7.960   3.140   5.916  0.1577  0.3185 -0.4948
 2538SOL    HW1 8856   7.900   3.143   5.841 -0.9839 -0.2818  0.3800
 2538SOL    HW2 8857   7.946   3.224   5.960  1.9997  1.3631 -1.8189
 2539SOL     OW 8858   3.921   7.642   0.278  0.3325 -1.0018 -0.4999
 2539SOL    HW1 8859   3.946   7.683   0.361 -0.1234  0.5335 -1.1093
 2539SOL    HW2 8860   4.003   7.609   0.242  1.3545  2.6412 -1.7453
 2540SOL     OW 8861   1.477   1.363   8.259 -0.6446 -0.0254  0.0771
 2540SOL    HW1 8862   1.464   1.302   8.331  1.4083  0.5390  0.9749
 2540SOL    HW2 8863   1.405   1.426   8.267 -1.2656 -0.8075  0.7235
 2541SOL     OW 8864   4.655   6.414   7.345 -0.0491 -0.2055 -0.1884
 2541SOL    HW1 8865   4.607   6.456   7.417 -1.2983 -1.9180 -0.0120
 2541SOL    HW2 8866   4.732   6.375   7.387 -0.0556 -0.0212 -0.0053
 2542SOL     OW 8867   5.258   3.497   0.468 -0.0953 -0.4518 -0.8638
 2542SOL    HW1 8868   5.343   3.456   0.456 -0.5308 -1.6716  0.1487
 2542SOL    HW2 8869   5.246   3.550   0.389  3.0202  2.3159  0.4173
 2543SOL     OW 8870   5.627   0.252   7.741  0.8339  0.2181  0.4384
 2543SOL    HW1 8871   5.614   0.240   7.835 -1.5586  1.2677  0.2911
 2543SOL    HW2 8872   5.668   0.171   7.712  0.9962 -0.3837  2.2698
 2544SOL     OW 8873   6.559   1.581   5.909 -0.4411  0.1703 -0.2652
 2544SOL    HW1 8874   6.559   1.612   5.818 -1.3740  0.7877 -0.0576
 2544SOL    HW2 8875   6.539   1.487   5.902 -1.8291  0.4852 -0.6182
 2545SOL     OW 8876   7.245   6.754   3.778  0.0776  0.5302  0.3859
 2545SOL    HW1 8877   7.237   6.849   3.784 -0.5023  0.4556  0.9273
 2545SOL    HW2 8878   7.333   6.735   3.811 -0.4265  0.7459  1.9109
 2546SOL     OW 8879   8.300   3.455   8.146  0.0418 -0.1625  0.0839
 2546SOL    HW1 8880   8.375   3.500   8.184  0.7810 -0.6876 -0.7399
 2546SOL    HW2 8881   8.305   3.474   8.052 -1.3233  0.4815  0.1304
 2547SOL     OW 8882   4.976   4.870   8.108 -0.1763 -0.6905  0.4092
 2547SOL    HW1 8883   4.991   4.956   8.147  0.5111 -0.5484 -0.1467
 2547SOL    HW2 8884   4.998   4.882   8.015 -0.1152 -1.4493  0.3224
 2548SOL     OW 8885   1.478   6.183   3.515 -0.1900 -0.4399 -0.1620
 2548SOL    HW1 8886   1.537   6.108   3.517 -1.3177 -1.3363  1.5332
 2548SOL    HW2 8887   1.436   6.180   3.429 -0.1350 -1.6861 -0.1479
 2549SOL     OW 8888   2.710   1.550   0.454 -0.1713  0.0520  0.7712
 2549SOL    HW1 8889   2.708   1.454   0.449  1.1129 -0.1176  2.8577
 2549SOL    HW2 8890   2.631   1.573   0.502 -1.2278  0.1715 -0.9694
 2550SOL     OW 8891   3.530   2.121   4.978  0.0916 -0.6031 -0.0881
 2550SOL    HW1 8892   3.480   2.066   5.038  0.0665 -1.1260 -0.5791
 2550SOL    HW2 8893   3.554   2.197   5.029 -4.2098  1.3627 -0.7669
 2551SOL     OW 8894   5.450   6.431   5.663 -0.4286 -0.3136 -0.2399
 2551SOL    HW1 8895   5.540   6.403   5.647  0.1353  1.5031 -0.2797
 2551SOL    HW2 8896   5.437   6.417   5.757 -0.0831 -0.4592 -0.2134
 2552SOL     OW 8897   0.547   0.872   6.967 -0.6467 -0.1554  0.6085
 2552SOL    HW1 8898   0.594   0.818   7.030  2.5584 -0.2775 -1.7478
 2552SOL    HW2 8899   0.600   0.951   6.958 -2.1608  0.7877 -0.3857
 2553SOL     OW 8900   3.502   0.947   3.762  0.3986  0.0158  0.3758
 2553SOL    HW1 8901   3.451   0.869   3.784 -0.0533  0.2211  0.0609
 2553SOL    HW2 8902   3.572   0.914   3.706  1.0286 -0.3726  1.3846
 2554SOL     OW 8903   4.755   6.443   4.492 -0.0567 -0.0061 -0.4687
 2554SOL    HW1 8904   4.786   6.499   4.421  0.1795  0.7815  0.2483
 2554SOL    HW2 8905   4.675   6.403   4.458  0.3044  0.0052 -1.3487
 2555SOL     OW 8906   4.702   0.496   4.483  0.0538 -0.2603 -0.7290
 2555SOL    HW1 8907   4.628   0.554   4.463 -0.7918 -0.7656  0.8683
 2555SOL    HW2 8908   4.673   0.409   4.456  0.0161 -0.4745 -0.0173
 2556SOL     OW 8909   0.173   4.462   2.021 -0.9026 -0.1175 -0.1964
 2556SOL    HW1 8910   0.086   4.488   2.053 -0.6009  1.4735 -0.5919
 2556SOL    HW2 8911   0.186   4.374   2.055 -2.2880 -0.0206  0.6431
 2557SOL     OW 8912   7.150   0.238   5.545 -0.1957  0.4320 -0.1848
 2557SOL    HW1 8913   7.180   0.225   5.455 -1.2876 -1.1312 -0.3697
 2557SOL    HW2 8914   7.171   0.155   5.589 -1.2891  0.5086  0.5059
 2558SOL     OW 8915   1.726   1.461   5.641  0.2160  0.1459  0.2630
 2558SOL    HW1 8916   1.746   1.499   5.556 -3.7886  0.4840 -0.6350
 2558SOL    HW2 8917   1.742   1.367   5.630  0.7628  0.3259 -0.5080
 2559SOL     OW 8918   5.321   6.298   2.468 -0.9930  0.6267  0.1444
 2559SOL    HW1 8919   5.249   6.268   2.412  0.0102  1.6029 -1.7259
 2559SOL    HW2 8920   5.304   6.392   2.480  0.2427  0.9836 -0.7728
 2560SOL     OW 8921   2.167   7.060   0.213 -0.0190  0.6319  0.4605
 2560SOL    HW1 8922   2.103   7.033   0.279  0.1795 -1.1733 -0.0517
 2560SOL    HW2 8923   2.118   7.119   0.155 -0.6165  0.9738  1.3019
 2561SOL     OW 8924   6.548   1.382   6.128  0.5971 -0.1157  0.1862
 2561SOL    HW1 8925   6.545   1.294   6.164 -0.0243 -0.0085  0.4022
 2561SOL    HW2 8926   6.457   1.408   6.119  0.7598  0.2461 -0.5222
 2562SOL     OW 8927   2.260   0.630   0.372 -0.3501  0.2178 -0.0947
 2562SOL    HW1 8928   2.244   0.609   0.464 -0.4137  1.3443  0.1574
 2562SOL    HW2 8929   2.174   0.656   0.338 -0.2003  0.4345 -0.3053
 2563SOL     OW 8930   2.894   1.612   0.706  0.4560  1.0251  0.6705
 2563SOL    HW1 8931   2.894   1.517   0.697  1.0229  1.1497 -0.6041
 2563SOL    HW2 8932   2.801   1.636   0.705  0.3836  0.6730 -0.8940
 2564SOL     OW 8933   0.009   3.565   7.484  0.2449 -0.1845 -0.0961
 2564SOL    HW1 8934  -0.038   3.648   7.472  1.2263  0.4450  0.3145
 2564SOL    HW2 8935  -0.047   3.514   7.544 -0.7599 -0.1542 -0.9910
 2565SOL     OW 8936   2.349   6.433   1.719 -0.7314  0.0620  0.1436
 2565SOL    HW1 8937   2.432   6.481   1.718  0.0130 -1.1509 -2.7963
 2565SOL    HW2 8938   2.282   6.501   1.727  0.5266  1.0623  2.5291
 2566SOL     OW 8939   2.637   7.249   2.861 -0.0219  0.3191  0.1737
 2566SOL    HW1 8940   2.627   7.270   2.768  0.8544 -0.7632 -0.1748
 2566SOL    HW2 8941   2.712   7.190   2.864 -1.1235 -1.0475  1.3755
 2567SOL     OW 8942   1.177   6.542   2.056  0.3377 -0.4610 -0.2597
 2567SOL    HW1 8943   1.264   6.502   2.054  0.6043  0.0847  0.3979
 2567SOL    HW2 8944   1.191   6.632   2.027  0.1988  0.0151  1.1513
 2568SOL     OW 8945   4.995   1.579   0.442 -0.2019 -0.4464  0.0246
 2568SOL    HW1 8946   4.910   1.616   0.418  1.2171  0.7990 -3.4489
 2568SOL    HW2 8947   5.036   1.647   0.496 -0.8736 -0.4843  0.5925
 2569SOL     OW 8948   7.985   4.459   1.201 -0.5968 -0.1639 -0.3648
 2569SOL    HW1 8949   7.939   4.427   1.123 -0.5124 -0.1661 -0.4141
 2569SOL    HW2 8950   7.971   4.390   1.267 -1.1421  0.0988 -0.2016
 2570SOL     OW 8951   4.651   5.866   4.619  0.2354  0.4264 -0.3900
 2570SOL    HW1 8952   4.688   5.872   4.531  0.1624 -1.4389 -0.5813
 2570SOL    HW2 8953   4.700   5.794   4.661  0.2341  1.2545  1.0728
 2571SOL     OW 8954   6.363   1.441   4.150 -0.2671  0.4749  0.4384
 2571SOL    HW1 8955   6.293   1.443   4.085 -0.0211 -1.1527  0.0941
 2571SOL    HW2 8956   6.441   1.469   4.103  0.0357 -1.3073 -0.1614
 2572SOL     OW 8957   4.757   6.439   5.517  0.1998  0.6210  0.0756
 2572SOL    HW1 8958   4.673   6.424   5.473  0.1284 -0.3848  0.5405
 2572SOL    HW2 8959   4.750   6.527   5.554 -0.3779  0.8159 -0.4860
 2573SOL     OW 8960   8.126   5.988   6.797  0.2711 -0.4957  0.1729
 2573SOL    HW1 8961   8.054   5.982   6.734  0.9628  0.0366 -0.6787
 2573SOL    HW2 8962   8.183   6.056   6.762  0.8314 -0.4259  1.2120
 2574SOL     OW 8963   0.730   7.193   7.994 -0.4825 -0.1144  0.2909
 2574SOL    HW1 8964   0.666   7.152   7.934  0.5669 -3.0504  1.0894
 2574SOL    HW2 8965   0.806   7.212   7.938 -1.0707  1.0305 -0.1376
 2575SOL     OW 8966   3.828   2.962   7.336  0.1325  0.0724  0.3244
 2575SOL    HW1 8967   3.784   3.015   7.403 -0.3847  2.1709 -1.6324
 2575SOL    HW2 8968   3.785   2.985   7.254  2.1649 -0.8940 -1.0629
 2576SOL     OW 8969   2.954   7.757   2.701 -0.5732  0.3245  0.0970
 2576SOL    HW1 8970   2.861   7.738   2.714 -0.4993  0.1788  0.4316
 2576SOL    HW2 8971   2.964   7.766   2.606 -1.1766  1.6316  0.1400
 2577SOL     OW 8972   5.212   4.065   1.330 -0.1562 -0.3969  0.1735
 2577SOL    HW1 8973   5.275   3.994   1.344 -0.3695 -0.7512 -0.5810
 2577SOL    HW2 8974   5.264   4.145   1.331  0.0712 -0.5620  1.1412
 2578SOL     OW 8975   2.626   7.015   1.515  0.3684 -0.0712 -1.0350
 2578SOL    HW1 8976   2.547   6.962   1.502  0.1490 -0.0627  0.2027
 2578SOL    HW2 8977   2.691   6.952   1.547  0.7927 -0.0317 -1.8201
 2579SOL     OW 8978   2.897   7.870   1.195  0.3334 -0.1837  0.4490
 2579SOL    HW1 8979   2.880   7.829   1.280 -0.4321  2.5620  1.7164
 2579SOL    HW2 8980   2.976   7.922   1.210 -0.3320  1.0380 -0.2205
 2580SOL     OW 8981   1.803   1.744   8.247 -0.0043 -0.4271  0.4555
 2580SOL    HW1 8982   1.791   1.729   8.341  0.5400  0.1391  0.6189
 2580SOL    HW2 8983   1.898   1.755   8.236 -0.2605  1.8907  0.2072
 2581SOL     OW 8984   2.691   0.981   6.167 -0.4430 -0.3392  0.4313
 2581SOL    HW1 8985   2.732   0.895   6.152  0.0965  0.0043 -0.0641
 2581SOL    HW2 8986   2.741   1.018   6.240  0.3571  0.2278 -0.4023
 2582SOL     OW 8987   7.041   1.014   5.373 -0.0426  0.3962 -0.1685
 2582SOL    HW1 8988   7.122   1.065   5.383 -0.7165  1.3180  0.7908
 2582SOL    HW2 8989   6.980   1.055   5.434 -0.5875 -1.6511  0.6967
 2583SOL     OW 8990   4.413   3.302   3.391  0.3154  0.1801 -0.2494
 2583SOL    HW1 8991   4.470   3.368   3.352 -0.1597 -0.1437 -1.5048
 2583SOL    HW2 8992   4.352   3.279   3.322  0.5269 -1.6358  0.1434
 2584SOL     OW 8993   0.156   5.455   0.382 -0.3915  0.1844  0.7875
 2584SOL    HW1 8994   0.172   5.487   0.471 -0.9660  1.6450  0.3704
 2584SOL    HW2 8995   0.242   5.450   0.342 -0.2797  1.0363  0.9174
 2585SOL     OW 8996   4.644   3.215   1.754  0.2058 -0.4994 -0.2078
 2585SOL    HW1 8997   4.647   3.267   1.834  0.6144 -0.9080  0.0429
 2585SOL    HW2 8998   4.707   3.145   1.768 -1.3822 -1.9051  0.0373
 2586SOL     OW 8999   4.281   4.477   7.571 -0.0088 -0.7570 -0.0421
 2586SOL    HW1 9000   4.336   4.532   7.627  1.6439 -1.1343 -1.2378
 2586SOL    HW2 9001   4.193   4.487   7.606  0.7943 -0.0055  1.8308
 2587SOL     OW 9002   2.827   1.970   0.097  0.0056 -0.0377  0.5610
 2587SOL    HW1 9003   2.766   1.901   0.070 -0.2149  0.2047  0.4414
 2587SOL    HW2 9004   2.877   1.990   0.018  0.8337 -0.8465  0.8751
 2588SOL     OW 9005   3.885   8.274   0.805  0.2644  0.0005  0.3801
 2588SOL    HW1 9006   3.848   8.187   0.807  0.8328 -0.2514  0.0788
 2588SOL    HW2 9007   3.847   8.316   0.728 -0.5583  0.2711  0.9231
 2589SOL     OW 9008   2.190   8.013   5.204  0.0533  0.0490  0.4151
 2589SOL    HW1 9009   2.206   8.104   5.178 -1.4578  1.0526  2.7222
 2589SOL    HW2 9010   2.209   8.012   5.298 -0.1001 -1.9850  0.4399
 2590SOL     OW 9011   1.006   5.031   6.445 -0.2362  0.3931 -0.3059
 2590SOL    HW1 9012   1.093   4.994   6.432 -0.9087 -1.6555  0.9825
 2590SOL    HW2 9013   1.001   5.052   6.538 -1.4536 -0.3330 -0.2001
 2591SOL     OW 9014   1.430   3.475   4.918 -0.1016 -0.0535  0.2898
 2591SOL    HW1 9015   1.400   3.522   4.996  0.0487  1.5340 -0.5973
 2591SOL    HW2 9016   1.365   3.406   4.906 -0.3030 -0.1193  1.6347
 2592SOL     OW 9017   7.063   4.816   6.551  0.4311 -0.6389  0.8710
 2592SOL    HW1 9018   7.158   4.824   6.563  0.4217 -0.7932  1.0573
 2592SOL    HW2 9019   7.053   4.783   6.462  0.5709 -1.0058  0.9894
 2593SOL     OW 9020   4.732   8.282   4.876  0.2880 -0.0196  0.1816
 2593SOL    HW1 9021   4.758   8.191   4.861  0.2840  0.0320 -0.1411
 2593SOL    HW2 9022   4.754   8.298   4.967  0.8335 -0.1659  0.0817
 2594SOL     OW 9023   4.938   8.117   4.591 -0.0759  0.0226 -0.5335
 2594SOL    HW1 9024   4.997   8.178   4.545  0.4260  0.0983  0.1992
 2594SOL    HW2 9025   4.963   8.031   4.559  0.7020  0.0227  0.0613
 2595SOL     OW 9026   6.363   4.621   3.499  0.0548  0.2453  0.3958
 2595SOL    HW1 9027   6.423   4.694   3.486  0.2943  0.3477  2.0075
 2595SOL    HW2 9028   6.298   4.630   3.429  2.1060 -0.0943 -1.6028
 2596SOL     OW 9029   7.859   0.482   8.008 -0.1294  0.5171  0.1587
 2596SOL    HW1 9030   7.773   0.445   7.990  0.2893 -0.7512  0.6399
 2596SOL    HW2 9031   7.845   0.541   8.081 -0.5903  0.2746  0.2685
 2597SOL     OW 9032   1.744   1.025   3.109 -0.3814  0.2235 -0.4412
 2597SOL    HW1 9033   1.657   1.054   3.139 -0.5942  0.1473 -0.9875
 2597SOL    HW2 9034   1.776   0.969   3.180  0.0663  1.8627  0.6655
 2598SOL     OW 9035   2.618   5.493   3.342 -0.1011  1.0857 -0.0642
 2598SOL    HW1 9036   2.643   5.474   3.432  0.6114  0.5770 -0.3636
 2598SOL    HW2 9037   2.605   5.588   3.340  3.0234  1.5834 -0.1652
 2599SOL     OW 9038   0.902   1.897   3.312  0.3424 -0.3881  0.4223
 2599SOL    HW1 9039   0.949   1.849   3.244  1.9789  1.8574 -0.0942
 2599SOL    HW2 9040   0.954   1.883   3.392 -0.2059 -0.9936  0.6748
 2600SOL     OW 9041   5.883   4.175   8.263 -0.3785 -0.2721  0.0613
 2600SOL    HW1 9042   5.804   4.124   8.274  0.1516 -0.7233  1.9966
 2600SOL    HW2 9043   5.889   4.228   8.343  0.4525  0.8993 -0.7482
 2601SOL     OW 9044   5.131   2.950   5.567 -0.9319 -0.0264 -0.0203
 2601SOL    HW1 9045   5.065   3.016   5.547 -1.1465  0.0365  0.8851
 2601SOL    HW2 9046   5.126   2.938   5.662 -0.0591 -0.4607 -0.0190
 2602SOL     OW 9047   5.277   5.797   2.107  0.2440  0.1571  0.7235
 2602SOL    HW1 9048   5.237   5.724   2.154  1.8245 -0.8708  0.5258
 2602SOL    HW2 9049   5.289   5.765   2.018 -2.3721  1.9609 -0.3186
 2603SOL     OW 9050   2.442   2.109   4.731 -0.5790 -0.0326 -0.3568
 2603SOL    HW1 9051   2.381   2.094   4.659 -0.5894  0.6425 -0.4896
 2603SOL    HW2 9052   2.508   2.168   4.695  0.1033 -0.6956 -0.1853
 2604SOL     OW 9053   1.742   1.215   0.766  0.3094  0.2155  0.1146
 2604SOL    HW1 9054   1.730   1.154   0.839  1.3992 -1.3296 -0.9498
 2604SOL    HW2 9055   1.777   1.160   0.695 -0.0282  1.8232 -1.3239
 2605SOL     OW 9056   2.226   1.848   1.114  0.1497 -0.1752  0.2578
 2605SOL    HW1 9057   2.290   1.874   1.048 -0.5243 -2.3685 -1.3301
 2605SOL    HW2 9058   2.272   1.860   1.198  2.3159 -0.7480 -0.7963
 2606SOL     OW 9059   0.434   1.583   4.649 -0.5087  0.0877 -0.3813
 2606SOL    HW1 9060   0.503   1.624   4.598  0.5182 -1.9546 -0.6724
 2606SOL    HW2 9061   0.464   1.590   4.740 -1.2437  1.6579 -0.2459
 2607SOL     OW 9062   1.771   0.203   5.310 -0.0098  0.6306  0.6989
 2607SOL    HW1 9063   1.828   0.128   5.293 -0.4099  0.4716  0.0358
 2607SOL    HW2 9064   1.751   0.238   5.223 -0.9346  0.6797  0.9290
 2608SOL     OW 9065   6.109   4.801   8.301  0.3349  0.1917  0.1068
 2608SOL    HW1 9066   6.129   4.763   8.387  0.5579 -0.3547 -0.1883
 2608SOL    HW2 9067   6.194   4.813   8.259  0.1487 -0.8463 -0.5907
 2609SOL     OW 9068   6.308   1.092   1.275  0.8558 -0.3797 -0.0941
 2609SOL    HW1 9069   6.350   1.028   1.333  1.7788  1.1184  0.9188
 2609SOL    HW2 9070   6.298   1.170   1.329 -0.6433  0.2099 -1.1945
 2610SOL     OW 9071   2.121   8.216   8.119 -0.0073 -1.0254 -0.6459
 2610SOL    HW1 9072   2.159   8.165   8.047  0.0798 -1.8290 -0.0293
 2610SOL    HW2 9073   2.049   8.163   8.151  1.2394 -1.6344  1.2209
 2611SOL     OW 9074   7.308   6.218   7.083  0.1735 -0.2816 -0.0794
 2611SOL    HW1 9075   7.359   6.263   7.150 -1.1883 -2.3969  2.4897
 2611SOL    HW2 9076   7.370   6.202   7.012  2.4708 -0.6562  1.9496
 2612SOL     OW 9077   2.227   5.836   4.591 -0.4088  0.0354  0.4172
 2612SOL    HW1 9078   2.239   5.848   4.685  1.6548 -0.8237  0.2938
 2612SOL    HW2 9079   2.300   5.883   4.551 -0.4740 -0.7672 -0.6703
 2613SOL     OW 9080   4.180   3.247   4.298 -1.1642 -0.3673 -0.4499
 2613SOL    HW1 9081   4.151   3.193   4.371 -0.7542 -0.3071 -0.2420
 2613SOL    HW2 9082   4.107   3.245   4.236 -1.8306  0.2115  0.3013
 2614SOL     OW 9083   4.479   7.140   0.744 -0.0989  0.0020  0.1335
 2614SOL    HW1 9084   4.401   7.131   0.689  1.4626  0.7872 -2.3061
 2614SOL    HW2 9085   4.541   7.077   0.708  0.6100 -0.2412  1.7183
 2615SOL     OW 9086   7.158   7.681   0.080 -0.2677  0.0765  0.0605
 2615SOL    HW1 9087   7.191   7.726   0.158 -0.7850  0.1879  0.2201
 2615SOL    HW2 9088   7.177   7.589   0.095  2.0160  0.3681 -0.8693
 2616SOL     OW 9089   3.726   4.046   5.667  0.1358 -0.2090  0.3563
 2616SOL    HW1 9090   3.803   3.999   5.632  0.0976 -1.8477  2.3949
 2616SOL    HW2 9091   3.652   3.992   5.641 -0.1648  0.3079  0.1384
 2617SOL     OW 9092   8.025   4.977   4.083 -0.1287  0.2756 -0.3860
 2617SOL    HW1 9093   8.058   4.999   3.996 -0.7655  0.5214 -0.5684
 2617SOL    HW2 9094   8.081   4.905   4.113  2.4005  2.5217  0.4745
 2618SOL     OW 9095   8.243   4.294   0.481  0.2819 -0.1511  0.2698
 2618SOL    HW1 9096   8.319   4.284   0.538  0.2948 -1.8596 -0.0347
 2618SOL    HW2 9097   8.277   4.277   0.393 -0.4097 -0.6735  0.1060
 2619SOL     OW 9098   7.403   4.588   6.550  0.1479 -0.6083  0.2183
 2619SOL    HW1 9099   7.499   4.584   6.555  0.2848  1.1900 -0.3339
 2619SOL    HW2 9100   7.384   4.566   6.459  0.0162 -1.3716  0.4347
 2620SOL     OW 9101   5.743   6.955   8.085  0.5050 -0.0483 -1.0081
 2620SOL    HW1 9102   5.718   7.035   8.039  0.5539  0.2662 -0.4968
 2620SOL    HW2 9103   5.660   6.916   8.112  0.5021  0.1836 -0.6737
 2621SOL     OW 9104   1.013   6.127   1.395 -0.4304 -0.2425  0.1280
 2621SOL    HW1 9105   0.956   6.167   1.329  0.1536  0.8382  0.2748
 2621SOL    HW2 9106   1.097   6.170   1.383  0.3658 -1.8324 -0.0835
 2622SOL     OW 9107   5.308   3.830   7.573 -0.5245 -0.0374 -0.1759
 2622SOL    HW1 9108   5.235   3.876   7.530 -0.9288 -0.2511  0.2688
 2622SOL    HW2 9109   5.276   3.741   7.586 -0.1933 -0.1268  0.0457
 2623SOL     OW 9110   6.262   3.201   5.859 -0.2967 -0.5467 -0.3671
 2623SOL    HW1 9111   6.224   3.166   5.940  0.7068  0.2055  0.4465
 2623SOL    HW2 9112   6.231   3.142   5.790 -1.8946 -0.6716  0.4442
 2624SOL     OW 9113   3.463   1.209   5.927  0.2370  0.4240  0.3873
 2624SOL    HW1 9114   3.377   1.249   5.936 -0.3551 -1.0570  1.6894
 2624SOL    HW2 9115   3.458   1.158   5.846  0.0540  0.7292  0.2062
 2625SOL     OW 9116   5.365   0.211   1.476  0.1616  0.0460  0.2628
 2625SOL    HW1 9117   5.376   0.133   1.421 -0.7668  1.3821 -1.9119
 2625SOL    HW2 9118   5.435   0.270   1.447 -0.8196  1.0688 -0.0458
 2626SOL     OW 9119   0.453   6.527   0.857 -0.1411  0.0639  0.4825
 2626SOL    HW1 9120   0.397   6.490   0.789  1.2794 -0.3721 -0.4873
 2626SOL    HW2 9121   0.451   6.464   0.928 -1.5651  0.4774  0.8198
 2627SOL     OW 9122   4.848   7.854   6.294 -0.1597 -0.6075  0.1470
 2627SOL    HW1 9123   4.758   7.824   6.289 -0.1127 -0.8219  0.5629
 2627SOL    HW2 9124   4.845   7.944   6.262 -0.1608 -1.3250 -1.8768
 2628SOL     OW 9125   5.275   2.290   5.611 -0.4106 -0.2605  0.5691
 2628SOL    HW1 9126   5.345   2.232   5.642  0.5994  1.1470  0.9526
 2628SOL    HW2 9127   5.285   2.291   5.516 -0.8724 -1.2632  0.5059
 2629SOL     OW 9128   0.905   3.112   4.809  0.2530 -0.1826 -0.0702
 2629SOL    HW1 9129   0.948   3.041   4.857  1.7599  0.4856 -0.4349
 2629SOL    HW2 9130   0.866   3.166   4.878 -0.6865 -1.2065  0.2208
 2630SOL     OW 9131   0.760   1.466   2.999  0.2492  0.6389  0.0402
 2630SOL    HW1 9132   0.735   1.379   3.030 -0.0427  0.0759 -1.7073
 2630SOL    HW2 9133   0.743   1.524   3.074  0.8812 -0.8515  1.3670
 2631SOL     OW 9134   7.932   0.026   6.682 -0.5302 -0.0625  0.1232
 2631SOL    HW1 9135   7.973   0.099   6.728 -1.5172  0.6424 -0.1025
 2631SOL    HW2 9136   8.005  -0.022   6.642  0.1130  0.8263  0.2329
 2632SOL     OW 9137   2.814   1.420   6.298 -0.2726 -0.1632 -0.5970
 2632SOL    HW1 9138   2.851   1.345   6.251  2.0510 -0.3253  1.3798
 2632SOL    HW2 9139   2.745   1.382   6.351  0.4051 -0.8113 -0.1616
 2633SOL     OW 9140   5.261   4.694   6.217  0.1774 -0.2239  0.2033
 2633SOL    HW1 9141   5.237   4.714   6.308 -0.5814 -1.6270  0.3240
 2633SOL    HW2 9142   5.267   4.599   6.214  0.6076 -0.1614 -1.1261
 2634SOL     OW 9143   6.439   0.914   1.679 -0.4123 -0.4972 -0.2317
 2634SOL    HW1 9144   6.427   0.910   1.584  0.4143 -0.0132 -0.3569
 2634SOL    HW2 9145   6.532   0.935   1.691 -0.7797  0.6312  0.6761
 2635SOL     OW 9146   5.707   5.275   5.352  0.0735 -0.1302  0.3004
 2635SOL    HW1 9147   5.764   5.346   5.382 -1.6739  0.4456  2.3496
 2635SOL    HW2 9148   5.625   5.317   5.329 -0.6625 -1.3726  0.6041
 2636SOL     OW 9149   1.640   6.423   4.660  0.1164 -0.0811 -0.6202
 2636SOL    HW1 9150   1.622   6.485   4.732  0.1625  0.3873 -1.0065
 2636SOL    HW2 9151   1.622   6.337   4.698 -2.7105  0.3241 -0.8617
 2637SOL     OW 9152   7.785   7.059   6.944  0.6399 -0.0854  0.0789
 2637SOL    HW1 9153   7.739   7.030   7.023  0.9865  0.3047  0.4291
 2637SOL    HW2 9154   7.808   6.978   6.899 -1.5949 -0.2529 -0.8136
 2638SOL     OW 9155   4.430   0.324   4.861  0.5226 -0.1916  0.8026
 2638SOL    HW1 9156   4.484   0.368   4.926 -0.2383  0.3977  1.0430
 2638SOL    HW2 9157   4.451   0.231   4.871  0.2323 -0.1331  2.0672
 2639SOL     OW 9158   4.085   3.638   7.706 -0.1958  0.1882 -0.4388
 2639SOL    HW1 9159   4.104   3.629   7.799 -0.8959 -1.6633 -0.4484
 2639SOL    HW2 9160   4.157   3.592   7.662 -0.1965  0.5096 -0.7756
 2640SOL     OW 9161   2.705   2.160   8.035  0.1978  0.3383 -0.3142
 2640SOL    HW1 9162   2.638   2.199   7.978  0.8962  0.2830 -1.1874
 2640SOL    HW2 9163   2.678   2.069   8.045 -0.3226  0.5285  0.0437
 2641SOL     OW 9164   1.985   6.278   7.279  0.5145 -0.0623 -0.4365
 2641SOL    HW1 9165   1.916   6.331   7.319 -0.0314 -1.1113  0.0410
 2641SOL    HW2 9166   2.011   6.217   7.348  0.9503 -0.5877 -1.0609
 2642SOL     OW 9167   2.833   0.733   4.748 -0.3911 -0.3405  0.6061
 2642SOL    HW1 9168   2.911   0.786   4.737 -0.1725 -0.7033  0.3922
 2642SOL    HW2 9169   2.761   0.791   4.722 -0.0353 -0.5777 -0.9505
 2643SOL     OW 9170   3.199   0.143   5.160  0.3411 -0.2277 -0.7280
 2643SOL    HW1 9171   3.240   0.230   5.158 -0.9270  0.4148  0.2253
 2643SOL    HW2 9172   3.256   0.092   5.218 -0.1955  0.6686  0.6222
 2644SOL     OW 9173   2.593   2.623   7.231  0.3067  0.4613 -0.0253
 2644SOL    HW1 9174   2.606   2.613   7.325 -1.9751  1.6281  0.4538
 2644SOL    HW2 9175   2.581   2.717   7.218  0.5365  0.3078 -1.4674
 2645SOL     OW 9176   4.960   7.634   0.639  0.0777 -0.5367 -0.2874
 2645SOL    HW1 9177   4.926   7.715   0.678  1.1554  0.7232 -1.9043
 2645SOL    HW2 9178   4.898   7.567   0.666 -0.5935  0.7468  1.4662
 2646SOL     OW 9179   1.936   3.830   2.680 -0.3581 -0.2222 -0.1193
 2646SOL    HW1 9180   2.007   3.800   2.737  1.1550 -1.2153 -2.4911
 2646SOL    HW2 9181   1.955   3.923   2.665 -0.7055  0.0198  0.8886
 2647SOL     OW 9182   4.282   2.137   4.318 -0.1944  0.0170  0.5841
 2647SOL    HW1 9183   4.299   2.051   4.280 -0.0742  0.2533  0.0834
 2647SOL    HW2 9184   4.268   2.121   4.411 -0.4805 -0.5763  0.4377
 2648SOL     OW 9185   1.647   7.420   2.846  0.2121 -0.5609 -0.6094
 2648SOL    HW1 9186   1.724   7.460   2.884 -0.0994  0.3532 -0.9183
 2648SOL    HW2 9187   1.604   7.491   2.798  0.1707 -1.4854 -1.9890
 2649SOL     OW 9188   0.316   2.438   1.204  0.3406 -0.0123  0.7361
 2649SOL    HW1 9189   0.228   2.425   1.169  0.8702 -0.5706 -0.4164
 2649SOL    HW2 9190   0.360   2.354   1.190  1.2834  0.4917  0.6487
 2650SOL     OW 9191   5.128   1.299   3.069 -0.3398  0.7031  0.0778
 2650SOL    HW1 9192   5.036   1.281   3.047  0.2305 -1.3279 -0.7994
 2650SOL    HW2 9193   5.134   1.284   3.163 -0.6515 -0.3442 -0.0659
 2651SOL     OW 9194   7.901   2.818   6.132 -0.1820  0.1521 -0.2014
 2651SOL    HW1 9195   7.817   2.856   6.158 -0.2368 -0.9182  1.2581
 2651SOL    HW2 9196   7.966   2.872   6.176 -0.0937  1.0104 -1.3701
 2652SOL     OW 9197   2.746   0.937   0.401 -0.1095 -0.4560 -0.4079
 2652SOL    HW1 9198   2.838   0.925   0.425  0.3207  0.6541 -1.4619
 2652SOL    HW2 9199   2.718   0.852   0.368  0.7649 -0.5924 -0.7979
 2653SOL     OW 9200   6.722   2.021   6.668 -0.1759  0.6560 -0.3116
 2653SOL    HW1 9201   6.689   1.933   6.648  1.0426 -0.3411  1.9031
 2653SOL    HW2 9202   6.800   2.030   6.614 -0.0387  0.2009 -0.1929
 2654SOL     OW 9203   2.015   5.483   1.420  0.2668 -0.4556  0.2488
 2654SOL    HW1 9204   2.088   5.421   1.426  1.1228  0.6934  2.1073
 2654SOL    HW2 9205   1.987   5.478   1.329  0.5631 -3.2915  0.2671
 2655SOL     OW 9206   7.921   4.084   0.947 -0.4084 -0.3842 -0.5388
 2655SOL    HW1 9207   7.948   4.065   0.857 -1.9350 -0.7759 -0.9353
 2655SOL    HW2 9208   7.924   4.000   0.992 -1.4197 -0.5303 -0.7235
 2656SOL     OW 9209   5.428   5.521   6.995  0.1486  0.4952 -0.2392
 2656SOL    HW1 9210   5.391   5.582   7.059 -1.9040 -1.7776  0.8330
 2656SOL    HW2 9211   5.383   5.438   7.012  2.5069 -1.2133 -1.9693
 2657SOL     OW 9212   3.080   3.519   4.476 -0.0850 -0.2047 -0.3948
 2657SOL    HW1 9213   3.064   3.479   4.391 -2.0785 -1.3178  0.4856
 2657SOL    HW2 9214   3.049   3.454   4.540  0.3020  1.0973  1.1487
 2658SOL     OW 9215   5.487   6.196   7.646 -0.1101 -0.1359 -0.5486
 2658SOL    HW1 9216   5.436   6.120   7.617  1.2378 -0.5511 -1.9240
 2658SOL    HW2 9217   5.561   6.158   7.694  0.2237  0.3285 -0.6918
 2659SOL     OW 9218   7.405   4.006   5.579 -0.1720 -0.4012  0.1223
 2659SOL    HW1 9219   7.339   3.985   5.513 -0.5119  0.7603  0.0760
 2659SOL    HW2 9220   7.487   3.975   5.542 -0.4955 -0.5823 -0.4491
 2660SOL     OW 9221   4.370   6.747   3.300  0.8524 -0.1356 -0.1973
 2660SOL    HW1 9222   4.410   6.661   3.312 -2.4308 -1.6448  0.5567
 2660SOL    HW2 9223   4.360   6.755   3.206  0.2315 -1.0893 -0.2295
 2661SOL     OW 9224   2.680   3.075   5.909  0.7115 -0.2146  0.2444
 2661SOL    HW1 9225   2.611   3.134   5.878 -0.6791 -1.1770  1.4298
 2661SOL    HW2 9226   2.713   3.117   5.988  0.4524 -0.5001  0.5040
 2662SOL     OW 9227   3.835   7.494   1.668  0.2296 -0.9993 -0.5651
 2662SOL    HW1 9228   3.837   7.495   1.764  1.3843 -1.4894 -0.5737
 2662SOL    HW2 9229   3.762   7.435   1.647 -1.1283  0.4426 -0.0072
 2663SOL     OW 9230   6.467   5.753   2.350 -0.2004  0.3343  0.0615
 2663SOL    HW1 9231   6.479   5.845   2.327  0.7587 -0.0428 -0.9972
 2663SOL    HW2 9232   6.504   5.705   2.276 -1.1643 -0.9029  0.3693
 2664SOL     OW 9233   2.609   5.763   0.870  0.1655  0.3141 -0.2168
 2664SOL    HW1 9234   2.580   5.841   0.822 -0.4701  0.7139  0.8024
 2664SOL    HW2 9235   2.533   5.706   0.871 -0.0100  0.5596  0.8245
 2665SOL     OW 9236   0.608   7.483   1.036 -0.3535 -0.3182 -0.5638
 2665SOL    HW1 9237   0.562   7.533   0.968 -0.1040 -0.9762 -1.2204
 2665SOL    HW2 9238   0.551   7.488   1.112 -0.0479  1.5164 -0.4198
 2666SOL     OW 9239   1.587   4.463   5.956 -0.5724 -0.1749 -0.5749
 2666SOL    HW1 9240   1.565   4.451   5.863 -1.0183  0.9052 -0.6100
 2666SOL    HW2 9241   1.562   4.553   5.975  0.1504 -0.1853  0.4253
 2667SOL     OW 9242   0.518   6.799   7.182  0.3984  0.1003 -0.4108
 2667SOL    HW1 9243   0.520   6.743   7.260 -0.0391 -0.2124 -0.6182
 2667SOL    HW2 9244   0.426   6.800   7.156  0.6675 -0.4539 -1.4037
 2668SOL     OW 9245   5.008   3.717   0.591 -0.0444 -0.7022 -0.3106
 2668SOL    HW1 9246   4.987   3.641   0.644  2.1907 -0.3215  1.1970
 2668SOL    HW2 9247   5.086   3.692   0.542  1.8861  1.2413  1.6652
 2669SOL     OW 9248   6.510   5.557   4.997 -0.3951 -0.7382  0.1404
 2669SOL    HW1 9249   6.515   5.595   5.085 -0.9117 -0.9932  0.2836
 2669SOL    HW2 9250   6.533   5.465   5.010 -0.7468 -0.8390  0.0535
 2670SOL     OW 9251   6.769   1.192   5.307  0.8596 -0.0410  0.2979
 2670SOL    HW1 9252   6.716   1.128   5.354 -0.0450  0.8848  0.5782
 2670SOL    HW2 9253   6.759   1.168   5.215  0.3784 -0.2120  0.3902
 2671SOL     OW 9254   2.885   1.949   1.978 -0.6126  0.1774 -0.1803
 2671SOL    HW1 9255   2.800   1.958   1.935 -0.7336  0.1266  0.0521
 2671SOL    HW2 9256   2.924   2.037   1.971 -1.5865  0.7763  1.6312
 2672SOL     OW 9257   2.596   1.430   1.234 -0.1198  0.3486 -0.4881
 2672SOL    HW1 9258   2.604   1.445   1.140  0.4152  1.2415 -0.3080
 2672SOL    HW2 9259   2.650   1.353   1.251 -0.5659 -0.0720 -0.9791
 2673SOL     OW 9260   7.591   1.265   4.517  0.6475  0.0003 -0.2209
 2673SOL    HW1 9261   7.568   1.334   4.455  0.0460  1.1824  1.2695
 2673SOL    HW2 9262   7.552   1.186   4.480  0.6958  0.5993 -1.5757
 2674SOL     OW 9263   5.922   5.418   1.378 -0.2412  0.3500  0.3153
 2674SOL    HW1 9264   5.828   5.429   1.363 -0.4534 -0.1753  1.2609
 2674SOL    HW2 9265   5.961   5.421   1.290 -0.9544  2.2411  0.0569
 2675SOL     OW 9266   7.238   7.530   3.321  0.0569 -0.5874  0.3891
 2675SOL    HW1 9267   7.181   7.453   3.329  1.3618 -1.6963 -0.7646
 2675SOL    HW2 9268   7.302   7.506   3.255  0.5207  1.4960  0.0404
 2676SOL     OW 9269   5.027   0.742   4.478  0.2781 -0.1638 -0.0171
 2676SOL    HW1 9270   5.037   0.734   4.383  0.5218  0.1480 -0.0177
 2676SOL    HW2 9271   5.106   0.789   4.506  1.0904 -1.8076  0.5463
 2677SOL     OW 9272   1.252   6.841   4.753  0.0252  0.2209 -0.2611
 2677SOL    HW1 9273   1.167   6.872   4.722  0.5495  0.2175 -1.7595
 2677SOL    HW2 9274   1.257   6.869   4.844 -0.8680  1.6801 -0.6564
 2678SOL     OW 9275   1.283   3.776   5.403  0.1523  0.3593  0.0252
 2678SOL    HW1 9276   1.209   3.821   5.446  0.8655  0.1149  1.5425
 2678SOL    HW2 9277   1.322   3.723   5.473 -0.1297 -1.9437 -1.5379
 2679SOL     OW 9278   2.190   0.215   3.915  0.7362  0.1954 -0.3679
 2679SOL    HW1 9279   2.265   0.176   3.870  0.1326  2.0570 -3.0871
 2679SOL    HW2 9280   2.209   0.309   3.918  0.0019  0.3188  1.8824
 2680SOL     OW 9281   3.384   6.269   3.904 -0.3976 -0.0928  0.7030
 2680SOL    HW1 9282   3.477   6.267   3.927 -0.1052 -3.1215 -0.5654
 2680SOL    HW2 9283   3.338   6.249   3.985  0.1104 -0.0540  1.0011
 2681SOL     OW 9284   4.623   4.550   1.100  0.9897 -0.0496 -0.4104
 2681SOL    HW1 9285   4.659   4.462   1.106  1.6530  0.2519  0.1333
 2681SOL    HW2 9286   4.529   4.540   1.116  1.2830 -0.4789  1.0787
 2682SOL     OW 9287   5.482   8.128   8.040  0.2296 -0.5199  0.1865
 2682SOL    HW1 9288   5.484   8.200   7.977  1.2995 -0.5969  0.1360
 2682SOL    HW2 9289   5.427   8.062   7.997  2.1658 -1.1825 -1.3475
 2683SOL     OW 9290   6.329   1.636   3.164  0.6101 -0.0134 -0.3721
 2683SOL    HW1 9291   6.325   1.565   3.101  1.0836 -0.7583  0.4370
 2683SOL    HW2 9292   6.315   1.594   3.249 -2.3217  1.2664 -0.1402
 2684SOL     OW 9293   4.447   0.155   6.315  0.0347 -0.3042 -0.4872
 2684SOL    HW1 9294   4.459   0.129   6.224  0.2938  0.1620 -0.5848
 2684SOL    HW2 9295   4.521   0.116   6.361 -0.2812 -0.8289 -0.4135
 2685SOL     OW 9296   0.702   4.412   7.500  0.1635  0.3220  0.4285
 2685SOL    HW1 9297   0.668   4.382   7.416 -0.3168  1.4752  0.2073
 2685SOL    HW2 9298   0.625   4.419   7.556  0.3176  0.8334  0.5732
 2686SOL     OW 9299   3.251   7.721   6.351 -0.6822  0.4046 -0.1666
 2686SOL    HW1 9300   3.287   7.748   6.435 -0.0210 -0.2460 -0.2408
 2686SOL    HW2 9301   3.183   7.786   6.333  0.9112  2.0496 -0.3764
 2687SOL     OW 9302   2.321   5.825   1.762 -0.8203 -0.3104 -0.0068
 2687SOL    HW1 9303   2.384   5.890   1.793  0.9406 -0.8254 -2.3922
 2687SOL    HW2 9304   2.271   5.801   1.840 -0.2116  2.4501  1.3091
 2688SOL     OW 9305   2.127   0.675   6.650  0.2718  0.1167  0.1699
 2688SOL    HW1 9306   2.137   0.581   6.641  0.3919  0.0308  1.1691
 2688SOL    HW2 9307   2.204   0.703   6.701  0.1372  0.7230  0.0487
 2689SOL     OW 9308   7.084   6.405   1.132  0.5770  0.0259 -0.5108
 2689SOL    HW1 9309   7.088   6.381   1.225 -1.3113  0.4746 -0.2932
 2689SOL    HW2 9310   7.082   6.321   1.086 -0.0402 -0.2180 -0.0554
 2690SOL     OW 9311   4.116   6.844   7.765 -0.1728 -0.0104 -0.9814
 2690SOL    HW1 9312   4.060   6.883   7.698 -1.0797  1.4876  0.5691
 2690SOL    HW2 9313   4.059   6.781   7.809 -0.3503  0.7493 -0.0928
 2691SOL     OW 9314   2.978   8.005   2.839  0.3328  0.4096  0.1733
 2691SOL    HW1 9315   3.071   8.015   2.858  0.3001  3.1017 -0.8927
 2691SOL    HW2 9316   2.974   7.953   2.759  0.8555 -0.7423  0.8841
 2692SOL     OW 9317   5.850   7.103   4.064 -0.4996 -0.1472  0.5226
 2692SOL    HW1 9318   5.904   7.180   4.051  0.1050 -0.7151 -0.3021
 2692SOL    HW2 9319   5.774   7.136   4.114 -0.4164  1.0354 -0.1171
 2693SOL     OW 9320   0.009   4.689   0.152 -0.2575 -0.1167 -0.0817
 2693SOL    HW1 9321  -0.058   4.743   0.195 -1.1158 -1.4986  0.3510
 2693SOL    HW2 9322   0.087   4.701   0.207 -0.5275  0.4217  0.1944
 2694SOL     OW 9323   1.830   2.447   0.569 -0.4819  0.3626  0.6411
 2694SOL    HW1 9324   1.878   2.369   0.540  0.3899  0.6740  1.2349
 2694SOL    HW2 9325   1.810   2.494   0.488 -0.6174 -0.2500  0.3161
 2695SOL     OW 9326   3.727   1.376   4.503 -0.0405  0.0523  0.2122
 2695SOL    HW1 9327   3.771   1.455   4.472 -0.1742  0.5419  1.2580
 2695SOL    HW2 9328   3.797   1.320   4.535  0.1491 -0.6768 -1.4437
 2696SOL     OW 9329   8.286   5.199   8.098  0.3424 -0.2670 -0.1351
 2696SOL    HW1 9330   8.342   5.137   8.145 -1.0004 -1.6684 -0.3212
 2696SOL    HW2 9331   8.212   5.214   8.157 -0.1321 -0.1068 -0.7626
 2697SOL     OW 9332   8.227   2.829   0.050 -0.0236 -0.2290 -0.1109
 2697SOL    HW1 9333   8.147   2.829  -0.003 -0.5877 -0.4831  0.7222
 2697SOL    HW2 9334   8.293   2.871  -0.005  0.0700 -2.7717 -2.0292
 2698SOL     OW 9335   2.775   3.451   6.556 -0.2689 -0.0888 -0.4494
 2698SOL    HW1 9336   2.817   3.370   6.584  0.0910  0.1351 -0.3403
 2698SOL    HW2 9337   2.830   3.520   6.592 -0.8856  0.2048 -0.0709
 2699SOL     OW 9338   6.135   7.247   0.746  0.3694 -0.3135  1.1713
 2699SOL    HW1 9339   6.085   7.269   0.668  0.9715 -1.9423  0.3023
 2699SOL    HW2 9340   6.090   7.292   0.817 -0.0255  1.4116 -0.1355
 2700SOL     OW 9341   4.068   6.726   0.312  0.1176 -0.1380 -0.4576
 2700SOL    HW1 9342   4.070   6.813   0.272  1.1748  0.1717  0.2464
 2700SOL    HW2 9343   4.117   6.670   0.252 -1.5986 -0.5321 -1.5269
 2701SOL     OW 9344   2.320   5.174   3.898 -0.2269  0.4368  0.0225
 2701SOL    HW1 9345   2.266   5.252   3.891  0.2043  0.7412  0.0611
 2701SOL    HW2 9346   2.305   5.126   3.817 -4.7254 -2.2039  2.2087
 2702SOL     OW 9347   1.080   3.412   6.992  0.1964 -0.1154 -0.2904
 2702SOL    HW1 9348   1.126   3.350   6.934  0.5708  0.1166 -0.2400
 2702SOL    HW2 9349   1.063   3.362   7.071  0.3709 -0.1977 -0.3053
 2703SOL     OW 9350   1.940   4.530   2.317  0.2166  0.0846 -0.2236
 2703SOL    HW1 9351   1.986   4.446   2.312  0.2585  0.0948 -0.0368
 2703SOL    HW2 9352   2.005   4.589   2.356 -0.5832 -0.3636  1.8654
 2704SOL     OW 9353   7.437   1.891   5.484 -0.1363  0.0028  0.6198
 2704SOL    HW1 9354   7.469   1.977   5.457  1.8759 -0.8338  0.2484
 2704SOL    HW2 9355   7.353   1.909   5.527 -1.0868  1.8359 -1.9107
 2705SOL     OW 9356   5.831   1.526   6.978  0.2506  0.6196 -0.2801
 2705SOL    HW1 9357   5.828   1.472   7.057 -0.3696 -0.3296 -0.9429
 2705SOL    HW2 9358   5.835   1.616   7.010 -0.4801  0.2588  0.8301
 2706SOL     OW 9359   1.571   7.209   7.522 -0.0778 -0.1884  0.0079
 2706SOL    HW1 9360   1.493   7.258   7.497  0.9790  1.4883 -0.0649
 2706SOL    HW2 9361   1.615   7.191   7.439  0.6046  0.5782  0.1962
 2707SOL     OW 9362   6.556   4.649   1.751 -0.1481 -0.7590 -0.2627
 2707SOL    HW1 9363   6.501   4.633   1.675  1.0824  0.7482 -1.4930
 2707SOL    HW2 9364   6.498   4.691   1.815 -0.7115 -0.2394 -1.1177
 2708SOL     OW 9365   4.022   7.327   6.657 -0.0940  0.6664 -0.1882
 2708SOL    HW1 9366   4.001   7.411   6.616  2.6366  1.4489 -0.0650
 2708SOL    HW2 9367   4.108   7.304   6.621  0.0068 -1.1800  1.1857
 2709SOL     OW 9368   5.153   4.950   6.172  0.0403 -0.5013  0.2726
 2709SOL    HW1 9369   5.203   4.871   6.192 -0.0123 -0.4775  0.4973
 2709SOL    HW2 9370   5.186   5.016   6.233 -0.2590 -0.4833  0.4151
 2710SOL     OW 9371   5.274   1.717   5.040 -0.1266 -0.0269  0.1079
 2710SOL    HW1 9372   5.189   1.697   5.000 -0.9577 -0.3519  1.9693
 2710SOL    HW2 9373   5.324   1.637   5.030  0.3507  0.4850 -1.8896
 2711SOL     OW 9374   1.351   8.008   8.016  0.3308  0.6829  0.5670
 2711SOL    HW1 9375   1.429   8.003   8.071  1.0988 -0.2277 -0.5725
 2711SOL    HW2 9376   1.380   8.058   7.939  0.5073 -1.6925 -0.9778
 2712SOL     OW 9377   7.040   4.176   1.158 -0.1660  0.6377 -0.0332
 2712SOL    HW1 9378   7.088   4.153   1.238 -0.4148  0.2699  0.0079
 2712SOL    HW2 9379   6.965   4.227   1.190 -0.2558  0.5057 -0.0382
 2713SOL     OW 9380   1.020   6.863   5.244  0.2873 -0.4931  0.2310
 2713SOL    HW1 9381   0.991   6.891   5.157  1.1362 -0.1910  0.0464
 2713SOL    HW2 9382   1.053   6.943   5.285 -1.2801 -0.3660  1.3135
 2714SOL     OW 9383   6.131   7.776   8.143  0.3523  0.2497  0.2167
 2714SOL    HW1 9384   6.127   7.871   8.152 -0.4823  0.0155  2.6764
 2714SOL    HW2 9385   6.049   7.753   8.098  0.6110  0.6809 -0.4956
 2715SOL     OW 9386   1.035   2.140   7.868 -0.5768  0.2702 -0.3574
 2715SOL    HW1 9387   1.115   2.100   7.904 -1.2135 -0.8585 -0.1668
 2715SOL    HW2 9388   1.007   2.202   7.935 -0.7960 -0.5690  0.3452
 2716SOL     OW 9389   7.470   1.064   2.097 -0.1733  0.4647  0.0628
 2716SOL    HW1 9390   7.439   1.124   2.165 -1.8037 -1.0474  0.7123
 2716SOL    HW2 9391   7.565   1.076   2.095 -0.3165  1.9116  1.2648
 2717SOL     OW 9392   5.820   8.192   0.066  0.3837 -0.2837  0.2494
 2717SOL    HW1 9393   5.855   8.216   0.152 -0.9605 -0.2455  0.7882
 2717SOL    HW2 9394   5.848   8.263   0.008  0.3692  0.2331  0.8738
 2718SOL     OW 9395   8.006   6.742   6.714 -0.0822 -0.2156 -0.0609
 2718SOL    HW1 9396   8.047   6.661   6.746  1.0167 -0.7036 -2.5794
 2718SOL    HW2 9397   8.065   6.773   6.645 -1.2832  1.9195 -0.1645
 2719SOL     OW 9398   5.098   7.886   0.894 -0.1829 -0.3519 -0.3781
 2719SOL    HW1 9399   5.009   7.919   0.901  0.3415  0.6617  1.9695
 2719SOL    HW2 9400   5.152   7.964   0.888  0.7492 -0.8951  0.7947
 2720SOL     OW 9401   7.678   2.159   7.354 -0.5029  0.1375  0.1726
 2720SOL    HW1 9402   7.739   2.232   7.341 -0.7778  0.3947  0.3315
 2720SOL    HW2 9403   7.715   2.110   7.428 -0.1357 -0.0802 -0.1486
 2721SOL     OW 9404   7.091   7.307   3.346  0.5936  0.3341 -0.1539
 2721SOL    HW1 9405   7.036   7.244   3.299 -0.0355  1.3676 -0.7979
 2721SOL    HW2 9406   7.160   7.253   3.385  0.5166 -0.6513 -1.3685
 2722SOL     OW 9407   4.756   8.246   3.355 -0.4128  0.4873 -0.8752
 2722SOL    HW1 9408   4.785   8.174   3.411  0.4653  2.0269  0.6844
 2722SOL    HW2 9409   4.660   8.245   3.362 -0.3785 -0.2255 -0.4988
 2723SOL     OW 9410   5.076   7.651   1.005 -0.8265 -0.0963 -0.3714
 2723SOL    HW1 9411   5.090   7.734   0.960 -1.2978 -0.4766 -1.2401
 2723SOL    HW2 9412   5.011   7.605   0.951  1.1584 -2.0099 -1.2359
 2724SOL     OW 9413   5.706   6.601   1.269  0.1293 -0.1958  0.3311
 2724SOL    HW1 9414   5.743   6.523   1.226  1.5174 -0.0456  1.1974
 2724SOL    HW2 9415   5.663   6.567   1.348  1.2900 -0.0497  1.0496
 2725SOL     OW 9416   2.049   0.298   5.185  0.1675 -0.5085  0.2528
 2725SOL    HW1 9417   2.069   0.271   5.275  0.0725 -0.9999  0.1270
 2725SOL    HW2 9418   2.002   0.224   5.148 -1.0486  0.2639  0.2384
 2726SOL     OW 9419   2.319   1.683   1.555 -0.5655  0.0632  0.4071
 2726SOL    HW1 9420   2.378   1.648   1.488  0.1864  2.5568 -0.2718
 2726SOL    HW2 9421   2.231   1.669   1.520 -0.2729 -0.7491 -0.0232
 2727SOL     OW 9422   2.797   3.833   2.014 -0.3485 -0.4727 -0.2521
 2727SOL    HW1 9423   2.828   3.742   2.013  1.0872 -0.0107  0.1322
 2727SOL    HW2 9424   2.787   3.853   2.107 -0.3385 -0.1304 -0.3275
 2728SOL     OW 9425   7.204   3.998   5.354 -0.2956 -0.1943  0.3619
 2728SOL    HW1 9426   7.143   3.994   5.428 -1.3500 -1.9044 -0.5543
 2728SOL    HW2 9427   7.156   4.047   5.287  0.4578  0.9167  0.6388
 2729SOL     OW 9428   2.459   6.343   4.305  0.5754 -0.1837 -0.7254
 2729SOL    HW1 9429   2.518   6.327   4.379  1.4729  1.1764 -1.1348
 2729SOL    HW2 9430   2.382   6.290   4.325  0.1957  1.2560  1.8984
 2730SOL     OW 9431   7.631   2.871   4.473  0.1566  0.5029 -0.2259
 2730SOL    HW1 9432   7.598   2.781   4.463  0.1200  0.6278 -1.3658
 2730SOL    HW2 9433   7.555   2.926   4.455 -0.5791  0.7801  3.3388
 2731SOL     OW 9434   4.945   3.424   1.679 -0.4026 -0.5459  0.4358
 2731SOL    HW1 9435   4.922   3.389   1.765 -0.5783 -1.2906  0.0805
 2731SOL    HW2 9436   4.984   3.350   1.632 -1.0170 -0.3401 -0.4045
 2732SOL     OW 9437   7.691   0.758   6.760  0.0540 -0.2558 -0.3303
 2732SOL    HW1 9438   7.747   0.685   6.786 -0.7649 -1.5075 -1.9665
 2732SOL    HW2 9439   7.608   0.742   6.804 -0.4497 -0.8830 -1.4800
 2733SOL     OW 9440   5.540   5.145   5.714 -0.5677 -0.8169 -0.8163
 2733SOL    HW1 9441   5.456   5.185   5.738  0.6079  1.6881 -0.6402
 2733SOL    HW2 9442   5.533   5.129   5.620 -1.0322 -0.0730 -0.9113
 2734SOL     OW 9443   7.325   4.709   8.206  0.4286  0.3489 -0.0338
 2734SOL    HW1 9444   7.391   4.655   8.163 -0.8979 -2.1322  0.9374
 2734SOL    HW2 9445   7.366   4.736   8.289  0.2163 -1.2250  0.5913
 2735SOL     OW 9446   5.145   3.973   6.206 -0.2396 -0.2140  0.1858
 2735SOL    HW1 9447   5.220   3.960   6.264 -0.3019  0.6831  0.4708
 2735SOL    HW2 9448   5.091   4.038   6.251 -0.7086 -0.1360 -0.4817
 2736SOL     OW 9449   3.491   6.504   1.127 -0.2149  0.2417  0.2841
 2736SOL    HW1 9450   3.433   6.467   1.061  0.9208  0.3787 -0.7959
 2736SOL    HW2 9451   3.443   6.493   1.210 -2.1622  1.1862 -0.7014
 2737SOL     OW 9452   4.056   6.335   2.900 -0.4479 -0.5107 -0.7173
 2737SOL    HW1 9453   4.005   6.254   2.912 -0.9582 -0.5723 -3.0800
 2737SOL    HW2 9454   4.139   6.305   2.864 -0.7051  0.0305 -1.7668
 2738SOL     OW 9455   3.013   7.515   6.518  0.2058  0.0307  0.3102
 2738SOL    HW1 9456   3.049   7.542   6.433 -1.3679  0.7590 -0.1309
 2738SOL    HW2 9457   2.919   7.512   6.505  0.0036 -0.6773  1.8133
 2739SOL     OW 9458   1.017   0.897   0.939  0.2562  0.2394  0.4157
 2739SOL    HW1 9459   0.923   0.877   0.938  0.4403 -0.8022  1.9971
 2739SOL    HW2 9460   1.021   0.990   0.961 -0.4385  0.6715 -1.1965
 2740SOL     OW 9461   6.067   7.585   7.774  0.2623 -0.1140  0.1049
 2740SOL    HW1 9462   6.001   7.626   7.830  0.1909 -1.9885  1.4335
 2740SOL    HW2 9463   6.022   7.572   7.690 -0.4495  0.3605  0.4018
 2741SOL     OW 9464   7.058   4.696   5.481  0.2149  0.4157  0.2211
 2741SOL    HW1 9465   7.087   4.611   5.514  0.0257  0.6855  1.0934
 2741SOL    HW2 9466   7.110   4.759   5.531  0.4261  0.8116 -0.4961
 2742SOL     OW 9467   3.516   4.988   0.699  0.2127 -0.1376  0.1327
 2742SOL    HW1 9468   3.440   4.967   0.754  0.5673  2.2494  1.5906
 2742SOL    HW2 9469   3.480   4.998   0.611 -1.0229  0.0140  0.6389
 2743SOL     OW 9470   5.513   1.885   6.182  0.1627 -0.3283 -0.2825
 2743SOL    HW1 9471   5.586   1.932   6.222 -0.4738  1.8041 -1.5426
 2743SOL    HW2 9472   5.448   1.876   6.253 -0.1078  1.5873 -0.2525
 2744SOL     OW 9473   6.721   5.995   6.724  0.5765  0.2730  0.3806
 2744SOL    HW1 9474   6.775   6.067   6.690 -0.7252  1.3416  0.5387
 2744SOL    HW2 9475   6.716   5.933   6.652 -0.3925  1.5366 -0.6674
 2745SOL     OW 9476   0.604   2.791   4.232  0.1171  0.7033  0.4566
 2745SOL    HW1 9477   0.510   2.795   4.251 -0.3623  0.6802 -1.7654
 2745SOL    HW2 9478   0.636   2.721   4.289 -1.2502  0.5429  1.0696
 2746SOL     OW 9479   5.935   5.318   4.337  0.1506  0.2541  0.2268
 2746SOL    HW1 9480   5.927   5.413   4.331  0.6981  0.3207  0.6431
 2746SOL    HW2 9481   5.885   5.294   4.415  0.4713  0.2499  0.4288
 2747SOL     OW 9482   5.784   2.681   0.552 -0.8236  0.5214  0.3748
 2747SOL    HW1 9483   5.724   2.733   0.606 -1.7984 -1.2505  1.0331
 2747SOL    HW2 9484   5.787   2.596   0.595  1.2186  0.1919 -0.3606
 2748SOL     OW 9485   1.820   5.197   0.699  0.1530  0.0048  0.4132
 2748SOL    HW1 9486   1.850   5.106   0.695  0.2197  0.0993 -1.9793
 2748SOL    HW2 9487   1.889   5.247   0.655 -0.0137  1.1971  1.4715
 2749SOL     OW 9488   3.931   7.323   7.233 -0.0086  0.0128 -0.2797
 2749SOL    HW1 9489   3.889   7.294   7.152  0.8619  2.1460 -1.5643
 2749SOL    HW2 9490   3.860   7.329   7.297 -0.5697 -2.5228 -0.6225
 2750SOL     OW 9491   1.457   1.946   4.036 -0.3330 -0.1273 -0.0974
 2750SOL    HW1 9492   1.386   2.010   4.029 -0.2171  0.1815  1.3666
 2750SOL    HW2 9493   1.421   1.875   4.088  0.2929 -0.1545  0.3101
 2751SOL     OW 9494   2.581   4.559   7.184 -0.4587  0.3634  0.3761
 2751SOL    HW1 9495   2.557   4.642   7.225 -1.5349  0.4135 -0.3455
 2751SOL    HW2 9496   2.669   4.540   7.219 -0.8057  1.0629  1.6735
 2752SOL     OW 9497   0.297   3.138   0.067  0.5466  0.2081 -0.4222
 2752SOL    HW1 9498   0.288   3.187   0.149 -0.0202 -0.1303 -0.2848
 2752SOL    HW2 9499   0.212   3.148   0.024  0.7935  0.2523 -0.8979
 2753SOL     OW 9500   6.200   3.705   0.785  0.6122 -0.2156 -0.2230
 2753SOL    HW1 9501   6.208   3.696   0.691 -1.3130 -1.2533 -0.3119
 2753SOL    HW2 9502   6.121   3.757   0.798 -0.0995 -1.5204  0.8436
 2754SOL     OW 9503   3.710   0.314   3.685  0.7851 -0.6522 -0.4713
 2754SOL    HW1 9504   3.724   0.298   3.592 -1.6950  0.6045 -1.1073
 2754SOL    HW2 9505   3.783   0.370   3.711  0.3180  0.8284 -2.2299
 2755SOL     OW 9506   6.003   7.670   2.372 -0.3132  0.0258  0.0439
 2755SOL    HW1 9507   5.972   7.648   2.460  2.5545 -2.4123  0.5120
 2755SOL    HW2 9508   5.996   7.589   2.323  0.6277  0.6998 -1.2331
 2756SOL     OW 9509   7.586   5.551   4.050 -0.2818  0.0663 -0.0368
 2756SOL    HW1 9510   7.656   5.584   3.993 -0.8803 -0.6052 -1.1915
 2756SOL    HW2 9511   7.586   5.457   4.034 -0.6805 -0.0808  0.8462
 2757SOL     OW 9512   5.065   7.030   4.702  0.3254 -0.1215  0.3284
 2757SOL    HW1 9513   5.147   6.994   4.735  0.7598  0.8635  0.3183
 2757SOL    HW2 9514   5.016   6.953   4.672  0.4856 -0.9001  1.9848
 2758SOL     OW 9515   1.966   5.125   1.867  0.4718 -0.3410 -0.8209
 2758SOL    HW1 9516   1.998   5.138   1.778  1.0877  0.6752 -0.4552
 2758SOL    HW2 9517   2.007   5.194   1.918 -1.0428  0.0027 -0.0270
 2759SOL     OW 9518   1.726   6.521   1.568 -0.0677  0.5508  0.3226
 2759SOL    HW1 9519   1.796   6.457   1.583 -0.4499 -0.2448 -1.1763
 2759SOL    HW2 9520   1.744   6.557   1.481 -2.1074 -0.4498 -0.5529
 2760SOL     OW 9521   0.607   1.416   0.993  0.3282 -0.3406  0.1090
 2760SOL    HW1 9522   0.529   1.413   0.938  0.8928  2.0243 -0.8842
 2760SOL    HW2 9523   0.574   1.400   1.082 -0.7736 -2.7861 -0.7196
 2761SOL     OW 9524   6.374   7.175   0.855  0.2295 -0.3963 -0.5623
 2761SOL    HW1 9525   6.293   7.211   0.818  1.1238  0.7089 -1.4690
 2761SOL    HW2 9526   6.356   7.082   0.866 -1.0320 -0.2268 -1.1158
 2762SOL     OW 9527   0.293   2.675   4.987 -0.3104  0.4449 -0.6405
 2762SOL    HW1 9528   0.279   2.743   5.053  0.7305  1.5383 -1.5234
 2762SOL    HW2 9529   0.342   2.719   4.917  2.1244 -1.6842 -0.3496
 2763SOL     OW 9530   7.145   0.732   0.702  0.0343  0.3731  0.0237
 2763SOL    HW1 9531   7.184   0.645   0.695  1.5137  1.0406 -0.0065
 2763SOL    HW2 9532   7.158   0.756   0.794  1.2041  1.2972 -0.3747
 2764SOL     OW 9533   1.708   3.844   1.999 -0.5161 -0.1722 -0.0226
 2764SOL    HW1 9534   1.712   3.918   2.060 -1.5879 -1.5156  1.6794
 2764SOL    HW2 9535   1.794   3.843   1.957  0.1600  0.8585  1.3269
 2765SOL     OW 9536   3.802   3.903   1.064  0.4022  0.3585 -0.1787
 2765SOL    HW1 9537   3.799   3.819   1.018 -0.5354 -0.5031  1.4079
 2765SOL    HW2 9538   3.888   3.904   1.106  0.4030  0.1770 -0.1756
 2766SOL     OW 9539   5.690   0.774   0.613  0.3563  0.2108  0.5757
 2766SOL    HW1 9540   5.630   0.709   0.650  0.3606 -0.2752 -0.2444
 2766SOL    HW2 9541   5.716   0.829   0.687 -1.3597  0.6352  0.8909
 2767SOL     OW 9542   3.786   5.681   4.332  0.5795 -0.2110 -0.6597
 2767SOL    HW1 9543   3.722   5.623   4.291 -2.8571  1.9647  1.2981
 2767SOL    HW2 9544   3.796   5.647   4.421  2.0060 -0.3747 -0.8679
 2768SOL     OW 9545   2.188   7.562   5.043 -0.8370 -0.5766 -1.2015
 2768SOL    HW1 9546   2.158   7.637   4.991  1.7466  0.0607 -1.8529
 2768SOL    HW2 9547   2.278   7.584   5.067 -1.3994 -1.6442  2.1248
 2769SOL     OW 9548   6.382   2.802   3.713  0.7242  0.0661 -0.1657
 2769SOL    HW1 9549   6.357   2.876   3.768  2.5296  1.4016 -1.0841
 2769SOL    HW2 9550   6.431   2.744   3.772  1.1560  0.6493  0.0512
 2770SOL     OW 9551   2.097   7.501   4.798  0.3248 -0.3953 -0.0260
 2770SOL    HW1 9552   2.190   7.510   4.820  0.2631 -1.1938  0.5998
 2770SOL    HW2 9553   2.085   7.407   4.785 -0.2821 -0.2363 -0.6543
 2771SOL     OW 9554   2.586   7.828   3.324  0.2988  0.3815  0.0811
 2771SOL    HW1 9555   2.503   7.784   3.310 -0.0689  1.1356 -0.1216
 2771SOL    HW2 9556   2.652   7.759   3.312 -0.2977 -0.2751  0.5107
 2772SOL     OW 9557   1.539   1.686   3.962 -0.6818  0.1050  0.1033
 2772SOL    HW1 9558   1.490   1.680   4.044  1.1415 -0.3142  1.2010
 2772SOL    HW2 9559   1.574   1.775   3.961 -0.9670  0.2140 -0.3835
 2773SOL     OW 9560   4.646   1.086   7.047  0.3838  0.0337 -0.5310
 2773SOL    HW1 9561   4.705   1.016   7.075  1.7135  0.4654 -2.2001
 2773SOL    HW2 9562   4.570   1.078   7.106  0.7005 -2.4987 -0.4092
 2774SOL     OW 9563   1.137   4.800   1.541 -0.4512  0.1765  0.1407
 2774SOL    HW1 9564   1.093   4.727   1.586 -0.0573 -0.7610 -0.9774
 2774SOL    HW2 9565   1.211   4.759   1.496 -0.7442  1.1375 -1.2194
 2775SOL     OW 9566   4.283   5.935   5.996  0.0542  0.2542  0.7421
 2775SOL    HW1 9567   4.260   5.842   5.994 -0.5706  0.4237 -0.9615
 2775SOL    HW2 9568   4.204   5.980   5.966  0.6018  1.2770  0.8181
 2776SOL     OW 9569   3.092   6.278   6.004 -0.7412  0.1882 -0.0725
 2776SOL    HW1 9570   3.065   6.306   5.917  0.5138  0.2329 -0.4580
 2776SOL    HW2 9571   3.104   6.183   5.997 -0.7719  0.1719  0.0858
 2777SOL     OW 9572   6.410   1.557   2.074  0.5557  0.8413  0.2931
 2777SOL    HW1 9573   6.463   1.570   2.154  0.7783  0.0608  0.2769
 2777SOL    HW2 9574   6.461   1.495   2.022 -1.0072 -0.9643  0.8688
 2778SOL     OW 9575   6.968   6.132   3.524  0.1377  0.0763 -0.0184
 2778SOL    HW1 9576   6.947   6.063   3.587  0.5892 -0.7405 -0.7493
 2778SOL    HW2 9577   7.046   6.175   3.561 -1.2263  1.4041  1.3669
 2779SOL     OW 9578   2.185   6.765   4.055 -0.0781 -0.0490 -0.3559
 2779SOL    HW1 9579   2.174   6.840   4.113  1.9538  0.0536 -0.0920
 2779SOL    HW2 9580   2.224   6.697   4.109  0.3734 -0.4718 -1.1931
 2780SOL     OW 9581   7.173   7.414   3.727  0.0064  0.3030 -0.0702
 2780SOL    HW1 9582   7.239   7.358   3.686 -0.3812 -0.1866 -0.0323
 2780SOL    HW2 9583   7.182   7.396   3.821  0.0414  0.4875 -0.0371
 2781SOL     OW 9584   6.256   1.761   4.333 -0.0364 -0.5835 -0.3656
 2781SOL    HW1 9585   6.208   1.773   4.251 -0.5139  1.0545  0.1337
 2781SOL    HW2 9586   6.192   1.723   4.393 -0.7248  1.5328  0.2793
 2782SOL     OW 9587   6.307   5.651   7.690  0.6197  0.2504  0.1625
 2782SOL    HW1 9588   6.333   5.674   7.779  1.0446  2.4029 -0.4896
 2782SOL    HW2 9589   6.376   5.688   7.634 -0.2810  0.0111 -1.1354
 2783SOL     OW 9590   6.366   7.835   7.235  0.2873  0.2346 -0.3350
 2783SOL    HW1 9591   6.288   7.801   7.192  1.1505  0.7286 -2.3205
 2783SOL    HW2 9592   6.333   7.880   7.313 -1.1974 -1.4831  0.0535
 2784SOL     OW 9593   1.137   7.151   6.599 -0.7819  0.4693  0.2628
 2784SOL    HW1 9594   1.051   7.160   6.558 -0.5616 -0.3010 -0.3919
 2784SOL    HW2 9595   1.127   7.078   6.660 -0.4608  0.0541 -0.1782
 2785SOL     OW 9596   6.828   1.220   7.041  0.1106 -0.0746 -0.3697
 2785SOL    HW1 9597   6.866   1.306   7.020  3.4282 -1.5598 -0.7965
 2785SOL    HW2 9598   6.798   1.228   7.131  2.5694  0.8565  0.3960
 2786SOL     OW 9599   5.225   1.192   7.540  0.0304  0.1393 -0.0439
 2786SOL    HW1 9600   5.187   1.280   7.548 -0.4583 -0.1571  0.9094
 2786SOL    HW2 9601   5.169   1.137   7.594  2.4061 -0.1430  2.1914
 2787SOL     OW 9602   7.162   4.422   0.054  0.2323 -0.7908  0.1171
 2787SOL    HW1 9603   7.241   4.374   0.031  0.9302  0.6542 -0.6051
 2787SOL    HW2 9604   7.113   4.429  -0.028 -0.2924 -1.0456  0.4058
 2788SOL     OW 9605   1.829   6.513   3.797 -0.8846  0.6284 -0.0261
 2788SOL    HW1 9606   1.797   6.600   3.774  3.4372  2.1768 -0.6221
 2788SOL    HW2 9607   1.901   6.528   3.858  0.8426 -2.4196 -1.1526
 2789SOL     OW 9608   2.594   0.680   1.785  0.3212  0.3477 -0.0828
 2789SOL    HW1 9609   2.659   0.626   1.740  1.8926  1.2923  1.0275
 2789SOL    HW2 9610   2.561   0.624   1.856 -2.1836 -1.1554 -2.3343
 2790SOL     OW 9611   7.874   5.273   6.638 -0.0944 -0.3376  0.1803
 2790SOL    HW1 9612   7.863   5.183   6.668 -0.9139 -0.8516 -1.5954
 2790SOL    HW2 9613   7.950   5.269   6.579 -0.6047 -0.0136 -0.5005
 2791SOL     OW 9614   0.627   7.315   5.123 -0.3746 -0.1241 -0.0266
 2791SOL    HW1 9615   0.579   7.248   5.074  1.5126 -0.6687 -1.1881
 2791SOL    HW2 9616   0.691   7.266   5.174 -0.0960  0.6931  0.4155
 2792SOL     OW 9617   8.169   3.453   4.558  0.5601 -0.3024 -0.0473
 2792SOL    HW1 9618   8.113   3.381   4.528 -0.1947 -0.5161  1.7744
 2792SOL    HW2 9619   8.122   3.532   4.531  0.1204 -0.4930  0.1449
 2793SOL     OW 9620   6.167   2.518   2.568  0.5070  0.2172 -0.4987
 2793SOL    HW1 9621   6.222   2.561   2.634  1.1650 -0.8003 -0.3845
 2793SOL    HW2 9622   6.098   2.582   2.550  0.5976  0.7067  0.8231
 2794SOL     OW 9623   7.097   6.606   0.580 -0.1745  0.2846  0.7131
 2794SOL    HW1 9624   7.038   6.651   0.519 -0.7141  0.1778  1.1451
 2794SOL    HW2 9625   7.183   6.644   0.564  0.1711 -1.4772 -1.8516
 2795SOL     OW 9626   7.854   7.826   7.920 -0.0264  0.5515 -0.9386
 2795SOL    HW1 9627   7.927   7.887   7.926  2.0552 -1.9827  0.5768
 2795SOL    HW2 9628   7.785   7.866   7.974  1.0173  1.9108 -0.5946
 2796SOL     OW 9629   0.756   5.578   4.578  0.1113  0.2195 -0.3773
 2796SOL    HW1 9630   0.797   5.493   4.596 -2.0095 -1.2206 -2.1509
 2796SOL    HW2 9631   0.817   5.622   4.520  0.6358 -0.6003 -0.4562
 2797SOL     OW 9632   7.160   3.778   2.830  0.5160 -0.1760 -0.2453
 2797SOL    HW1 9633   7.237   3.722   2.830  0.4018 -0.3638  1.6929
 2797SOL    HW2 9634   7.104   3.742   2.899 -0.3003  1.3211 -0.1036
 2798SOL     OW 9635   0.008   3.523   1.584 -0.6345  0.0617 -0.1969
 2798SOL    HW1 9636   0.006   3.612   1.619 -1.8562  0.2988 -0.8542
 2798SOL    HW2 9637  -0.050   3.474   1.642 -1.2433  0.0573 -0.8069
 2799SOL     OW 9638   6.242   2.644   5.136  0.7168 -0.0803  0.0498
 2799SOL    HW1 9639   6.291   2.625   5.056 -0.7597  0.9618 -1.1429
 2799SOL    HW2 9640   6.256   2.738   5.150  2.0706 -0.5234  1.7933
 2800SOL     OW 9641   4.316   5.149   3.297 -0.1201 -0.4575 -0.3520
 2800SOL    HW1 9642   4.367   5.141   3.216 -0.1337 -2.2587 -0.2164
 2800SOL    HW2 9643   4.381   5.137   3.367 -0.6411 -2.4795 -0.1771
 2801SOL     OW 9644   1.825   1.316   1.998 -0.3598  0.1054  0.1650
 2801SOL    HW1 9645   1.784   1.289   2.081  0.4824  0.4881  0.7048
 2801SOL    HW2 9646   1.905   1.362   2.024  0.6170 -0.9655 -0.8962
 2802SOL     OW 9647   5.830   7.119   5.106  0.7724  0.2340 -0.1841
 2802SOL    HW1 9648   5.779   7.061   5.049  1.2574  0.8325 -1.2515
 2802SOL    HW2 9649   5.809   7.089   5.195  1.3719 -1.8811 -0.7133
 2803SOL     OW 9650   2.569   3.712   0.406 -0.1418 -0.3432 -0.1761
 2803SOL    HW1 9651   2.645   3.753   0.448 -0.3078  1.1735 -1.3111
 2803SOL    HW2 9652   2.545   3.772   0.336 -1.2948 -1.6997 -0.9767
 2804SOL     OW 9653   2.913   0.607   2.549  0.0594  0.4853  0.1556
 2804SOL    HW1 9654   2.977   0.651   2.605  1.0884  0.6975 -1.1531
 2804SOL    HW2 9655   2.919   0.515   2.575  2.0167  0.2652 -0.9891
 2805SOL     OW 9656   4.289   0.629   7.144  0.0129  0.4683 -0.1510
 2805SOL    HW1 9657   4.256   0.564   7.082  1.2465 -0.1505 -0.1879
 2805SOL    HW2 9658   4.369   0.663   7.102  0.4260  0.6122  0.7365
 2806SOL     OW 9659   0.936   6.681   6.766 -0.0560 -0.2214  0.2868
 2806SOL    HW1 9660   0.912   6.598   6.725 -3.0058 -0.2911  2.0178
 2806SOL    HW2 9661   0.909   6.748   6.703 -0.2470 -0.4868  0.0862
 2807SOL     OW 9662   5.224   5.367   5.737  0.2973  0.1401  0.0613
 2807SOL    HW1 9663   5.131   5.360   5.714  0.1456  2.5927 -0.1772
 2807SOL    HW2 9664   5.270   5.348   5.655 -0.0679  1.3166 -0.4304
 2808SOL     OW 9665   5.629   6.313   1.421 -0.1217  0.0619 -0.0168
 2808SOL    HW1 9666   5.666   6.320   1.333  0.5990 -0.1189  0.2659
 2808SOL    HW2 9667   5.645   6.222   1.446 -0.1628  0.1631  0.3747
 2809SOL     OW 9668   6.412   0.615   3.468  0.5831 -0.3477  0.2421
 2809SOL    HW1 9669   6.455   0.534   3.495  0.4616 -0.5750 -0.2491
 2809SOL    HW2 9670   6.479   0.683   3.479  0.3506 -0.3438  1.6833
 2810SOL     OW 9671   0.535   1.702   1.771 -0.2772 -0.3697  0.2564
 2810SOL    HW1 9672   0.472   1.633   1.752 -0.0172 -0.2493 -1.0723
 2810SOL    HW2 9673   0.620   1.660   1.759 -0.1188  0.3881 -1.3589
 2811SOL     OW 9674   5.332   3.494   2.868 -0.1430 -0.5573  0.2736
 2811SOL    HW1 9675   5.323   3.534   2.781  0.6113  0.1726  0.5270
 2811SOL    HW2 9676   5.426   3.489   2.883 -0.2690 -0.6548  1.0631
 2812SOL     OW 9677   4.858   4.651   2.449 -0.4666 -0.0095 -0.1722
 2812SOL    HW1 9678   4.836   4.708   2.375  1.5276 -0.3015 -1.0357
 2812SOL    HW2 9679   4.890   4.711   2.516 -2.9026  0.3232  0.7466
 2813SOL     OW 9680   5.211   3.420   3.680  0.3585  0.4322 -0.1880
 2813SOL    HW1 9681   5.207   3.484   3.751  0.6905 -0.7853  0.9457
 2813SOL    HW2 9682   5.303   3.396   3.674 -0.1858 -2.3054  1.5706
 2814SOL     OW 9683   2.594   6.840   5.209 -0.1945 -0.5243  0.7438
 2814SOL    HW1 9684   2.593   6.877   5.120 -0.5712  0.3731  1.1221
 2814SOL    HW2 9685   2.501   6.827   5.231 -0.1501  0.4324  1.4982
 2815SOL     OW 9686   2.494   2.182   3.700  0.4787  0.0677  0.1435
 2815SOL    HW1 9687   2.588   2.197   3.695  0.5652 -0.2788  0.7014
 2815SOL    HW2 9688   2.467   2.170   3.609  1.1903 -1.1136  0.0716
 2816SOL     OW 9689   5.339   4.449   6.181  0.1258  0.5396 -0.6672
 2816SOL    HW1 9690   5.428   4.425   6.153  0.3882 -0.0350  0.6409
 2816SOL    HW2 9691   5.282   4.393   6.128  0.5449  0.6218 -1.2237
 2817SOL     OW 9692   1.415   5.590   6.248 -0.3526  0.1249 -0.1631
 2817SOL    HW1 9693   1.427   5.649   6.174  0.6883  0.1547  0.0231
 2817SOL    HW2 9694   1.344   5.532   6.221  0.8047 -0.6259 -1.6708
 2818SOL     OW 9695   0.748   5.413   5.474  0.6285 -0.0264 -0.4866
 2818SOL    HW1 9696   0.800   5.333   5.471  1.0077  0.1507  1.0731
 2818SOL    HW2 9697   0.813   5.484   5.473  0.4819  0.1918  1.6732
 2819SOL     OW 9698   2.792   4.624   2.690 -0.0612  0.0298  0.2596
 2819SOL    HW1 9699   2.703   4.658   2.682 -0.1923 -0.5336 -0.7635
 2819SOL    HW2 9700   2.815   4.594   2.601  1.0002 -0.1785  0.5916
 2820SOL     OW 9701   2.252   8.203   3.709 -0.0856  0.1639  0.0500
 2820SOL    HW1 9702   2.216   8.141   3.646 -1.1322 -0.4951  1.2885
 2820SOL    HW2 9703   2.322   8.248   3.660 -0.9180 -0.2801 -1.5885
 2821SOL     OW 9704   3.671   2.366   4.249 -0.3106  0.5857  0.4926
 2821SOL    HW1 9705   3.665   2.288   4.304 -0.6676 -0.1826 -0.6244
 2821SOL    HW2 9706   3.700   2.333   4.164 -0.9674  1.5952 -0.1315
 2822SOL     OW 9707   7.207   1.412   1.515  0.3900 -0.5015 -0.1437
 2822SOL    HW1 9708   7.145   1.356   1.468  1.0653 -0.6682 -0.8497
 2822SOL    HW2 9709   7.156   1.490   1.538  0.0550 -0.4045 -1.1878
 2823SOL     OW 9710   5.095   1.570   6.220  0.1124 -0.4028  0.3682
 2823SOL    HW1 9711   5.020   1.560   6.161 -0.1072 -0.6222  0.6862
 2823SOL    HW2 9712   5.059   1.612   6.298  0.4240 -0.0182  0.3088
 2824SOL     OW 9713   2.619   8.231   3.389 -0.1135 -0.5811  0.4164
 2824SOL    HW1 9714   2.712   8.219   3.407  0.1468 -0.1388 -0.6062
 2824SOL    HW2 9715   2.576   8.158   3.435  0.7474 -0.8935  0.7324
 2825SOL     OW 9716   8.261   3.265   5.235  0.7084  0.2583 -0.2966
 2825SOL    HW1 9717   8.228   3.246   5.322 -0.7244 -1.3123 -1.1396
 2825SOL    HW2 9718   8.310   3.187   5.211 -0.3499 -0.0513 -1.5418
 2826SOL     OW 9719   6.569   4.467   0.203 -0.3635 -0.2502  0.5056
 2826SOL    HW1 9720   6.646   4.507   0.243 -1.1112  1.5089  0.2374
 2826SOL    HW2 9721   6.580   4.484   0.109  0.2634 -2.3891  0.1516
 2827SOL     OW 9722   4.966   3.641   4.612 -0.4075  0.1218 -0.5303
 2827SOL    HW1 9723   4.932   3.571   4.556  0.4679 -0.2075 -0.6458
 2827SOL    HW2 9724   4.988   3.712   4.551  0.4566 -0.2010 -0.5911
 2828SOL     OW 9725   2.692   1.406   7.291 -0.1842  0.7844  0.1214
 2828SOL    HW1 9726   2.599   1.386   7.304 -0.7929  3.0910 -0.3597
 2828SOL    HW2 9727   2.714   1.464   7.363  1.0385 -0.1667  0.5232
 2829SOL     OW 9728   7.321   1.295   0.553  0.2693  0.0029  0.0702
 2829SOL    HW1 9729   7.258   1.354   0.512  0.6020 -0.9771 -1.8654
 2829SOL    HW2 9730   7.337   1.334   0.639 -2.0534  0.9108  0.1219
 2830SOL     OW 9731   7.899   3.731   5.638  0.1756 -0.3528 -0.0835
 2830SOL    HW1 9732   7.899   3.729   5.543 -1.2303 -2.3295 -0.0600
 2830SOL    HW2 9733   7.972   3.674   5.664 -0.5530 -1.2486  0.0240
 2831SOL     OW 9734   4.775   4.722   8.235 -0.4798  0.2527  0.7812
 2831SOL    HW1 9735   4.847   4.758   8.184 -0.7566 -0.5783 -0.2401
 2831SOL    HW2 9736   4.812   4.702   8.321  0.1881  0.9789  0.6564
 2832SOL     OW 9737   1.535   7.545   1.053  0.2786  0.2279  0.1370
 2832SOL    HW1 9738   1.549   7.598   1.132 -0.3248  0.3042  0.1959
 2832SOL    HW2 9739   1.618   7.501   1.038 -0.0659 -0.9798  1.7026
 2833SOL     OW 9740   2.464   6.273   1.066  0.0729  0.2846  0.3045
 2833SOL    HW1 9741   2.433   6.222   0.991  1.1370 -0.5984  0.4447
 2833SOL    HW2 9742   2.550   6.306   1.039 -0.1443  1.1110  0.6197
 2834SOL     OW 9743   5.539   6.831   8.188 -0.0880 -0.5189  0.2600
 2834SOL    HW1 9744   5.540   6.881   8.270 -0.7094  1.0339 -0.6546
 2834SOL    HW2 9745   5.545   6.739   8.216 -2.3852 -0.1401  2.1436
 2835SOL     OW 9746   1.285   2.678   4.070 -0.1871 -0.3284  0.0151
 2835SOL    HW1 9747   1.316   2.748   4.012  0.4912  0.3996  1.2269
 2835SOL    HW2 9748   1.191   2.674   4.054 -0.2925  1.1370  0.1956
 2836SOL     OW 9749   3.242   4.971   1.587 -0.6315  0.1180 -0.3825
 2836SOL    HW1 9750   3.211   4.996   1.674  0.2165  1.6600 -0.5120
 2836SOL    HW2 9751   3.333   4.946   1.600 -0.3298  0.9147 -0.9062
 2837SOL     OW 9752   6.506   1.400   3.725 -0.1688  0.3214  0.6003
 2837SOL    HW1 9753   6.596   1.377   3.751 -0.1414 -1.0466 -0.6188
 2837SOL    HW2 9754   6.504   1.386   3.630 -1.3508  1.4850  0.4337
 2838SOL     OW 9755   1.487   2.037   1.871 -0.1843  0.2673  0.4668
 2838SOL    HW1 9756   1.458   1.946   1.861 -2.1769  1.1168 -1.7998
 2838SOL    HW2 9757   1.582   2.030   1.880 -0.2656 -2.0086 -0.0262
 2839SOL     OW 9758   1.531   2.449   5.313  0.1171 -0.2051  0.2754
 2839SOL    HW1 9759   1.565   2.467   5.226 -0.4993 -1.0377 -0.1434
 2839SOL    HW2 9760   1.591   2.385   5.350 -1.0213 -1.7571 -0.5054
 2840SOL     OW 9761   0.724   1.100   2.926 -0.4611  0.4010  0.2176
 2840SOL    HW1 9762   0.629   1.090   2.929 -0.5873  1.5221  0.2649
 2840SOL    HW2 9763   0.758   1.011   2.926 -1.5205 -0.0070  0.0042
 2841SOL     OW 9764   0.122   7.692   3.902  0.3914  0.3076 -0.3789
 2841SOL    HW1 9765   0.050   7.697   3.965  0.8098  1.0195  0.0473
 2841SOL    HW2 9766   0.080   7.697   3.817 -0.0386  1.2417 -0.1244
 2842SOL     OW 9767   0.462   5.428   5.469 -0.1141  0.3194 -0.6816
 2842SOL    HW1 9768   0.480   5.522   5.479  1.1086  0.1579 -1.3033
 2842SOL    HW2 9769   0.547   5.389   5.451 -0.1978 -1.2793  2.0938
 2843SOL     OW 9770   7.906   7.406   3.746  0.1634 -0.8716 -0.4178
 2843SOL    HW1 9771   7.891   7.487   3.796 -0.7753 -1.2471 -0.0816
 2843SOL    HW2 9772   7.881   7.336   3.806  1.7325 -1.4614 -0.4292
 2844SOL     OW 9773   6.493   4.105   3.951  0.0607 -0.0850  0.3518
 2844SOL    HW1 9774   6.464   4.045   3.882 -0.3155 -0.6017  0.9631
 2844SOL    HW2 9775   6.569   4.062   3.990 -0.8373 -0.6784  1.4900
 2845SOL     OW 9776   3.871   5.535   1.069 -0.0832  0.3725  0.0778
 2845SOL    HW1 9777   3.818   5.458   1.092 -0.0700  0.9999  2.3405
 2845SOL    HW2 9778   3.939   5.501   1.010 -0.0240 -1.3822  1.1225
 2846SOL     OW 9779   8.089   7.064   6.976 -0.5373 -0.3956  0.3183
 2846SOL    HW1 9780   7.998   7.087   6.959  0.1344  2.0930 -0.1082
 2846SOL    HW2 9781   8.089   7.033   7.066 -1.7657 -0.1066  0.4280
 2847SOL     OW 9782   4.214   3.324   8.097 -0.2320  0.2854 -0.4785
 2847SOL    HW1 9783   4.169   3.398   8.057 -1.1454  0.6587  1.2090
 2847SOL    HW2 9784   4.289   3.308   8.039 -0.3433  2.1575 -1.1693
 2848SOL     OW 9785   1.998   1.108   2.156 -0.4836  0.1921  0.5844
 2848SOL    HW1 9786   1.943   1.034   2.180  0.1578  0.1453  1.9406
 2848SOL    HW2 9787   2.006   1.101   2.060 -1.7594 -0.5348  0.5194
 2849SOL     OW 9788   8.207   6.428   5.085 -0.4091  0.1193 -0.3254
 2849SOL    HW1 9789   8.285   6.481   5.100 -0.4616 -0.2276  1.2308
 2849SOL    HW2 9790   8.240   6.350   5.041  0.1671 -0.1410  0.5538
 2850SOL     OW 9791   7.838   6.786   1.440 -0.3092 -0.5804 -0.2530
 2850SOL    HW1 9792   7.795   6.872   1.447  1.1366  0.1410 -0.0445
 2850SOL    HW2 9793   7.775   6.732   1.393 -2.9002 -0.5239  3.0221
 2851SOL     OW 9794   1.023   7.472   3.886 -0.0721 -0.1145 -0.1482
 2851SOL    HW1 9795   1.032   7.562   3.918 -0.2927 -0.2390  0.2748
 2851SOL    HW2 9796   1.027   7.419   3.965 -0.2293 -0.4575 -0.3716
 2852SOL     OW 9797   1.727   6.717   2.070 -0.1979 -0.0782  0.0004
 2852SOL    HW1 9798   1.735   6.809   2.047 -0.9743 -0.1595 -0.6454
 2852SOL    HW2 9799   1.767   6.709   2.157 -1.3592  1.1404  0.6682
 2853SOL     OW 9800   2.135   3.337   7.648  0.0221 -0.4630  0.2197
 2853SOL    HW1 9801   2.064   3.341   7.584 -0.5106  2.0155  0.9135
 2853SOL    HW2 9802   2.091   3.331   7.733  0.6411  0.1084  0.5856
 2854SOL     OW 9803   3.100   4.135   6.070 -0.5333  0.4229  0.5083
 2854SOL    HW1 9804   3.179   4.147   6.017 -0.3257 -1.4073  0.3649
 2854SOL    HW2 9805   3.134   4.128   6.160 -0.6092  0.4918  0.5417
 2855SOL     OW 9806   5.608   5.854   5.164  0.1067 -0.0738  0.5742
 2855SOL    HW1 9807   5.681   5.914   5.152 -0.7901  0.9292  0.0204
 2855SOL    HW2 9808   5.639   5.771   5.130  0.8074  0.4842 -0.1582
 2856SOL     OW 9809   7.447   4.894   4.657 -0.0035 -0.1378 -0.3417
 2856SOL    HW1 9810   7.485   4.978   4.683 -0.7297 -0.3661  1.5949
 2856SOL    HW2 9811   7.391   4.915   4.583 -0.2328  1.1264  0.1731
 2857SOL     OW 9812   2.743   4.201   0.627 -0.0972  0.5848  0.0659
 2857SOL    HW1 9813   2.656   4.188   0.591 -0.0575  0.1103  0.1385
 2857SOL    HW2 9814   2.777   4.112   0.641  0.6299  0.7561 -0.5325
 2858SOL     OW 9815   3.246   6.069   6.123  0.0122 -0.0056  0.5035
 2858SOL    HW1 9816   3.335   6.090   6.150  0.9371 -1.6595 -1.1506
 2858SOL    HW2 9817   3.255   6.039   6.033 -1.8857 -2.6448  1.1487
 2859SOL     OW 9818   4.446   4.845   4.485  0.5643  0.1462 -0.3296
 2859SOL    HW1 9819   4.395   4.914   4.527  2.8167  1.4545  0.3325
 2859SOL    HW2 9820   4.416   4.845   4.394  0.4852  1.9395 -0.3074
 2860SOL     OW 9821   2.571   7.244   7.421 -0.3287  0.0046  0.1133
 2860SOL    HW1 9822   2.626   7.173   7.453 -1.6308 -0.9295  0.2553
 2860SOL    HW2 9823   2.608   7.323   7.462  2.2095 -0.3211 -1.4028
 2861SOL     OW 9824   1.773   4.718   5.782 -0.1960 -0.0628  0.3061
 2861SOL    HW1 9825   1.823   4.673   5.850  1.2434  1.0782  0.0030
 2861SOL    HW2 9826   1.704   4.655   5.759 -1.0340 -0.2575  3.1700
 2862SOL     OW 9827   0.255   6.590   0.004  0.5329 -0.1917 -0.3406
 2862SOL    HW1 9828   0.195   6.665  -0.000  0.7332  0.0800  1.2654
 2862SOL    HW2 9829   0.334   6.620  -0.041  0.6799  0.6442  0.4504
 2863SOL     OW 9830   5.612   1.203   6.258 -0.2564  0.1158  0.0529
 2863SOL    HW1 9831   5.637   1.112   6.242 -1.5603 -0.4254  0.9869
 2863SOL    HW2 9832   5.551   1.198   6.332  0.7918  1.8950  1.0526
 2864SOL     OW 9833   5.437   8.178   6.070  0.4488 -0.2779  0.0660
 2864SOL    HW1 9834   5.384   8.099   6.054  1.2957 -0.7223 -0.5751
 2864SOL    HW2 9835   5.411   8.207   6.157 -0.0703 -1.1087  0.1933
 2865SOL     OW 9836   1.031   5.403   0.505  0.3328 -0.2957 -0.6039
 2865SOL    HW1 9837   0.974   5.476   0.530  1.8886  0.9372 -0.5950
 2865SOL    HW2 9838   0.970   5.336   0.473 -1.2340  0.4163  0.7753
 2866SOL     OW 9839   2.438   2.166   6.242 -0.3758 -0.0497  0.3346
 2866SOL    HW1 9840   2.358   2.169   6.294 -0.3391  0.0987  0.3837
 2866SOL    HW2 9841   2.435   2.081   6.198 -0.6935  0.0614  0.1312
 2867SOL     OW 9842   2.937   7.671   2.045  0.4678 -0.6053  0.6619
 2867SOL    HW1 9843   2.868   7.609   2.069  2.0006 -2.1039  1.3437
 2867SOL    HW2 9844   3.018   7.625   2.066  1.6491  1.9262  1.9388
 2868SOL     OW 9845   3.572   6.016   7.023 -0.3547  0.2708  0.2373
 2868SOL    HW1 9846   3.606   6.019   6.934 -1.9770  0.5288 -0.3900
 2868SOL    HW2 9847   3.485   5.976   7.014  0.1334 -1.2634  1.9084
 2869SOL     OW 9848   3.072   4.835   3.380  0.5147  0.7414 -0.6633
 2869SOL    HW1 9849   3.036   4.922   3.363  0.4243  0.5527 -1.4892
 2869SOL    HW2 9850   3.161   4.838   3.344  0.3984  0.3972 -0.9860
 2870SOL     OW 9851   5.671   2.610   5.851 -0.3520  0.1246 -0.2583
 2870SOL    HW1 9852   5.636   2.614   5.939  0.3353  0.5389  0.0008
 2870SOL    HW2 9853   5.596   2.587   5.796 -0.8600  0.2611  0.3745
 2871SOL     OW 9854   0.022   5.605   3.127  0.1310  0.0923 -0.2356
 2871SOL    HW1 9855  -0.069   5.579   3.122 -0.1072  0.7089  0.6907
 2871SOL    HW2 9856   0.070   5.524   3.145 -0.2155 -0.2475 -0.8386
 2872SOL     OW 9857   3.837   2.420   1.975  0.4385 -0.1074 -0.3253
 2872SOL    HW1 9858   3.877   2.368   1.906  0.3954 -0.7785  0.1530
 2872SOL    HW2 9859   3.748   2.385   1.984  1.2028 -1.6668  1.7135
 2873SOL     OW 9860   0.120   7.416   4.921  0.1616  0.3145  0.1955
 2873SOL    HW1 9861   0.164   7.502   4.921 -0.8437  0.8349  0.6907
 2873SOL    HW2 9862   0.133   7.383   5.010 -0.4573  0.4794  0.3506
 2874SOL     OW 9863   0.522   4.493   8.054 -0.5471  0.2074 -0.0913
 2874SOL    HW1 9864   0.524   4.551   7.977  0.6528  1.7756  1.0799
 2874SOL    HW2 9865   0.504   4.551   8.128  0.6494 -0.9068  1.1082
 2875SOL     OW 9866   0.751   8.269   3.876  0.0358  0.3569  0.1713
 2875SOL    HW1 9867   0.828   8.239   3.828 -1.0288 -0.3092 -1.1447
 2875SOL    HW2 9868   0.707   8.330   3.816  0.6751  2.4357  1.7377
 2876SOL     OW 9869   0.140   5.897   5.859  0.5168  0.4343  0.2676
 2876SOL    HW1 9870   0.134   5.812   5.903  2.2576  0.8246  1.2807
 2876SOL    HW2 9871   0.107   5.959   5.924 -0.3224  0.6027 -0.3081
 2877SOL     OW 9872   2.514   0.696   3.975  0.3296  0.2488  0.0146
 2877SOL    HW1 9873   2.550   0.623   3.926 -0.9359 -0.2497 -0.1966
 2877SOL    HW2 9874   2.574   0.708   4.048  1.4110  0.0328 -0.8342
 2878SOL     OW 9875   2.367   5.327   4.590  0.5721  0.1015  0.2416
 2878SOL    HW1 9876   2.309   5.259   4.624 -0.7353  0.6082 -0.8920
 2878SOL    HW2 9877   2.349   5.403   4.644  2.7128 -0.6767  2.1145
 2879SOL     OW 9878   6.868   1.554   7.539  0.4527  0.5247  0.0881
 2879SOL    HW1 9879   6.850   1.640   7.502 -0.8850  0.5157  0.6630
 2879SOL    HW2 9880   6.933   1.516   7.481  0.4880  1.6255 -0.6137
 2880SOL     OW 9881   3.629   2.301   7.608  0.0755 -0.0866  0.5467
 2880SOL    HW1 9882   3.675   2.378   7.642 -0.8721  0.0181  1.5919
 2880SOL    HW2 9883   3.584   2.332   7.530  2.2375 -0.3252 -0.8582
 2881SOL     OW 9884   2.490   6.472   0.286 -0.2387  0.1500  0.2810
 2881SOL    HW1 9885   2.462   6.524   0.211  1.1534 -1.0630 -1.1115
 2881SOL    HW2 9886   2.423   6.489   0.353 -2.0852  0.4327 -1.5754
 2882SOL     OW 9887   5.462   2.813   4.298 -0.2385  0.2974  0.2326
 2882SOL    HW1 9888   5.397   2.873   4.336  0.8772  0.8844  1.2452
 2882SOL    HW2 9889   5.514   2.785   4.373  1.3726  0.6907 -0.7220
 2883SOL     OW 9890   6.572   6.688   1.145 -0.2815 -0.2163 -0.2354
 2883SOL    HW1 9891   6.641   6.751   1.122  0.1324 -0.8779 -0.8372
 2883SOL    HW2 9892   6.620   6.607   1.166 -0.7826 -0.2161  0.9265
 2884SOL     OW 9893   3.489   1.974   5.691 -0.0226 -0.4866 -0.3422
 2884SOL    HW1 9894   3.583   1.968   5.674 -0.1374 -2.8913 -0.3344
 2884SOL    HW2 9895   3.447   1.952   5.608 -0.5942 -0.0373 -0.1809
 2885SOL     OW 9896   1.154   3.670   7.363 -0.4644  0.2142  0.0954
 2885SOL    HW1 9897   1.176   3.733   7.295  0.1954  0.2901  0.3749
 2885SOL    HW2 9898   1.238   3.632   7.388 -0.9006 -1.1237 -0.4193
 2886SOL     OW 9899   6.420   6.018   0.186  0.2213 -0.7663  0.3524
 2886SOL    HW1 9900   6.493   6.068   0.221 -0.8035  0.5590  0.6497
 2886SOL    HW2 9901   6.439   5.927   0.209  1.3271 -0.3239  1.2000
 2887SOL     OW 9902   6.722   6.357   5.527 -0.4819  0.0303  0.3675
 2887SOL    HW1 9903   6.741   6.265   5.541 -0.9531 -0.0611  0.4340
 2887SOL    HW2 9904   6.770   6.403   5.596 -0.4144 -0.1841  0.4622
 2888SOL     OW 9905   1.029   1.977   0.966  0.2697  0.3047  0.2925
 2888SOL    HW1 9906   0.959   1.932   0.919  0.0437  1.6545 -0.7138
 2888SOL    HW2 9907   1.094   1.910   0.984  0.0703 -0.3533 -1.4216
 2889SOL     OW 9908   5.941   5.223   0.546  0.6988  0.5943  0.7238
 2889SOL    HW1 9909   6.002   5.240   0.618  2.2555  1.5928 -0.7943
 2889SOL    HW2 9910   5.997   5.201   0.472 -0.8323  0.5875 -0.4516
 2890SOL     OW 9911   7.605   4.140   7.709  0.2239  0.1080 -0.0580
 2890SOL    HW1 9912   7.609   4.083   7.632  1.1879  1.5960 -1.1425
 2890SOL    HW2 9913   7.513   4.141   7.733 -0.0152 -0.7774 -0.8842
 2891SOL     OW 9914   5.587   7.969   7.628  0.3413 -0.4224 -0.0014
 2891SOL    HW1 9915   5.496   7.938   7.626 -0.0181  0.5695  0.9567
 2891SOL    HW2 9916   5.608   7.984   7.536 -0.8043  0.3234 -0.1531
 2892SOL     OW 9917   7.981   4.754   5.308 -0.2214 -0.2700 -0.5080
 2892SOL    HW1 9918   7.970   4.845   5.337 -1.2298 -0.9822  1.4155
 2892SOL    HW2 9919   7.892   4.723   5.292  0.1200 -0.9570 -1.1052
 2893SOL     OW 9920   5.389   7.356   1.564  0.7278 -0.1403  0.7372
 2893SOL    HW1 9921   5.361   7.345   1.474  1.6908 -1.3161  0.5632
 2893SOL    HW2 9922   5.472   7.403   1.558  2.8515 -3.7018  0.7125
 2894SOL     OW 9923   5.189   5.874   5.470  0.1411  0.2417  0.2526
 2894SOL    HW1 9924   5.146   5.945   5.423  1.9073  0.2194 -1.4519
 2894SOL    HW2 9925   5.279   5.874   5.437  0.5727 -1.8149  1.3405
 2895SOL     OW 9926   6.421   5.292   2.864 -0.3811  0.0872 -0.7755
 2895SOL    HW1 9927   6.460   5.211   2.896  0.3750  0.9461  0.5479
 2895SOL    HW2 9928   6.496   5.346   2.838 -0.7584  1.1542  0.3125
 2896SOL     OW 9929   3.931   6.959   6.224 -0.0138 -0.5942 -0.5741
 2896SOL    HW1 9930   3.990   6.998   6.289 -1.4376 -0.9193  0.9301
 2896SOL    HW2 9931   3.968   6.986   6.140  1.4642  0.4112  0.3651
 2897SOL     OW 9932   2.434   2.624   0.557  0.5635  0.1301 -0.0986
 2897SOL    HW1 9933   2.508   2.583   0.513 -0.2101  2.5802 -3.8869
 2897SOL    HW2 9934   2.357   2.593   0.508 -0.6567  0.0382  1.8351
 2898SOL     OW 9935   1.217   2.175   2.980 -0.1033 -0.5498  0.2568
 2898SOL    HW1 9936   1.205   2.261   2.939 -0.7276 -0.8893 -0.2959
 2898SOL    HW2 9937   1.212   2.192   3.074 -2.3464 -0.2714  0.1138
 2899SOL     OW 9938   3.848   7.146   6.580  0.0838  0.0142 -0.2993
 2899SOL    HW1 9939   3.908   7.210   6.618 -1.2182  1.1492 -0.1287
 2899SOL    HW2 9940   3.827   7.087   6.653 -0.1260  0.4514 -0.0087
 2900SOL     OW 9941   1.905   4.620   6.018 -0.5468 -0.0689 -0.4043
 2900SOL    HW1 9942   1.922   4.578   6.102 -1.8429  2.0764  0.9746
 2900SOL    HW2 9943   1.949   4.705   6.024 -0.9394  0.2485 -1.7793
 2901SOL     OW 9944   6.313   2.427   3.885  0.6794  0.2046  0.0433
 2901SOL    HW1 9945   6.296   2.497   3.947 -1.1882 -1.3705  1.3676
 2901SOL    HW2 9946   6.391   2.383   3.919  1.2822  1.0068 -0.2696
 2902SOL     OW 9947   1.010   7.333   5.115 -0.0383  1.2489  0.0173
 2902SOL    HW1 9948   1.094   7.378   5.108  0.4161  0.3358 -0.5389
 2902SOL    HW2 9949   0.970   7.368   5.195  0.8470  1.7197  0.2532
 2903SOL     OW 9950   1.669   2.907   4.429 -0.0797 -0.0882  0.3582
 2903SOL    HW1 9951   1.740   2.965   4.456 -0.1681 -0.0104  0.4254
 2903SOL    HW2 9952   1.675   2.903   4.334 -0.8047  0.9838  0.2563
 2904SOL     OW 9953   4.295   0.143   0.276 -0.0900 -0.5735  0.1758
 2904SOL    HW1 9954   4.353   0.129   0.201  1.2977  1.9204  0.7040
 2904SOL    HW2 9955   4.207   0.133   0.241  0.5871 -2.6058 -1.0636
 2905SOL     OW 9956   0.931   5.499   3.199  0.1654  0.5920  0.3824
 2905SOL    HW1 9957   0.968   5.578   3.159  0.3343  0.6850  0.7191
 2905SOL    HW2 9958   0.837   5.517   3.205  0.1114  0.4937 -0.1645
 2906SOL     OW 9959   0.570   5.602   5.850 -0.2241 -0.2578  0.2286
 2906SOL    HW1 9960   0.523   5.529   5.888  1.4439 -1.6415 -0.2904
 2906SOL    HW2 9961   0.547   5.677   5.906 -3.8385 -0.6094 -0.6672
 2907SOL     OW 9962   1.392   3.181   2.569 -1.0433  0.9956  0.3909
 2907SOL    HW1 9963   1.322   3.214   2.512  0.0576  2.2927 -0.2388
 2907SOL    HW2 9964   1.376   3.221   2.654 -2.0513 -0.0755  0.7216
 2908SOL     OW 9965   2.519   4.867   7.029  0.1820 -0.0242  0.3097
 2908SOL    HW1 9966   2.564   4.843   6.948 -0.4640 -0.9175  0.2127
 2908SOL    HW2 9967   2.589   4.891   7.089  0.7508 -0.8074 -0.0382
 2909SOL     OW 9968   0.135   0.872   1.780  0.0600 -0.6119 -0.0810
 2909SOL    HW1 9969   0.100   0.864   1.691 -1.3960  2.6913  0.1242
 2909SOL    HW2 9970   0.230   0.874   1.768  0.0008 -2.9208 -1.2649
 2910SOL     OW 9971   2.863   1.617   3.099  0.8300  0.6541  0.2565
 2910SOL    HW1 9972   2.798   1.556   3.133 -0.1078  0.8906 -1.0901
 2910SOL    HW2 9973   2.916   1.564   3.040 -1.1325  1.5200 -2.3505
 2911SOL     OW 9974   5.254   7.779   0.082 -0.3294 -0.5586  0.3015
 2911SOL    HW1 9975   5.250   7.738  -0.004  0.9006  0.3813 -0.2146
 2911SOL    HW2 9976   5.166   7.767   0.118 -2.7578  4.1286 -3.4347
 2912SOL     OW 9977   3.403   7.961   0.073 -0.4009 -0.1641 -0.1735
 2912SOL    HW1 9978   3.468   7.909   0.120  0.2031  1.0837  0.3917
 2912SOL    HW2 9979   3.321   7.946   0.120  0.2413  1.2555  1.4478
 2913SOL     OW 9980   0.933   1.519   8.182 -0.7934  0.6676 -0.5661
 2913SOL    HW1 9981   0.863   1.537   8.119 -1.3035  0.0069 -0.1931
 2913SOL    HW2 9982   0.912   1.433   8.218  0.1276  0.5343 -0.3339
 2914SOL     OW 9983   5.938   3.292   6.075  0.2533 -0.2373 -0.5253
 2914SOL    HW1 9984   5.846   3.319   6.073  0.4597  0.5577  0.3162
 2914SOL    HW2 9985   5.986   3.371   6.100  1.0415 -0.9756  0.3346
 2915SOL     OW 9986   4.275   0.400   7.785 -0.0060 -0.3289 -0.1555
 2915SOL    HW1 9987   4.260   0.480   7.734 -0.7423 -0.9422 -0.9072
 2915SOL    HW2 9988   4.206   0.400   7.852  0.4061  0.0046  0.2751
 2916SOL     OW 9989   0.568   7.640   4.552 -0.6660  0.2521  0.4897
 2916SOL    HW1 9990   0.631   7.569   4.554 -0.4109  0.4959  1.4828
 2916SOL    HW2 9991   0.551   7.660   4.645 -1.2531  1.0165  0.2268
 2917SOL     OW 9992   0.779   7.589   5.139 -0.8793 -0.2754  0.2554
 2917SOL    HW1 9993   0.767   7.621   5.228  1.2601 -1.7631  1.1284
 2917SOL    HW2 9994   0.874   7.590   5.126 -1.1676 -0.1238 -1.9939
 2918SOL     OW 9995   4.714   7.539   5.696 -0.1094 -0.8732 -0.1880
 2918SOL    HW1 9996   4.742   7.620   5.739 -1.4893  0.4564 -1.6930
 2918SOL    HW2 9997   4.763   7.537   5.614 -1.9898 -0.1931 -1.3512
 2919SOL     OW 9998   0.829   2.368   1.180 -0.0876  0.4614  0.4672
 2919SOL    HW1 9999   0.766   2.430   1.218 -2.1811 -1.8219  0.8208
 2919SOL    HW210000   0.836   2.298   1.246  0.7732 -0.6372 -0.7743
 2920SOL     OW10001   6.625   7.242   7.783  0.0043  0.1463  0.6894
 2920SOL    HW110002   6.656   7.200   7.703 -1.5715  0.5664 -0.1498
 2920SOL    HW210003   6.553   7.298   7.755  0.0800  1.0572  2.2575
 2921SOL     OW10004   1.149   5.521   7.475 -0.0937  0.4105  0.1320
 2921SOL    HW110005   1.171   5.439   7.431  0.4045  0.4152  0.3650
 2921SOL    HW210006   1.054   5.519   7.484 -0.0224 -0.4604  0.7465
 2922SOL     OW10007   1.907   4.344   2.764 -0.2808  0.1133  0.0215
 2922SOL    HW110008   1.851   4.406   2.717 -1.4205 -1.2955 -0.5213
 2922SOL    HW210009   1.988   4.342   2.713 -0.5099  0.5872 -0.3707
 2923SOL     OW10010   0.940   3.591   2.468 -0.2478  0.0425  0.0507
 2923SOL    HW110011   0.919   3.576   2.560 -0.2432 -0.0053  0.0444
 2923SOL    HW210012   0.915   3.682   2.452 -0.5600 -0.0476  0.0130
 2924SOL     OW10013   7.108   4.883   7.544 -0.1527  0.3648 -0.0308
 2924SOL    HW110014   7.108   4.935   7.464  0.4519  1.5490  0.7246
 2924SOL    HW210015   7.069   4.940   7.610 -0.3160 -0.4743  0.6116
 2925SOL     OW10016   7.685   5.258   5.044 -0.2017 -0.0332 -0.3255
 2925SOL    HW110017   7.695   5.170   5.080 -1.2596 -0.7448 -1.7122
 2925SOL    HW210018   7.773   5.283   5.017  0.1461 -0.5554  0.3010
 2926SOL     OW10019   5.551   5.775   7.585  0.0509  0.0372  0.1163
 2926SOL    HW110020   5.512   5.709   7.642  3.0170 -1.1998  0.8006
 2926SOL    HW210021   5.587   5.727   7.511  0.5823  1.0829 -0.3272
 2927SOL     OW10022   4.703   3.711   7.694  0.5760  0.6804 -0.2755
 2927SOL    HW110023   4.693   3.749   7.781 -2.1349 -0.6865  0.0428
 2927SOL    HW210024   4.769   3.642   7.706 -0.9967 -0.6396  1.1161
 2928SOL     OW10025   4.355   3.963   7.663  0.0206 -0.3903 -0.7299
 2928SOL    HW110026   4.383   3.890   7.607 -0.6205 -1.6233  0.5090
 2928SOL    HW210027   4.261   3.970   7.647  0.2081  0.6450 -1.3787
 2929SOL     OW10028   1.209   5.069   2.080 -0.2568 -0.0618  0.0142
 2929SOL    HW110029   1.252   5.080   1.995 -1.5773 -1.0078 -0.8127
 2929SOL    HW210030   1.121   5.106   2.067 -0.3414  0.1138  1.0818
 2930SOL     OW10031   0.414   0.455   5.146 -0.6603 -0.2286  0.3619
 2930SOL    HW110032   0.490   0.427   5.197 -0.1516  0.0115 -0.2579
 2930SOL    HW210033   0.354   0.380   5.149  0.4627 -1.1866 -0.8372
 2931SOL     OW10034   4.831   3.503   2.667 -0.8317  0.3378 -0.8903
 2931SOL    HW110035   4.761   3.565   2.647 -1.6697 -0.7757 -1.4741
 2931SOL    HW210036   4.857   3.524   2.757 -2.0968  0.5948 -0.5754
 2932SOL     OW10037   2.777   7.669   3.168  0.2532 -0.9560  0.0050
 2932SOL    HW110038   2.819   7.699   3.088 -0.6683 -1.3418 -0.6281
 2932SOL    HW210039   2.842   7.612   3.210  1.0691 -0.0531 -0.0150
 2933SOL     OW10040   5.182   1.077   0.933  0.1036  0.5260 -0.7452
 2933SOL    HW110041   5.210   1.145   0.993 -1.7731  1.1862 -0.5763
 2933SOL    HW210042   5.091   1.060   0.957  0.0784 -0.9374 -1.8007
 2934SOL     OW10043   4.725   8.258   5.946 -0.1108  0.3161 -0.3578
 2934SOL    HW110044   4.740   8.175   5.991 -0.1908  0.5338  0.0728
 2934SOL    HW210045   4.676   8.311   6.009  0.7312  1.0161 -0.2735
 2935SOL     OW10046   2.543   3.039   4.614 -0.5506 -0.1452  0.0607
 2935SOL    HW110047   2.487   3.093   4.670 -0.3844 -2.6927  2.7427
 2935SOL    HW210048   2.547   3.088   4.531 -2.0629  2.9159  1.7057
 2936SOL     OW10049   8.164   0.660   0.060 -0.2483 -0.0320  0.0339
 2936SOL    HW110050   8.197   0.606  -0.012  1.2751  0.0027  0.6846
 2936SOL    HW210051   8.119   0.732   0.016 -1.3150 -1.2029 -0.8487
 2937SOL     OW10052   3.100   0.378   7.831 -0.4379 -0.1927 -0.2605
 2937SOL    HW110053   3.113   0.424   7.749 -2.1324  0.8183  0.0110
 2937SOL    HW210054   3.083   0.447   7.895  1.0318 -0.9481  0.9874
 2938SOL     OW10055   0.687   7.266   3.961 -0.5653 -0.4857  0.3271
 2938SOL    HW110056   0.772   7.234   3.932  0.3245  0.3820  1.8757
 2938SOL    HW210057   0.685   7.358   3.935 -0.7302 -0.3212  0.8940
 2939SOL     OW10058   6.474   5.387   7.927  0.2051 -0.5575  0.1292
 2939SOL    HW110059   6.434   5.408   8.011  2.1199 -0.0724  0.9615
 2939SOL    HW210060   6.568   5.393   7.943  0.5925  1.3205 -2.4944
 2940SOL     OW10061   7.711   0.098   0.290  0.2307  0.4907  0.2680
 2940SOL    HW110062   7.711   0.052   0.374 -1.3288  1.2078  0.6903
 2940SOL    HW210063   7.748   0.035   0.228 -2.3588 -1.5937  0.7192
 2941SOL     OW10064   8.183   7.092   5.248  0.1163  0.1632  0.1950
 2941SOL    HW110065   8.122   7.166   5.241 -2.0535 -1.6724 -0.6045
 2941SOL    HW210066   8.130   7.015   5.229  2.5086 -1.5646  0.3572
 2942SOL     OW10067   4.876   4.645   0.983  0.0810  0.2255 -0.2593
 2942SOL    HW110068   4.932   4.614   1.055  1.0533 -0.3674 -1.2471
 2942SOL    HW210069   4.807   4.579   0.977  0.3442 -0.0536 -0.2662
 2943SOL     OW10070   1.172   1.794   2.045  0.4813  0.1146  0.6108
 2943SOL    HW110071   1.101   1.732   2.032  1.1945 -1.0469  2.0720
 2943SOL    HW210072   1.137   1.860   2.106 -0.2314  1.1007 -0.8380
 2944SOL     OW10073   3.389   2.175   7.703 -0.3666 -0.5447 -0.7674
 2944SOL    HW110074   3.467   2.203   7.656  0.6973 -1.1953  0.5487
 2944SOL    HW210075   3.353   2.255   7.742  0.5364 -0.4743 -0.0836
 2945SOL     OW10076   4.905   5.890   6.845  0.1900  0.0744  0.0384
 2945SOL    HW110077   4.858   5.926   6.920  0.8838  0.7974  0.1332
 2945SOL    HW210078   4.930   5.802   6.873 -1.4150 -0.4550 -0.1497
 2946SOL     OW10079   8.220   3.470   5.478 -0.5572  0.2162 -0.6374
 2946SOL    HW110080   8.226   3.540   5.543  2.9432  0.4319 -1.1183
 2946SOL    HW210081   8.192   3.394   5.528 -1.8936  1.3150  0.3494
 2947SOL     OW10082   1.954   5.596   3.289 -0.5109  0.1958 -0.0921
 2947SOL    HW110083   1.881   5.534   3.295 -1.7283  1.1212 -3.8029
 2947SOL    HW210084   2.024   5.546   3.248 -0.3658  0.3362 -0.0149
 2948SOL     OW10085   6.215   2.817   0.980  0.0792  0.7208 -0.4517
 2948SOL    HW110086   6.282   2.780   0.922  0.0105  2.4235 -1.6726
 2948SOL    HW210087   6.251   2.808   1.068  1.1029 -0.0448 -0.9432
 2949SOL     OW10088   5.069   1.891   8.033  0.2087  0.4364 -0.6164
 2949SOL    HW110089   5.027   1.914   7.950 -1.8289 -1.4151 -0.1203
 2949SOL    HW210090   5.129   1.820   8.011  0.5563  0.7549 -0.7060
 2950SOL     OW10091   1.297   8.071   3.217  0.5496  0.2110  0.3614
 2950SOL    HW110092   1.257   7.984   3.212  0.2130  0.4088 -0.3557
 2950SOL    HW210093   1.327   8.078   3.308 -2.6039  0.7730  1.4291
 2951SOL     OW10094   7.664   0.841   3.791 -0.1492  0.1529 -0.5343
 2951SOL    HW110095   7.595   0.792   3.746 -0.5834  0.0921  0.1868
 2951SOL    HW210096   7.711   0.774   3.842 -2.2375  0.7896  2.3486
 2952SOL     OW10097   1.452   7.369   8.182  0.0389  0.1889 -0.5160
 2952SOL    HW110098   1.478   7.393   8.093  0.2362 -1.5074 -0.9478
 2952SOL    HW210099   1.441   7.274   8.178  0.9708 -0.0250  1.4984
 2953SOL     OW10100   5.221   3.772   6.025 -0.3434 -0.6796  0.4760
 2953SOL    HW110101   5.177   3.835   6.082  1.6950  0.4988  0.8186
 2953SOL    HW210102   5.166   3.766   5.947 -0.8611  1.0948  0.6831
 2954SOL     OW10103   3.657   6.583   6.714 -0.2968  0.5416 -0.1645
 2954SOL    HW110104   3.748   6.590   6.742 -0.6443  0.8160  0.9553
 2954SOL    HW210105   3.639   6.665   6.668 -0.4129  1.1568  0.9603
 2955SOL     OW10106   2.041   5.831   2.905 -0.4269  0.1804 -0.7262
 2955SOL    HW110107   2.013   5.816   2.995 -1.4836 -1.2095 -1.2626
 2955SOL    HW210108   2.006   5.918   2.883 -0.2063  0.5004  0.1804
 2956SOL     OW10109   8.170   2.389   7.487  0.8387 -0.6919 -0.0241
 2956SOL    HW110110   8.213   2.400   7.572  0.9529  0.3219 -0.2201
 2956SOL    HW210111   8.208   2.308   7.451  1.1752 -0.8339  0.6469
 2957SOL     OW10112   6.240   5.112   3.772  0.3244 -0.4186  0.2611
 2957SOL    HW110113   6.282   5.178   3.827 -0.5332 -0.1701  0.6271
 2957SOL    HW210114   6.147   5.134   3.775  0.3006 -0.2250 -1.5342
 2958SOL     OW10115   1.206   0.491   0.662  0.0284 -0.0004  1.0692
 2958SOL    HW110116   1.268   0.517   0.594  1.6846 -1.1479  2.0979
 2958SOL    HW210117   1.232   0.541   0.739 -1.8197  1.2728  0.9093
 2959SOL     OW10118   1.417   4.503   0.153  0.2339 -0.1581 -0.8186
 2959SOL    HW110119   1.356   4.540   0.089 -0.9463  1.7767  1.3209
 2959SOL    HW210120   1.362   4.448   0.209  0.9650 -0.6030 -0.5287
 2960SOL     OW10121   6.830   1.377   1.706  1.1707  0.3897 -0.3350
 2960SOL    HW110122   6.809   1.464   1.739  0.2236  0.4185 -1.0009
 2960SOL    HW210123   6.847   1.325   1.785  1.4172  1.0837  0.0742
 2961SOL     OW10124   5.371   3.857   5.665 -0.4043 -0.1867 -0.4456
 2961SOL    HW110125   5.448   3.830   5.615 -0.2604  0.4910 -0.5854
 2961SOL    HW210126   5.404   3.867   5.755 -0.7570 -1.8547 -0.1007
 2962SOL     OW10127   1.386   3.521   6.058  0.1693  0.4257  0.1397
 2962SOL    HW110128   1.374   3.447   6.118 -1.3389  1.2186  0.8277
 2962SOL    HW210129   1.477   3.513   6.028  0.1853 -1.3936  0.6241
 2963SOL     OW10130   0.960   1.557   2.316 -0.6775  0.2452  0.3746
 2963SOL    HW110131   1.003   1.537   2.234 -0.9321  0.1310  0.2684
 2963SOL    HW210132   0.866   1.556   2.296 -0.7832 -0.7896  0.8847
 2964SOL     OW10133   7.775   5.000   7.322  0.8008 -0.3232  0.2162
 2964SOL    HW110134   7.854   4.971   7.277  0.6516 -0.5443  0.0991
 2964SOL    HW210135   7.750   4.926   7.378  0.0493 -0.6736 -0.5737
 2965SOL     OW10136   2.965   2.690   0.680  0.0753  0.1667  0.4290
 2965SOL    HW110137   3.028   2.618   0.691 -0.1408 -0.0391  0.3404
 2965SOL    HW210138   3.017   2.763   0.647  0.2138 -0.0956  0.0639
 2966SOL     OW10139   7.244   4.184   0.523 -0.3144 -0.5426  0.1934
 2966SOL    HW110140   7.242   4.130   0.444 -1.9031 -0.1255 -0.0647
 2966SOL    HW210141   7.253   4.122   0.595 -3.1954 -1.2905 -0.0251
 2967SOL     OW10142   0.814   4.170   4.123 -0.1538  0.2896  0.0692
 2967SOL    HW110143   0.754   4.229   4.168 -0.2341  0.8579 -0.7579
 2967SOL    HW210144   0.895   4.221   4.114  0.2366 -0.2386  0.6055
 2968SOL     OW10145   6.440   7.835   4.828 -0.0924  0.2937 -0.0466
 2968SOL    HW110146   6.491   7.778   4.884  0.6922  0.2583 -0.7916
 2968SOL    HW210147   6.482   7.921   4.836 -0.2842  0.4033 -0.1941
 2969SOL     OW10148   7.022   2.361   0.426 -0.5005  0.6732 -0.4329
 2969SOL    HW110149   7.005   2.268   0.413 -1.0411  0.6648  0.3055
 2969SOL    HW210150   7.110   2.375   0.389 -0.4453 -0.1060 -0.6066
 2970SOL     OW10151   2.123   2.028   2.220  0.5244  0.4438 -0.0770
 2970SOL    HW110152   2.194   2.076   2.262  0.3791 -0.6276  1.4086
 2970SOL    HW210153   2.165   1.983   2.146  1.6332 -1.1375  1.4929
 2971SOL     OW10154   6.585   1.314   5.732  0.6988  0.0627 -0.4173
 2971SOL    HW110155   6.671   1.350   5.752  0.1908  1.6480 -0.9614
 2971SOL    HW210156   6.550   1.373   5.665 -1.3722  0.2869  0.8206
 2972SOL     OW10157   6.807   3.096   5.158  0.4422  0.6882  0.1004
 2972SOL    HW110158   6.766   3.183   5.163 -0.1375  0.4779 -0.7690
 2972SOL    HW210159   6.764   3.046   5.227 -1.7703  0.0882 -1.6239
 2973SOL     OW10160   3.727   7.313   3.550 -0.4253  0.3192  0.3487
 2973SOL    HW110161   3.719   7.230   3.501  1.5206  0.6141 -0.4857
 2973SOL    HW210162   3.816   7.312   3.585 -0.9683  1.2964  1.7761
 2974SOL     OW10163   6.654   3.960   1.129 -0.1086 -0.0379 -0.0502
 2974SOL    HW110164   6.655   3.948   1.034 -1.8746  0.3052 -0.1293
 2974SOL    HW210165   6.625   4.050   1.141 -0.8704 -0.3998  0.8334
 2975SOL     OW10166   4.832   3.583   6.247  0.6973 -0.3822 -0.3159
 2975SOL    HW110167   4.924   3.610   6.246  1.5963 -3.3328 -1.0804
 2975SOL    HW210168   4.798   3.620   6.328  3.0771 -0.9119  0.9726
 2976SOL     OW10169   5.048   5.240   2.350 -0.0357 -0.2296  0.9332
 2976SOL    HW110170   4.991   5.230   2.274  1.0322 -0.8665  0.2095
 2976SOL    HW210171   5.097   5.158   2.354  1.7484  0.8123  0.7894
 2977SOL     OW10172   2.326   2.920   0.226  0.2515 -0.3060  0.4944
 2977SOL    HW110173   2.381   2.850   0.190 -0.0119 -0.6030  0.6701
 2977SOL    HW210174   2.288   2.882   0.305  0.3873  0.1599  0.7849
 2978SOL     OW10175   5.447   3.344   6.892 -0.4429  0.2367 -0.7682
 2978SOL    HW110176   5.470   3.287   6.965  0.8530  0.2332 -1.1624
 2978SOL    HW210177   5.431   3.284   6.819  1.2447  0.3791 -1.2696
 2979SOL     OW10178   3.036   2.459   7.226 -0.1520 -0.4034 -0.6207
 2979SOL    HW110179   3.079   2.544   7.214  1.2206 -0.8569  0.8780
 2979SOL    HW210180   2.944   2.475   7.207 -0.2935  1.9404  1.8195
 2980SOL     OW10181   5.151   0.276   3.371 -0.1410  0.1277  0.4877
 2980SOL    HW110182   5.112   0.200   3.413  0.3716 -1.0548 -1.1312
 2980SOL    HW210183   5.109   0.281   3.285 -0.8005  2.1958  0.9189
 2981SOL     OW10184   5.043   3.126   0.910  0.2154 -0.2312 -0.1146
 2981SOL    HW110185   4.984   3.199   0.893 -0.2390 -0.5051  0.2853
 2981SOL    HW210186   5.080   3.104   0.825  1.3237  1.2912 -0.0498
 2982SOL     OW10187   0.723   5.732   1.180 -0.7882 -0.3234 -0.5346
 2982SOL    HW110188   0.768   5.768   1.103  0.3261 -0.7840 -0.1136
 2982SOL    HW210189   0.757   5.643   1.189 -1.0330 -0.3318  0.3889
 2983SOL     OW10190   3.039   2.533   8.153  0.2856 -0.5891  0.2638
 2983SOL    HW110191   3.078   2.605   8.103  1.2893 -1.8652 -0.8456
 2983SOL    HW210192   3.003   2.475   8.086 -1.3686 -0.6431  1.1871
 2984SOL     OW10193   3.507   8.155   3.358  0.1405 -0.2135  0.3656
 2984SOL    HW110194   3.445   8.179   3.427 -0.7743  0.5507 -0.7031
 2984SOL    HW210195   3.585   8.125   3.405 -0.0983  1.2528  1.7340
 2985SOL     OW10196   4.182   4.317   0.819 -0.8091  0.2728 -0.1283
 2985SOL    HW110197   4.183   4.412   0.832  0.1121  0.2081  0.3433
 2985SOL    HW210198   4.271   4.297   0.791 -0.8684 -0.5180  0.2560
 2986SOL     OW10199   4.780   2.075   7.297 -0.1491  0.3989  0.3189
 2986SOL    HW110200   4.808   1.999   7.245 -0.6519  1.1406 -1.0827
 2986SOL    HW210201   4.805   2.054   7.387  1.1312 -0.7383 -0.2893
 2987SOL     OW10202   5.325   6.866   7.761 -0.0270 -0.5620  0.0652
 2987SOL    HW110203   5.318   6.838   7.670  0.1525 -1.7672  0.4157
 2987SOL    HW210204   5.289   6.955   7.762  1.9397  0.2972 -1.5961
 2988SOL     OW10205   5.378   1.514   3.308  0.4503 -0.1441 -0.3817
 2988SOL    HW110206   5.311   1.473   3.363  0.5160 -1.0971 -0.9982
 2988SOL    HW210207   5.341   1.515   3.220  0.9795 -0.0992 -0.6101
 2989SOL     OW10208   1.512   4.704   2.890  0.1394  0.2867  0.4529
 2989SOL    HW110209   1.490   4.673   2.802 -0.1860  0.2137  0.5623
 2989SOL    HW210210   1.538   4.626   2.937 -0.4334  0.2142  0.6519
 2990SOL     OW10211   6.045   2.470   5.607 -0.2508 -0.0658  0.5677
 2990SOL    HW110212   6.036   2.428   5.693 -0.6988 -0.6788  0.2199
 2990SOL    HW210213   6.002   2.555   5.618  0.7093  0.3347  1.2893
 2991SOL     OW10214   3.170   6.045   0.310  0.0960 -0.3009  0.5519
 2991SOL    HW110215   3.232   6.071   0.378  0.5508  0.5922 -0.1925
 2991SOL    HW210216   3.086   6.079   0.340  0.5704  1.5067 -0.0978
 2992SOL     OW10217   7.659   3.386   0.940 -0.1055 -0.6366 -0.2185
 2992SOL    HW110218   7.627   3.425   0.858 -0.5879  2.5901  1.4036
 2992SOL    HW210219   7.754   3.387   0.931 -0.1619 -0.4615 -0.8150
 2993SOL     OW10220   0.004   0.097   0.397 -0.4217  0.1594  0.2179
 2993SOL    HW110221   0.068   0.160   0.428  0.5789 -1.3178  1.1685
 2993SOL    HW210222  -0.032   0.057   0.476 -0.2798 -1.2293 -0.4064
 2994SOL     OW10223   4.400   6.253   8.241 -0.5582  0.2326 -0.3063
 2994SOL    HW110224   4.317   6.221   8.278  0.0550 -0.9549  0.0738
 2994SOL    HW210225   4.455   6.175   8.237  0.9800  1.2590  0.6299
 2995SOL     OW10226   4.467   4.665   7.007  0.2101 -0.2957 -0.5759
 2995SOL    HW110227   4.520   4.744   7.017  1.1600 -0.9472 -0.3883
 2995SOL    HW210228   4.447   4.639   7.097  1.4822 -1.3097 -0.5679
 2996SOL     OW10229   1.643   4.170   6.957 -0.1332  0.1172 -0.0396
 2996SOL    HW110230   1.679   4.122   7.032  0.2452  1.4343  0.6511
 2996SOL    HW210231   1.639   4.261   6.988 -0.8202  0.5225 -1.3179
 2997SOL     OW10232   0.054   1.366   0.580 -0.6167 -0.5864 -0.3546
 2997SOL    HW110233   0.120   1.317   0.532 -0.5393  1.8469 -2.8651
 2997SOL    HW210234  -0.029   1.329   0.549 -0.5124 -0.9720 -0.1809
 2998SOL     OW10235   5.626   0.837   1.383  0.0547  0.0473 -0.6244
 2998SOL    HW110236   5.590   0.748   1.374 -1.5381  0.3950  1.7215
 2998SOL    HW210237   5.559   0.894   1.346  0.4277  0.3735 -0.8004
 2999SOL     OW10238   1.960   4.018   3.508  0.0975 -0.3145  0.3499
 2999SOL    HW110239   2.030   3.952   3.514  0.1774 -0.0514  2.4669
 2999SOL    HW210240   1.928   4.027   3.597 -0.9293  1.4433 -0.1859
 3000SOL     OW10241   3.009   8.112   0.163 -0.1596  0.4201 -0.1568
 3000SOL    HW110242   3.040   8.183   0.107 -0.5804 -0.3558 -1.3917
 3000SOL    HW210243   3.072   8.110   0.236  0.0392  1.8271 -0.2830
 3001SOL     OW10244   7.364   7.481   6.916  0.3761 -0.0814 -0.0035
 3001SOL    HW110245   7.424   7.495   6.989  1.4866  0.1406 -0.9288
 3001SOL    HW210246   7.307   7.557   6.917  0.3012 -0.1452  0.7131
 3002SOL     OW10247   3.497   5.208   4.138  0.1375  0.1345  0.6882
 3002SOL    HW110248   3.438   5.282   4.134  0.9714  0.7450 -3.3846
 3002SOL    HW210249   3.456   5.141   4.082  2.0169 -0.3588 -0.1623
 3003SOL     OW10250   6.106   3.103   6.179  0.4685 -0.2136 -0.0536
 3003SOL    HW110251   6.061   3.184   6.154 -0.2106  0.2997  2.6460
 3003SOL    HW210252   6.039   3.052   6.226  0.9888 -2.1967 -1.4334
 3004SOL     OW10253   1.657   5.223   5.446  0.3209 -0.1195 -0.1079
 3004SOL    HW110254   1.630   5.234   5.537  0.3525  0.8454 -0.2102
 3004SOL    HW210255   1.628   5.303   5.403 -2.1886 -1.7370 -1.5564
 3005SOL     OW10256   7.372   6.881   6.608 -0.0441  0.1441 -0.1218
 3005SOL    HW110257   7.456   6.838   6.596 -0.1249 -0.5543  1.5894
 3005SOL    HW210258   7.326   6.868   6.526  1.1751 -0.2376 -0.7577
 3006SOL     OW10259   4.887   0.536   5.387  0.0257  0.1092 -0.0255
 3006SOL    HW110260   4.955   0.482   5.428 -0.0691  0.4804  0.6303
 3006SOL    HW210261   4.875   0.498   5.300  2.3685  1.1535 -0.8528
 3007SOL     OW10262   0.604   6.737   2.516  0.3304 -0.5560 -0.1917
 3007SOL    HW110263   0.659   6.746   2.594 -0.7680 -0.4451  0.5926
 3007SOL    HW210264   0.611   6.822   2.472 -0.3827 -0.0260  0.7012
 3008SOL     OW10265   4.559   2.585   6.901  0.2891 -0.5690 -0.3072
 3008SOL    HW110266   4.618   2.510   6.903  0.8885 -0.1168 -0.7593
 3008SOL    HW210267   4.480   2.555   6.947  0.5409 -1.4548 -0.4412
 3009SOL     OW10268   2.191   8.083   6.535 -0.0258 -0.4894 -0.6683
 3009SOL    HW110269   2.155   8.162   6.496 -1.5216 -0.2552  1.1055
 3009SOL    HW210270   2.279   8.108   6.563 -0.5149  0.5894 -0.0540
 3010SOL     OW10271   1.466   2.907   5.010  0.2340 -0.1183 -0.1874
 3010SOL    HW110272   1.517   2.980   5.046  0.9272 -1.5447  1.8238
 3010SOL    HW210273   1.524   2.831   5.019 -0.8919 -1.1177 -1.2404
 3011SOL     OW10274   7.295   0.414   8.002  0.2745 -0.0372 -0.0733
 3011SOL    HW110275   7.238   0.457   8.065  0.0319  0.5965 -0.7136
 3011SOL    HW210276   7.236   0.357   7.952  0.2783  0.2462 -0.4094
 3012SOL     OW10277   5.987   2.630   6.594 -0.4374  0.4979  0.3688
 3012SOL    HW110278   6.068   2.677   6.613 -0.3676  0.6929 -0.3706
 3012SOL    HW210279   5.930   2.647   6.669 -0.8120  2.6743 -0.3563
 3013SOL     OW10280   6.534   5.076   5.479 -0.2515 -0.3760 -0.1068
 3013SOL    HW110281   6.473   5.050   5.410  1.1743 -0.9162 -1.1987
 3013SOL    HW210282   6.537   5.000   5.538  1.4508 -1.4926 -1.5622
 3014SOL     OW10283   1.839   7.315   4.000 -0.1294  0.2271 -0.3402
 3014SOL    HW110284   1.818   7.359   3.918 -1.4119  0.0688 -0.1041
 3014SOL    HW210285   1.771   7.342   4.061  0.9290  0.5119  0.7457
 3015SOL     OW10286   7.776   1.541   4.736 -0.1223 -0.6395  0.0524
 3015SOL    HW110287   7.684   1.515   4.740 -0.0056 -1.3531 -1.7222
 3015SOL    HW210288   7.823   1.467   4.775 -0.3291  0.0633  1.7043
 3016SOL     OW10289   1.555   5.259   6.003  0.1456 -0.4742 -0.0181
 3016SOL    HW110290   1.462   5.275   6.019 -0.4617 -3.0977 -0.7254
 3016SOL    HW210291   1.580   5.193   6.067  1.1676 -0.8389 -0.7828
 3017SOL     OW10292   1.683   3.352   4.915  0.2535  0.3677  0.4750
 3017SOL    HW110293   1.660   3.282   4.854  0.5925 -1.4597  2.3709
 3017SOL    HW210294   1.612   3.416   4.907 -0.0190 -0.1397 -1.3396
 3018SOL     OW10295   4.391   6.794   8.186 -0.3090  0.2317  0.0311
 3018SOL    HW110296   4.430   6.711   8.216  1.4839  1.0547  0.0430
 3018SOL    HW210297   4.347   6.770   8.104 -0.0954 -0.8025  0.2026
 3019SOL     OW10298   3.979   1.384   6.155 -0.0908  0.1299 -0.5405
 3019SOL    HW110299   3.932   1.403   6.074 -0.5639 -0.7442 -0.4711
 3019SOL    HW210300   4.067   1.419   6.140 -0.3843  0.6222 -1.1504
 3020SOL     OW10301   2.858   8.124   7.275  0.3933 -0.4445  0.2315
 3020SOL    HW110302   2.773   8.084   7.293  0.3444 -1.0854 -1.3590
 3020SOL    HW210303   2.838   8.198   7.219  0.9955 -1.3436 -1.1883
 3021SOL     OW10304   7.449   3.166   1.834  0.0571 -0.8884 -0.2129
 3021SOL    HW110305   7.420   3.113   1.760  0.7667 -2.4430  0.5905
 3021SOL    HW210306   7.506   3.233   1.795  0.9566 -2.0864 -1.0255
 3022SOL     OW10307   8.212   8.129   5.661 -0.2363  0.0735 -0.1931
 3022SOL    HW110308   8.304   8.129   5.636  0.6313  1.1534  2.8079
 3022SOL    HW210309   8.177   8.208   5.620  0.7917  0.9925  0.6620
 3023SOL     OW10310   6.709   6.874   6.239 -0.5147  0.5073 -0.6073
 3023SOL    HW110311   6.631   6.903   6.192 -0.8557  0.1939 -0.2381
 3023SOL    HW210312   6.749   6.809   6.182 -1.0014  0.0274 -0.4121
 3024SOL     OW10313   0.155   5.572   6.415 -0.1771  0.2288  0.1818
 3024SOL    HW110314   0.184   5.554   6.326 -0.2338  0.2086  0.1673
 3024SOL    HW210315   0.223   5.627   6.452  0.2689 -0.4689  0.4076
 3025SOL     OW10316   5.252   6.804   7.202  0.5874  0.3924  0.0529
 3025SOL    HW110317   5.169   6.810   7.154  0.0644  0.5088  0.9594
 3025SOL    HW210318   5.310   6.757   7.143 -0.6798 -1.3369  0.1307
 3026SOL     OW10319   4.547   5.548   0.723  0.0651  0.1112  0.0358
 3026SOL    HW110320   4.581   5.460   0.704 -0.0440 -0.0514  0.5773
 3026SOL    HW210321   4.467   5.553   0.671 -0.0772 -0.2164  0.2196
 3027SOL     OW10322   1.102   3.431   6.001 -0.3240  0.8011 -0.0317
 3027SOL    HW110323   1.170   3.407   6.063 -0.4379  1.6439  0.4352
 3027SOL    HW210324   1.058   3.506   6.042  0.0732  1.8385 -1.4442
 3028SOL     OW10325   4.508   7.476   1.073 -0.2979  0.1329  0.2120
 3028SOL    HW110326   4.536   7.396   1.029  0.1185  0.8785 -0.9030
 3028SOL    HW210327   4.416   7.462   1.094 -1.2130  0.6894 -3.0803
 3029SOL     OW10328   4.922   4.914   4.878 -0.0948 -0.3570  0.2172
 3029SOL    HW110329   4.853   4.892   4.816  0.9658  0.7385 -1.3805
 3029SOL    HW210330   4.994   4.856   4.855  0.9079  1.2288 -0.7173
 3030SOL     OW10331   0.636   2.668   7.973  0.0647 -0.3037  0.1225
 3030SOL    HW110332   0.595   2.601   8.029  0.9526 -0.5761  0.4481
 3030SOL    HW210333   0.579   2.744   7.983 -0.8001 -0.9184 -0.0246
 3031SOL     OW10334   6.107   4.745   2.370 -0.0095 -0.0086 -0.1574
 3031SOL    HW110335   6.190   4.705   2.342 -0.6643 -0.1308 -1.9743
 3031SOL    HW210336   6.098   4.822   2.314 -1.1019  0.0456  0.0906
 3032SOL     OW10337   2.425   4.292   2.356 -0.2108 -0.4760  0.2774
 3032SOL    HW110338   2.506   4.298   2.305 -0.1574  0.5608  0.4807
 3032SOL    HW210339   2.450   4.322   2.443 -0.6523 -0.8415  0.5319
 3033SOL     OW10340   0.629   7.076   3.357  0.3530 -0.1512 -0.4403
 3033SOL    HW110341   0.721   7.058   3.336  0.5136 -0.8040  0.8017
 3033SOL    HW210342   0.602   7.140   3.291  1.9055  0.5874 -0.3901
 3034SOL     OW10343   4.472   2.658   2.788  0.0210 -0.2389 -0.0375
 3034SOL    HW110344   4.456   2.675   2.696 -1.7653 -0.5732  0.1974
 3034SOL    HW210345   4.527   2.731   2.817 -0.1080  0.3097 -1.1721
 3035SOL     OW10346   2.643   5.811   0.555 -0.2359  0.1000 -0.0496
 3035SOL    HW110347   2.607   5.889   0.597  0.2692  1.2179 -1.6512
 3035SOL    HW210348   2.717   5.785   0.610 -0.4821  0.6668  0.5560
 3036SOL     OW10349   0.417   3.502   7.597  0.2041 -0.2526  0.6675
 3036SOL    HW110350   0.375   3.482   7.513  0.6308  2.2247 -0.1826
 3036SOL    HW210351   0.508   3.473   7.585  0.2944  0.2066  0.2322
 3037SOL     OW10352   0.115   1.507   0.809  0.0254 -0.9137  0.0597
 3037SOL    HW110353   0.027   1.543   0.820  0.2300 -0.9756  2.0970
 3037SOL    HW210354   0.114   1.468   0.722 -1.6172  0.0574 -0.3742
 3038SOL     OW10355   2.721   2.962   1.535  0.2880  0.7827  0.1510
 3038SOL    HW110356   2.717   2.885   1.592 -0.4927  1.0903  0.5315
 3038SOL    HW210357   2.811   2.966   1.505  0.3938 -0.1231  0.3523
 3039SOL     OW10358   7.643   4.207   4.765 -0.0783 -0.4099 -0.2467
 3039SOL    HW110359   7.693   4.243   4.691 -0.1394  0.9849  0.3723
 3039SOL    HW210360   7.558   4.250   4.760  0.8275  1.8604  2.2253
 3040SOL     OW10361   2.764   5.175   0.470 -0.3196  0.0509  0.9207
 3040SOL    HW110362   2.826   5.182   0.397  0.6895  0.0197  1.7742
 3040SOL    HW210363   2.785   5.091   0.511 -0.9659  0.0138  1.1723
 3041SOL     OW10364   0.107   7.297   4.299  0.2786 -0.4740  0.1272
 3041SOL    HW110365   0.041   7.349   4.344  0.1921 -0.5430  0.0799
 3041SOL    HW210366   0.059   7.253   4.229  0.3119 -0.8003  0.3114
 3042SOL     OW10367   5.931   3.038   1.503  0.4578 -0.5945 -0.1485
 3042SOL    HW110368   6.023   3.013   1.507  1.0557  1.4612 -0.5808
 3042SOL    HW210369   5.931   3.133   1.513 -1.4209 -0.2911 -2.6908
 3043SOL     OW10370   4.091   0.100   3.057 -0.3507  0.0061  0.5967
 3043SOL    HW110371   4.071   0.057   2.974  1.1635  0.3273  0.0537
 3043SOL    HW210372   4.133   0.182   3.033  1.9173 -0.7906  1.6857
 3044SOL     OW10373   1.204   5.665   1.432  0.5871  0.0885  0.5180
 3044SOL    HW110374   1.287   5.706   1.456  0.2707  0.3101  1.2298
 3044SOL    HW210375   1.141   5.737   1.429  0.8034  0.2351 -1.9187
 3045SOL     OW10376   2.040   5.470   5.710  0.0129 -0.7007  0.1968
 3045SOL    HW110377   2.046   5.383   5.671  0.7423 -0.7126  0.3340
 3045SOL    HW210378   2.112   5.473   5.774 -0.6987 -0.4073  0.9940
 3046SOL     OW10379   0.378   3.591   1.523 -0.2732  0.5659  0.6330
 3046SOL    HW110380   0.472   3.591   1.502 -0.1674  0.0037  1.0981
 3046SOL    HW210381   0.375   3.604   1.617 -0.6089 -1.0485  0.8496
 3047SOL     OW10382   6.506   6.499   0.259  0.1427 -0.8534  0.0876
 3047SOL    HW110383   6.486   6.444   0.183  0.6935 -2.6232  1.2106
 3047SOL    HW210384   6.491   6.443   0.335 -1.7661  1.3305  1.3820
 3048SOL     OW10385   4.526   3.811   6.559 -0.7661  0.1749 -0.3079
 3048SOL    HW110386   4.470   3.885   6.537  1.1452  1.1513 -2.1354
 3048SOL    HW210387   4.532   3.761   6.477  0.2795 -0.3995  0.1061
 3049SOL     OW10388   7.547   4.010   7.974 -0.3101  0.3413 -0.4993
 3049SOL    HW110389   7.576   3.931   8.021  1.9432  0.6725 -1.2893
 3049SOL    HW210390   7.452   4.011   7.986 -0.3102 -2.1660  0.0528
 3050SOL     OW10391   6.622   5.282   4.585  0.8922 -0.3028  0.8376
 3050SOL    HW110392   6.641   5.367   4.626  1.9276  0.6585 -1.5682
 3050SOL    HW210393   6.652   5.292   4.495 -1.6046 -2.2905 -0.2530
 3051SOL     OW10394   0.421   3.843   2.220 -0.0928 -0.0962 -0.1692
 3051SOL    HW110395   0.346   3.808   2.172  0.3536 -0.1596 -0.8277
 3051SOL    HW210396   0.389   3.925   2.257 -0.2970  0.2188 -1.0130
 3052SOL     OW10397   7.135   1.507   0.962 -0.5423 -0.0584  0.3585
 3052SOL    HW110398   7.103   1.597   0.952 -1.0135 -0.0869  1.5028
 3052SOL    HW210399   7.062   1.452   0.934 -0.1755 -0.0934 -0.5563
 3053SOL     OW10400   6.639   1.507   4.931 -0.2279 -0.2629  0.2615
 3053SOL    HW110401   6.704   1.528   4.998  0.2175  2.4240 -0.9641
 3053SOL    HW210402   6.690   1.469   4.859 -0.1076  0.9887 -0.3265
 3054SOL     OW10403   1.319   5.512   5.117  0.5396 -0.4177 -0.3027
 3054SOL    HW110404   1.276   5.492   5.201 -1.8708 -0.6533 -1.5430
 3054SOL    HW210405   1.328   5.607   5.117  0.0525 -0.3667  0.0166
 3055SOL     OW10406   2.407   7.143   4.090  0.5743  0.2375  0.6110
 3055SOL    HW110407   2.312   7.153   4.096  0.6110 -0.1619  1.9444
 3055SOL    HW210408   2.430   7.082   4.160  1.2389 -3.8026 -2.9384
 3056SOL     OW10409   3.206   4.556   4.436  1.1519  0.0929  0.2161
 3056SOL    HW110410   3.172   4.476   4.476 -0.4465  0.0889 -1.1005
 3056SOL    HW210411   3.147   4.625   4.467  2.1437  0.6800  0.8363
 3057SOL     OW10412   5.434   6.574   6.945  0.2737 -0.3831  0.6116
 3057SOL    HW110413   5.506   6.554   6.884  0.5879  0.3594  0.7407
 3057SOL    HW210414   5.463   6.537   7.028  0.1022 -0.8792  0.4566
 3058SOL     OW10415   0.653   2.623   7.067  0.1008  0.3051  0.3158
 3058SOL    HW110416   0.701   2.587   7.142  0.3749  0.6696  0.3142
 3058SOL    HW210417   0.660   2.718   7.077  4.8776  0.4512 -3.1516
 3059SOL     OW10418   0.265   2.063   3.872 -0.1591 -0.8161  0.0566
 3059SOL    HW110419   0.255   2.074   3.778 -0.2242 -2.5994 -0.1531
 3059SOL    HW210420   0.248   2.150   3.908 -3.5438 -0.8160 -1.3175
 3060SOL     OW10421   4.321   3.421   2.958 -0.3314  0.5548  0.3040
 3060SOL    HW110422   4.307   3.352   3.024 -0.5343 -0.5258 -0.8479
 3060SOL    HW210423   4.243   3.475   2.962 -1.6559 -1.2074 -1.0368
 3061SOL     OW10424   6.406   1.178   2.738  0.3557 -0.4009 -0.3168
 3061SOL    HW110425   6.413   1.246   2.671 -1.9679 -0.1787 -0.3655
 3061SOL    HW210426   6.391   1.226   2.820 -1.2275 -0.8088 -0.3421
 3062SOL     OW10427   1.339   0.261   5.070  0.0169  0.0996 -0.9142
 3062SOL    HW110428   1.311   0.279   5.159 -0.4735  1.5633 -1.3315
 3062SOL    HW210429   1.280   0.314   5.016  0.5187 -0.5097 -2.0712
 3063SOL     OW10430   4.844   0.810   4.014 -0.3423 -0.1711  0.7935
 3063SOL    HW110431   4.815   0.735   3.961  0.8930  0.0995 -0.2851
 3063SOL    HW210432   4.818   0.887   3.963  1.4393  0.0851  0.2486
 3064SOL     OW10433   7.464   0.793   2.108 -0.5842  0.1348 -0.0756
 3064SOL    HW110434   7.542   0.774   2.056 -2.3077  0.3453 -2.8212
 3064SOL    HW210435   7.453   0.887   2.102 -2.3569 -0.1536 -1.6597
 3065SOL     OW10436   2.481   3.173   1.910  0.1866 -0.1675 -0.0092
 3065SOL    HW110437   2.551   3.238   1.915  0.5564 -0.6207  1.0025
 3065SOL    HW210438   2.490   3.133   1.824  0.7408  0.2544 -0.1475
 3066SOL     OW10439   3.010   5.822   0.854 -0.0403 -0.1315 -0.9070
 3066SOL    HW110440   3.057   5.741   0.832 -2.1646 -1.5342 -0.4615
 3066SOL    HW210441   2.948   5.796   0.922  1.0761  2.4846  1.2134
 3067SOL     OW10442   2.384   0.276   2.699  0.3626  0.2326  0.2068
 3067SOL    HW110443   2.314   0.295   2.637  0.5858  2.3576  0.5569
 3067SOL    HW210444   2.340   0.237   2.775 -0.1682 -0.3358 -0.3916
 3068SOL     OW10445   5.649   0.938   2.411 -0.4527 -0.0151 -0.4773
 3068SOL    HW110446   5.696   0.923   2.492 -0.7888  0.5742 -0.1724
 3068SOL    HW210447   5.557   0.919   2.432 -0.9142  2.5763 -0.0416
 3069SOL     OW10448   1.453   3.839   1.127 -0.4909 -0.6559  0.0624
 3069SOL    HW110449   1.419   3.834   1.216 -0.0708 -3.0628  0.1016
 3069SOL    HW210450   1.375   3.827   1.072 -0.6868  0.4451  0.0687
 3070SOL     OW10451   4.004   3.122   7.174 -0.6604  0.0208 -0.3109
 3070SOL    HW110452   4.022   3.204   7.221 -0.8268  0.3457 -0.8104
 3070SOL    HW210453   3.966   3.064   7.240  1.6730 -0.4992  0.6540
 3071SOL     OW10454   6.061   6.561   1.059  0.3917  0.2211 -0.4247
 3071SOL    HW110455   6.044   6.610   0.978  1.8300  1.2761 -0.1147
 3071SOL    HW210456   6.064   6.629   1.127  2.5775 -0.2434 -0.0076
 3072SOL     OW10457   1.647   3.131   6.058 -0.4506 -0.1391 -0.1349
 3072SOL    HW110458   1.659   3.092   5.972  0.4734  0.3578 -0.2350
 3072SOL    HW210459   1.705   3.207   6.059 -0.7498  0.0905  0.7785
 3073SOL     OW10460   6.245   6.256   7.526  0.1735 -0.0171  0.0387
 3073SOL    HW110461   6.280   6.220   7.608  0.7124  0.5068  0.0453
 3073SOL    HW210462   6.150   6.249   7.535  0.2229  0.2160  0.7925
 3074SOL     OW10463   0.339   5.939   5.356  0.4327  0.1328  0.2246
 3074SOL    HW110464   0.319   5.895   5.439  0.4568  0.1717  0.2512
 3074SOL    HW210465   0.269   5.911   5.296  0.7757 -0.4125  0.0726
 3075SOL     OW10466   0.443   6.698   8.138 -0.3588 -0.6037 -0.6170
 3075SOL    HW110467   0.470   6.789   8.151 -2.0508 -0.0069 -1.2348
 3075SOL    HW210468   0.525   6.649   8.139  0.5743  0.9292 -0.3342
 3076SOL     OW10469   5.996   4.804   2.684  0.0584  0.3945 -0.0644
 3076SOL    HW110470   6.085   4.839   2.674  0.8632 -1.3681  0.6461
 3076SOL    HW210471   5.988   4.787   2.778 -1.7592  2.3812  0.1448
 3077SOL     OW10472   6.553   5.707   5.882  0.4776  0.1225  0.1489
 3077SOL    HW110473   6.602   5.733   5.804 -0.5040 -0.2058 -0.5858
 3077SOL    HW210474   6.465   5.741   5.867  0.7876  1.8874  2.0688
 3078SOL     OW10475   2.464   6.965   4.327  0.1969  0.5516  0.1794
 3078SOL    HW110476   2.407   6.924   4.392 -0.7441 -2.0444 -2.1721
 3078SOL    HW210477   2.541   6.909   4.325 -0.6584 -0.5932 -2.3416
 3079SOL     OW10478   8.192   3.929   3.455  0.2762  0.8888  0.1548
 3079SOL    HW110479   8.281   3.934   3.421  0.2328  0.0975 -0.0881
 3079SOL    HW210480   8.158   3.847   3.420 -0.7645  1.4929 -0.2746
 3080SOL     OW10481   2.111   7.730   2.489 -0.2945 -0.7149 -0.3958
 3080SOL    HW110482   2.053   7.672   2.539 -0.0034 -0.2140  0.5346
 3080SOL    HW210483   2.189   7.738   2.544 -0.4298  0.7586 -0.4022
 3081SOL     OW10484   7.655   2.439   4.512  0.3683  0.3030 -0.0162
 3081SOL    HW110485   7.673   2.439   4.606  1.2274  2.3548 -0.1484
 3081SOL    HW210486   7.602   2.361   4.497 -2.2989  1.5294  2.6695
 3082SOL     OW10487   1.026   1.390   3.883  0.5669 -0.3635  0.2980
 3082SOL    HW110488   1.031   1.364   3.791  0.4233 -3.2956  1.0663
 3082SOL    HW210489   0.934   1.413   3.897  0.6707  0.4883 -0.3678
 3083SOL     OW10490   1.939   2.208   0.473 -0.0048 -1.0751  0.1778
 3083SOL    HW110491   1.994   2.185   0.398 -0.8022 -0.0260 -0.7604
 3083SOL    HW210492   1.885   2.130   0.488  0.8495 -1.6472  0.2992
 3084SOL     OW10493   4.045   0.807   6.433  0.1076 -0.0342 -0.2651
 3084SOL    HW110494   3.950   0.815   6.444  0.1066 -0.7481  0.3062
 3084SOL    HW210495   4.082   0.843   6.513  0.2552 -1.2586  0.2310
 3085SOL     OW10496   2.347   0.913   0.030 -0.1735  0.1821 -0.7745
 3085SOL    HW110497   2.283   0.916  -0.041 -0.1526 -1.1992 -0.8746
 3085SOL    HW210498   2.419   0.860  -0.005 -0.2076 -0.5855  0.2928
 3086SOL     OW10499   1.145   3.196   2.973 -0.2841  0.1258  0.5897
 3086SOL    HW110500   1.175   3.106   2.988  0.5449  0.4791  1.1167
 3086SOL    HW210501   1.184   3.246   3.045  0.8865  1.2534 -0.7996
 3087SOL     OW10502   7.722   1.419   6.341 -0.5032 -0.5104 -0.3776
 3087SOL    HW110503   7.772   1.350   6.384  0.2210 -0.5568 -1.2890
 3087SOL    HW210504   7.682   1.377   6.266 -0.6948 -0.1208 -0.4983
 3088SOL     OW10505   0.152   8.243   7.760 -0.5497  0.9801 -0.8219
 3088SOL    HW110506   0.170   8.169   7.819 -1.2739  0.6988 -0.9534
 3088SOL    HW210507   0.145   8.202   7.674  1.0279  1.4534 -1.1854
 3089SOL     OW10508   8.113   2.585   5.525  0.1235 -0.1249  0.6829
 3089SOL    HW110509   8.185   2.588   5.462 -1.1575  0.3410 -0.7908
 3089SOL    HW210510   8.098   2.677   5.549 -2.7147  0.2525 -2.2394
 3090SOL     OW10511   0.300   4.829   8.127  0.2220 -0.4749  0.1806
 3090SOL    HW110512   0.392   4.813   8.146  0.0357  0.3248  1.8399
 3090SOL    HW210513   0.256   4.745   8.146  0.3426 -0.2968  1.2768
 3091SOL     OW10514   0.249   0.677   5.179 -0.1488  0.1341  0.4105
 3091SOL    HW110515   0.167   0.629   5.164  0.7367 -1.2559 -0.1103
 3091SOL    HW210516   0.317   0.610   5.173  1.1326  1.4787 -0.3691
 3092SOL     OW10517   6.622   1.508   3.129 -0.5609  0.1420  0.8297
 3092SOL    HW110518   6.559   1.467   3.069 -1.2804 -0.1922  1.7956
 3092SOL    HW210519   6.583   1.592   3.150 -1.0943 -0.3978  2.0573
 3093SOL     OW10520   4.821   6.604   6.067 -0.2210 -0.2752  0.3415
 3093SOL    HW110521   4.832   6.510   6.080 -1.4751 -0.2087  2.2834
 3093SOL    HW210522   4.803   6.637   6.155 -1.3860  1.5376 -0.5467
 3094SOL     OW10523   2.455   2.024   0.256  0.2208 -0.0436 -0.0264
 3094SOL    HW110524   2.543   2.062   0.257  0.7172 -1.0590 -2.1899
 3094SOL    HW210525   2.467   1.938   0.214 -1.8217 -0.1242 -0.4625
 3095SOL     OW10526   1.514   7.164   4.345 -0.4060  0.0907  0.2300
 3095SOL    HW110527   1.458   7.225   4.297 -1.2593 -2.7467 -2.5865
 3095SOL    HW210528   1.600   7.174   4.304 -0.1365  0.5641  0.8975
 3096SOL     OW10529   3.069   5.608   5.312  0.3275 -0.3123  0.7275
 3096SOL    HW110530   2.979   5.636   5.331 -0.2898 -1.8524  0.1196
 3096SOL    HW210531   3.059   5.529   5.260  2.0466 -0.1589  0.1399
 3097SOL     OW10532   5.759   4.153   4.512 -0.3048 -0.3765  0.0993
 3097SOL    HW110533   5.737   4.145   4.419 -1.0850 -0.6821  0.3039
 3097SOL    HW210534   5.787   4.065   4.537 -0.1003 -0.2952  0.1520
 3098SOL     OW10535   1.058   1.048   2.835  0.1130 -0.0195  0.4266
 3098SOL    HW110536   1.076   0.956   2.855 -0.8390 -0.1747  0.6061
 3098SOL    HW210537   1.041   1.088   2.920 -0.9135 -0.0084  0.2304
 3099SOL     OW10538   4.017   6.121   6.466  0.2053 -0.4593 -0.6211
 3099SOL    HW110539   4.006   6.034   6.505 -1.0256 -0.1650 -0.2823
 3099SOL    HW210540   3.961   6.178   6.519  0.5333  0.4286 -1.2200
 3100SOL     OW10541   6.248   3.988   5.697 -0.6479 -0.1022 -0.1405
 3100SOL    HW110542   6.217   3.926   5.631  0.6972  1.3016 -2.1706
 3100SOL    HW210543   6.328   4.026   5.659  0.3713  0.4960  2.4538
 3101SOL     OW10544   0.237   1.021   4.814  0.7017  0.0452  0.2260
 3101SOL    HW110545   0.253   1.095   4.872  0.4277  1.9820 -2.1037
 3101SOL    HW210546   0.317   1.014   4.761  0.7421 -1.3833  0.4355
 3102SOL     OW10547   7.695   3.939   5.940  0.2822  0.2668 -0.3319
 3102SOL    HW110548   7.684   3.844   5.945 -1.0016  0.3649 -1.0324
 3102SOL    HW210549   7.763   3.951   5.874  0.3917 -0.1665 -0.3034
 3103SOL     OW10550   5.586   7.335   3.170 -0.3897 -0.3095 -0.0045
 3103SOL    HW110551   5.586   7.286   3.252 -0.2605 -0.3466 -0.0260
 3103SOL    HW210552   5.559   7.423   3.195 -0.4559 -0.3486  0.0614
 3104SOL     OW10553   3.874   5.634   5.725  0.4474  0.2353  0.4696
 3104SOL    HW110554   3.822   5.553   5.728  0.7157  0.0531  0.2512
 3104SOL    HW210555   3.958   5.610   5.763  0.8300  0.1825 -0.3977
 3105SOL     OW10556   3.174   1.799   5.088  0.2087  0.3296 -0.1062
 3105SOL    HW110557   3.105   1.865   5.086 -0.0694 -0.0035 -2.1239
 3105SOL    HW210558   3.130   1.716   5.068  1.0309 -0.0199 -0.5089
 3106SOL     OW10559   4.507   4.903   3.321  0.2211 -0.3753  0.0490
 3106SOL    HW110560   4.540   4.816   3.344 -2.2183 -1.6382 -1.0057
 3106SOL    HW210561   4.491   4.946   3.405  1.9070 -0.7235  0.5739
 3107SOL     OW10562   1.894   2.958   0.636  0.3415 -0.9689  0.2293
 3107SOL    HW110563   1.928   2.909   0.711  0.5042  0.2302  0.9428
 3107SOL    HW210564   1.853   3.035   0.674  1.4106  0.2263 -0.9817
 3108SOL     OW10565   3.359   0.209   4.596  0.3944 -0.2888 -0.1048
 3108SOL    HW110566   3.332   0.118   4.590 -0.0340 -0.3028  1.6508
 3108SOL    HW210567   3.454   0.208   4.581  0.6163 -1.2041  1.3402
 3109SOL     OW10568   3.282   2.670   6.416  0.9679  0.9135  0.0443
 3109SOL    HW110569   3.326   2.661   6.501  0.9350 -1.1614 -0.1331
 3109SOL    HW210570   3.250   2.582   6.396  0.5220  1.4879 -1.8865
 3110SOL     OW10571   3.919   2.687   4.794 -0.3083  0.4196 -0.2307
 3110SOL    HW110572   3.918   2.595   4.822  0.0861  0.2143 -0.8889
 3110SOL    HW210573   3.828   2.714   4.801 -0.8097 -0.6918 -2.2090
 3111SOL     OW10574   4.980   7.491   3.748  0.4162 -0.3032 -0.1430
 3111SOL    HW110575   4.917   7.523   3.684  2.2596 -0.3276 -2.0379
 3111SOL    HW210576   5.061   7.538   3.727  0.8485  0.3367  2.7552
 3112SOL     OW10577   1.238   8.288   7.698  0.2349  0.7026  0.5282
 3112SOL    HW110578   1.297   8.275   7.624  0.6414  1.1890  0.7657
 3112SOL    HW210579   1.164   8.338   7.663  0.2230  0.5595  0.3534
 3113SOL     OW10580   5.132   7.304   6.915  0.1231 -0.3375 -0.5852
 3113SOL    HW110581   5.074   7.354   6.973 -2.8920 -1.7406 -2.2676
 3113SOL    HW210582   5.198   7.267   6.974 -1.5000  0.1829  1.6272
 3114SOL     OW10583   4.783   0.611   3.810 -0.6414 -0.0227 -0.9779
 3114SOL    HW110584   4.715   0.557   3.850 -0.1089 -0.1018 -0.1739
 3114SOL    HW210585   4.850   0.548   3.782 -0.5123  0.1257 -1.0053
 3115SOL     OW10586   3.911   6.537   1.842 -0.4942  0.7953 -0.0105
 3115SOL    HW110587   3.910   6.547   1.937 -2.8446  1.2422 -0.0392
 3115SOL    HW210588   3.819   6.547   1.816  0.1491  0.9577 -2.3583
 3116SOL     OW10589   7.640   6.010   1.864  0.1389  0.2685 -0.7866
 3116SOL    HW110590   7.669   5.925   1.831 -0.6523 -0.5359  0.5403
 3116SOL    HW210591   7.550   6.019   1.831 -0.2202  0.0170  0.1069
 3117SOL     OW10592   7.406   4.414   1.927 -0.3821 -0.5343 -0.2888
 3117SOL    HW110593   7.491   4.372   1.921 -1.4405 -2.5977 -1.5481
 3117SOL    HW210594   7.390   4.450   1.840 -0.3162  0.8476  0.2598
 3118SOL     OW10595   3.544   7.881   8.130 -0.1224  0.1643 -0.5817
 3118SOL    HW110596   3.614   7.840   8.182  0.1933 -1.4830 -2.2446
 3118SOL    HW210597   3.488   7.923   8.195  2.9887  2.4777  0.7011
 3119SOL     OW10598   2.128   7.010   1.216  0.1335  0.7843 -0.7755
 3119SOL    HW110599   2.166   6.925   1.194 -2.9044 -0.7022 -0.6366
 3119SOL    HW210600   2.159   7.070   1.148 -1.0470 -1.4318 -3.3615
 3120SOL     OW10601   1.671   2.736   8.293 -0.4142 -0.3500  0.6513
 3120SOL    HW110602   1.675   2.755   8.386  1.9252 -0.8410  0.6870
 3120SOL    HW210603   1.723   2.656   8.282  0.0987  0.1893 -1.1685
 3121SOL     OW10604   7.194   8.202   4.449  0.1817 -0.0058 -0.2561
 3121SOL    HW110605   7.272   8.149   4.435 -0.5735 -0.9788 -0.8145
 3121SOL    HW210606   7.122   8.139   4.453 -0.5701  0.8730  0.3386
 3122SOL     OW10607   1.237   3.008   6.209 -0.1450 -0.8857  0.3207
 3122SOL    HW110608   1.227   2.917   6.237 -0.7161 -0.8397  0.2739
 3122SOL    HW210609   1.197   3.059   6.279  1.4561 -0.5900  1.0365
 3123SOL     OW10610   6.026   2.726   0.099 -0.4247 -0.3067  0.2782
 3123SOL    HW110611   6.063   2.689   0.020 -0.5611  0.0917  0.0234
 3123SOL    HW210612   6.000   2.651   0.152  0.0201 -0.5740  0.1149
 3124SOL     OW10613   4.152   1.258   3.652 -0.0290 -0.0939 -0.4304
 3124SOL    HW110614   4.195   1.173   3.657 -1.8238 -0.9990 -0.0829
 3124SOL    HW210615   4.127   1.267   3.560  0.2015  0.0842 -0.4766
 3125SOL     OW10616   2.793   1.592   7.459 -0.4320 -0.3297 -0.3494
 3125SOL    HW110617   2.849   1.668   7.445 -1.9095  1.0338  0.8892
 3125SOL    HW210618   2.841   1.536   7.520 -0.6261  1.0627  1.1001
 3126SOL     OW10619   5.771   6.017   4.049  0.0518 -0.3064 -0.3679
 3126SOL    HW110620   5.796   5.987   3.961 -0.9636 -0.6563 -0.5342
 3126SOL    HW210621   5.697   5.963   4.073  1.1604 -1.1298  1.2819
 3127SOL     OW10622   3.322   3.339   3.394  0.4037  0.9110  0.1489
 3127SOL    HW110623   3.325   3.293   3.311 -0.8797  1.0807  0.0011
 3127SOL    HW210624   3.401   3.392   3.395  0.9499  0.1245 -0.4953
 3128SOL     OW10625   0.675   5.340   7.949  0.0764  0.0141  0.3626
 3128SOL    HW110626   0.636   5.377   8.028  0.4011  0.0539  0.5086
 3128SOL    HW210627   0.704   5.417   7.899  0.3304 -0.0245  0.4466
 3129SOL     OW10628   4.584   2.038   2.710 -0.3154 -0.1232  0.5803
 3129SOL    HW110629   4.567   2.017   2.802 -0.3030 -1.0617  0.3702
 3129SOL    HW210630   4.582   2.134   2.707 -1.6817 -0.1178  1.2985
 3130SOL     OW10631   5.191   5.818   8.287 -0.3554  0.7945 -0.0823
 3130SOL    HW110632   5.287   5.823   8.293 -0.1158  2.1232 -3.9816
 3130SOL    HW210633   5.160   5.894   8.338  0.6954  1.1106  0.1057
 3131SOL     OW10634   4.288   1.903   6.544 -0.3618  0.4140 -0.0436
 3131SOL    HW110635   4.370   1.909   6.494  0.6669  1.0628  1.6806
 3131SOL    HW210636   4.287   1.813   6.577 -0.0334  0.5939  0.4561
 3132SOL     OW10637   0.524   4.731   3.260 -0.0769  0.0699  0.3687
 3132SOL    HW110638   0.562   4.672   3.195 -0.3439  0.7849 -0.4383
 3132SOL    HW210639   0.438   4.694   3.278 -0.1919  0.1432 -0.0349
 3133SOL     OW10640   6.356   6.799   4.988 -0.4478  0.2650  0.0981
 3133SOL    HW110641   6.373   6.892   5.000  0.9654 -0.2339  2.2770
 3133SOL    HW210642   6.292   6.777   5.056 -4.1445  0.4798 -3.1203
 3134SOL     OW10643   5.920   8.266   4.740 -0.2984  1.1720 -0.1436
 3134SOL    HW110644   5.950   8.177   4.755  0.6579  1.5555  0.3159
 3134SOL    HW210645   5.825   8.263   4.753 -0.3044  0.1704 -0.4132
 3135SOL     OW10646   7.347   2.127   3.109  0.3959  0.4139  0.1327
 3135SOL    HW110647   7.376   2.171   3.189  0.1643  0.7223  0.0440
 3135SOL    HW210648   7.253   2.144   3.104  0.3501  0.1221 -0.0338
 3136SOL     OW10649   3.933   5.509   2.824  0.1230  0.1311  0.6576
 3136SOL    HW110650   3.981   5.459   2.890  0.6529 -0.0302  0.1535
 3136SOL    HW210651   3.842   5.483   2.835  0.4793 -1.4445 -0.0479
 3137SOL     OW10652   3.492   1.507   0.683  0.8300  0.1930 -0.1943
 3137SOL    HW110653   3.547   1.568   0.732  0.0617  0.4631  0.3532
 3137SOL    HW210654   3.404   1.543   0.692  0.5422 -0.3368 -0.8978
 3138SOL     OW10655   0.995   2.528   7.716  0.7726 -0.1094  0.3456
 3138SOL    HW110656   1.012   2.451   7.662  1.5430 -0.9650  1.7802
 3138SOL    HW210657   1.059   2.593   7.685  1.1605 -0.5659  0.1794
 3139SOL     OW10658   3.089   1.094   5.657 -0.2101 -0.0005  0.1670
 3139SOL    HW110659   3.010   1.123   5.703 -0.5367 -0.8019  0.1382
 3139SOL    HW210660   3.128   1.030   5.716 -0.0285 -0.2117 -0.1820
 3140SOL     OW10661   0.555   3.018   1.373 -0.5618  0.6090 -0.2142
 3140SOL    HW110662   0.486   2.952   1.372 -0.2674  0.2611  1.6728
 3140SOL    HW210663   0.509   3.100   1.391 -0.5114  0.4272  0.7192
 3141SOL     OW10664   8.234   5.001   0.960 -0.5430 -0.1129 -0.1538
 3141SOL    HW110665   8.169   4.956   0.907 -0.8130  1.0379 -0.8286
 3141SOL    HW210666   8.297   4.934   0.984 -2.6977 -1.5658  1.6879
 3142SOL     OW10667   2.468   6.658   4.892 -0.4755  0.3464 -0.0928
 3142SOL    HW110668   2.509   6.737   4.928  0.5261  0.4498 -1.4323
 3142SOL    HW210669   2.528   6.629   4.824 -0.2989 -2.1933  1.0726
 3143SOL     OW10670   2.754   2.089   3.452  0.0028 -0.3909  0.3957
 3143SOL    HW110671   2.728   2.164   3.505  0.7380  0.2061 -0.0780
 3143SOL    HW210672   2.736   2.115   3.362 -0.3707 -1.0460  0.2763
 3144SOL     OW10673   3.121   4.610   3.140 -0.8982  0.2263  0.6828
 3144SOL    HW110674   3.092   4.615   3.049  0.4856 -0.1389  0.2122
 3144SOL    HW210675   3.112   4.699   3.173 -3.0579  0.0157  0.7237
 3145SOL     OW10676   6.788   7.526   1.039  0.0630  0.3392 -0.1354
 3145SOL    HW110677   6.740   7.444   1.048 -1.1567  1.0646 -0.0137
 3145SOL    HW210678   6.749   7.585   1.104  0.4194  1.2581 -0.7437
 3146SOL     OW10679   3.330   7.934   5.882 -0.0001 -0.3478 -0.2060
 3146SOL    HW110680   3.410   7.955   5.833 -0.0207  0.2089 -0.0050
 3146SOL    HW210681   3.349   7.851   5.925  0.5338 -0.1362 -0.0315
 3147SOL     OW10682   4.586   5.202   5.100 -0.1014 -0.2725  0.0132
 3147SOL    HW110683   4.578   5.294   5.076 -2.3333 -0.9161 -1.9787
 3147SOL    HW210684   4.576   5.201   5.195 -0.6890  1.4914 -0.0106
 3148SOL     OW10685   7.347   4.983   7.961  0.1179 -0.8439  0.1914
 3148SOL    HW110686   7.292   4.940   8.025  0.3221 -0.6098  0.5244
 3148SOL    HW210687   7.423   5.014   8.011 -0.4511  0.6946  0.1401
 3149SOL     OW10688   5.808   5.458   3.639 -0.4360  0.1432 -0.0412
 3149SOL    HW110689   5.884   5.411   3.673  1.3767  1.6967 -1.7901
 3149SOL    HW210690   5.817   5.452   3.544 -2.1469  0.9464 -0.2729
 3150SOL     OW10691   8.184   0.529   0.928 -0.0273 -0.2117 -0.2577
 3150SOL    HW110692   8.269   0.510   0.888 -0.5347 -1.7474 -0.6561
 3150SOL    HW210693   8.146   0.598   0.873  0.1046 -0.9558 -1.2924
 3151SOL     OW10694   5.605   4.594   3.327  0.0867 -0.1537  0.3009
 3151SOL    HW110695   5.685   4.635   3.297  1.1486 -1.9044  0.6274
 3151SOL    HW210696   5.538   4.620   3.264  1.0121  0.9709 -0.2138
 3152SOL     OW10697   0.954   1.127   4.727 -0.8386 -0.3543  0.4173
 3152SOL    HW110698   0.904   1.169   4.657  0.3579 -0.6365 -0.6468
 3152SOL    HW210699   0.954   1.191   4.798  3.1737  2.7550 -2.0915
 3153SOL     OW10700   7.396   4.476   6.301  0.0780 -0.5083 -0.1983
 3153SOL    HW110701   7.352   4.394   6.325 -1.9077  0.2341 -1.2394
 3153SOL    HW210702   7.331   4.525   6.252  0.6854  2.4004  1.7475
 3154SOL     OW10703   5.824   3.697   1.376 -0.1389  0.2158  0.6037
 3154SOL    HW110704   5.797   3.761   1.442 -0.8828  1.3066 -0.7434
 3154SOL    HW210705   5.756   3.630   1.378  0.8442 -0.7779  2.2936
 3155SOL     OW10706   6.477   3.099   2.074 -0.1263 -0.3621  0.2094
 3155SOL    HW110707   6.572   3.115   2.079 -0.1318  0.4485 -1.9541
 3155SOL    HW210708   6.437   3.179   2.108 -0.0504  0.9130 -2.5782
 3156SOL     OW10709   2.209   2.936   8.293  0.4560  0.6705  0.0167
 3156SOL    HW110710   2.253   2.930   8.378 -0.9447  0.9217  0.7628
 3156SOL    HW210711   2.128   2.887   8.304  0.4142  0.4393 -1.2840
 3157SOL     OW10712   6.244   2.023   2.082  0.4833  0.3548  0.5321
 3157SOL    HW110713   6.287   1.940   2.063 -1.9908 -0.4401 -1.8796
 3157SOL    HW210714   6.295   2.088   2.033 -0.4166 -0.4690 -1.6012
 3158SOL     OW10715   3.347   3.485   7.942  0.0325  0.4141  0.4359
 3158SOL    HW110716   3.259   3.448   7.953 -0.3936  1.6085  1.1395
 3158SOL    HW210717   3.390   3.426   7.880 -1.1377 -0.3964  0.3758
 3159SOL     OW10718   0.891   4.128   7.468  0.0546  0.2714  0.3794
 3159SOL    HW110719   0.952   4.194   7.436 -0.2043 -0.2531 -1.2115
 3159SOL    HW210720   0.833   4.177   7.527  0.2253  1.3478 -0.3235
 3160SOL     OW10721   3.165   5.130   3.451 -0.1579  0.1868 -0.0832
 3160SOL    HW110722   3.107   5.136   3.376 -0.7704  3.5023  0.5864
 3160SOL    HW210723   3.123   5.067   3.509 -0.6930 -0.8891 -1.5964
 3161SOL     OW10724   2.385   1.764   3.105  0.1838 -0.0122 -0.0181
 3161SOL    HW110725   2.395   1.827   3.034 -1.2964  1.4442  1.0331
 3161SOL    HW210726   2.293   1.740   3.105  0.0628  0.3444  1.6615
 3162SOL     OW10727   3.996   7.220   3.989 -0.0539 -0.2110 -0.4622
 3162SOL    HW110728   4.054   7.196   3.917  0.2866  0.4180 -0.4021
 3162SOL    HW210729   4.012   7.153   4.056  3.0267  1.7261  0.8822
 3163SOL     OW10730   3.255   3.491   1.846  0.3969 -0.3556 -0.3681
 3163SOL    HW110731   3.182   3.546   1.818  1.6721  1.1171 -0.8886
 3163SOL    HW210732   3.243   3.409   1.798 -1.3660 -0.4359  0.2004
 3164SOL     OW10733   6.506   3.949   3.168  0.2812  0.2841  0.5429
 3164SOL    HW110734   6.566   3.875   3.162  0.3496  0.3767  0.1025
 3164SOL    HW210735   6.458   3.934   3.249 -0.0640 -0.5127  0.1971
 3165SOL     OW10736   7.859   3.830   3.751  0.0187  0.1031 -0.6293
 3165SOL    HW110737   7.938   3.882   3.738 -1.0212  2.4269  1.9581
 3165SOL    HW210738   7.892   3.742   3.771  1.9133  0.7827 -0.6418
 3166SOL     OW10739   4.183   7.702   4.776 -0.2500  0.3599  0.1707
 3166SOL    HW110740   4.121   7.726   4.708 -0.0812 -0.0351 -0.1248
 3166SOL    HW210741   4.157   7.754   4.852 -1.2650 -0.1997  0.2067
 3167SOL     OW10742   4.761   8.038   3.077  0.0788 -0.3906 -0.1235
 3167SOL    HW110743   4.796   7.961   3.121  0.4938  0.9114  1.9282
 3167SOL    HW210744   4.672   8.014   3.051  1.0635 -2.3713 -1.7608
 3168SOL     OW10745   8.192   2.520   3.994 -0.4508  0.9220 -0.5644
 3168SOL    HW110746   8.111   2.470   3.990 -1.1360  1.7975  1.5479
 3168SOL    HW210747   8.168   2.608   3.967  0.0183  0.9266 -0.9650
 3169SOL     OW10748   0.158   7.385   3.918 -0.0651  0.2154  0.0309
 3169SOL    HW110749   0.070   7.349   3.913  0.5107 -1.1045 -1.0286
 3169SOL    HW210750   0.146   7.480   3.915 -1.4461  0.0437 -0.1583
 3170SOL     OW10751   0.446   4.331   5.957  0.2227 -0.1755 -0.1355
 3170SOL    HW110752   0.516   4.373   5.905  0.8577 -0.2019  0.6919
 3170SOL    HW210753   0.482   4.327   6.045 -0.7727 -0.3467  0.2576
 3171SOL     OW10754   0.748   0.381   7.399  0.0031  0.0648 -0.0955
 3171SOL    HW110755   0.692   0.447   7.439  1.5194  1.9601 -1.0337
 3171SOL    HW210756   0.695   0.301   7.399 -1.6427  1.1350  1.5587
 3172SOL     OW10757   1.833   7.062   6.720  0.3424 -0.3301 -0.2109
 3172SOL    HW110758   1.809   7.004   6.648  2.7722  0.1768 -1.4806
 3172SOL    HW210759   1.861   7.143   6.678  1.4861  0.1017  1.3173
 3173SOL     OW10760   4.305   5.219   2.236 -0.6048  0.3778  0.3246
 3173SOL    HW110761   4.244   5.186   2.302  0.6845 -1.5353  0.6170
 3173SOL    HW210762   4.278   5.177   2.155  0.5094 -0.7536  0.5255
 3174SOL     OW10763   0.578   4.867   5.970 -0.2688 -0.1046 -0.4926
 3174SOL    HW110764   0.649   4.863   6.034 -0.6225 -0.4993 -0.1278
 3174SOL    HW210765   0.511   4.808   6.004 -0.6800  0.0933 -0.9531
 3175SOL     OW10766   4.775   1.260   2.446  0.4807 -0.3773 -0.1518
 3175SOL    HW110767   4.727   1.303   2.376 -2.7076 -1.6292  1.1325
 3175SOL    HW210768   4.766   1.319   2.521 -2.4445 -2.3214  1.1378
 3176SOL     OW10769   7.850   6.142   3.699  0.5624  0.2526 -0.0281
 3176SOL    HW110770   7.799   6.223   3.691  0.9336  0.6392  1.4009
 3176SOL    HW210771   7.931   6.170   3.742 -1.3244 -1.6511  5.1124
 3177SOL     OW10772   1.604   3.579   4.743  0.5077 -0.8891 -0.0828
 3177SOL    HW110773   1.539   3.538   4.799  1.6581 -0.6624  1.4400
 3177SOL    HW210774   1.572   3.668   4.731  0.5416 -0.7656  0.6989
 3178SOL     OW10775   4.359   1.606   4.772 -0.7796  0.2772  0.0105
 3178SOL    HW110776   4.439   1.642   4.812 -0.8123 -0.5960  0.8949
 3178SOL    HW210777   4.347   1.522   4.816 -2.8764  0.9542  0.7865
 3179SOL     OW10778   2.416   3.144   5.497 -0.4226  0.1379  0.5319
 3179SOL    HW110779   2.462   3.228   5.492 -0.6692  0.2643  0.3083
 3179SOL    HW210780   2.363   3.142   5.417 -1.8519  0.6127  1.4326
 3180SOL     OW10781   4.840   0.143   6.986 -0.2768  0.1421  0.2047
 3180SOL    HW110782   4.926   0.110   7.011  0.6866  3.0361  0.9537
 3180SOL    HW210783   4.782   0.114   7.057  0.6177  0.3701  1.0433
 3181SOL     OW10784   4.609   4.138   6.853 -0.1760 -0.0690 -0.6604
 3181SOL    HW110785   4.574   4.143   6.942  0.1593  0.8865 -0.5846
 3181SOL    HW210786   4.532   4.145   6.797 -0.3629 -0.4266 -0.4531
 3182SOL     OW10787   1.332   5.988   1.072 -0.3613  0.4623 -0.2432
 3182SOL    HW110788   1.397   6.029   1.016  0.8191  1.2491  1.6522
 3182SOL    HW210789   1.269   6.058   1.091 -1.3093 -0.0739 -1.4054
 3183SOL     OW10790   1.905   1.777   6.590  0.1059  0.3394  0.0364
 3183SOL    HW110791   1.868   1.692   6.615 -3.3057  2.0576  1.1728
 3183SOL    HW210792   1.910   1.825   6.673  0.9610  1.6267 -0.7561
 3184SOL     OW10793   6.525   0.736   7.586  0.5786 -0.1398  0.1756
 3184SOL    HW110794   6.553   0.650   7.554  3.1547  1.0731 -0.9802
 3184SOL    HW210795   6.476   0.717   7.666  0.9283 -2.6822 -0.1629
 3185SOL     OW10796   2.526   7.200   5.243  0.3264 -0.1171  0.0288
 3185SOL    HW110797   2.467   7.172   5.173  1.1202  1.0634 -1.1277
 3185SOL    HW210798   2.607   7.226   5.198 -0.2015  3.6118  0.9972
 3186SOL     OW10799   1.827   0.626   5.934  0.1809  0.1014 -0.5816
 3186SOL    HW110800   1.845   0.714   5.900  2.3774 -0.9059 -2.0557
 3186SOL    HW210801   1.826   0.570   5.857  2.9493 -1.8497  0.7222
 3187SOL     OW10802   1.386   3.455   0.280  0.3386 -0.2644  0.0646
 3187SOL    HW110803   1.304   3.414   0.253  0.6177 -0.8364  0.0901
 3187SOL    HW210804   1.454   3.398   0.244  0.7230  0.0577  0.2866
 3188SOL     OW10805   6.960   1.869   1.337 -0.2859  0.0932  0.6182
 3188SOL    HW110806   7.046   1.888   1.373  0.7516 -1.0562 -1.1790
 3188SOL    HW210807   6.975   1.854   1.243 -2.4243 -0.1609  0.2755
 3189SOL     OW10808   6.347   7.539   0.716  0.4927 -0.1840  0.0983
 3189SOL    HW110809   6.324   7.631   0.701  2.2176  0.4291  1.1253
 3189SOL    HW210810   6.300   7.516   0.796 -0.2480 -0.3256 -0.3689
 3190SOL     OW10811   0.667   7.559   1.442 -0.1491 -0.1051  0.1699
 3190SOL    HW110812   0.707   7.474   1.423  1.3262  0.6212 -0.1109
 3190SOL    HW210813   0.741   7.621   1.440 -1.3675  1.3744 -0.9085
 3191SOL     OW10814   4.351   1.077   4.421  0.3018 -0.3918  0.4714
 3191SOL    HW110815   4.427   1.039   4.464 -0.1809  0.1933  1.8854
 3191SOL    HW210816   4.377   1.166   4.400  0.0709 -0.2547  0.7723
 3192SOL     OW10817   7.900   4.995   2.384  0.2210  0.2950 -0.6406
 3192SOL    HW110818   7.917   4.951   2.467 -0.5573  1.4720  0.1685
 3192SOL    HW210819   7.972   5.056   2.373 -0.3358  1.0454 -0.1843
 3193SOL     OW10820   4.283   2.606   6.369  0.6511 -0.1658 -0.1591
 3193SOL    HW110821   4.219   2.576   6.434  0.6333  3.9237  1.8536
 3193SOL    HW210822   4.368   2.588   6.408  0.6392  1.6013  0.7510
 3194SOL     OW10823   1.779   2.355   4.710  0.5232  0.1820  0.3222
 3194SOL    HW110824   1.871   2.374   4.693  0.8630 -0.9558  0.7923
 3194SOL    HW210825   1.740   2.346   4.622  0.7487  1.1657  0.1223
 3195SOL     OW10826   4.201   5.729   5.286  0.2877  0.1978  0.6428
 3195SOL    HW110827   4.255   5.803   5.257  1.1153 -0.0661  1.4496
 3195SOL    HW210828   4.194   5.741   5.381 -0.3521 -0.2571  0.6556
 3196SOL     OW10829   6.405   5.870   7.195  0.4870  0.0705 -0.0956
 3196SOL    HW110830   6.353   5.949   7.183 -1.0995 -0.7188  1.2921
 3196SOL    HW210831   6.424   5.839   7.106  1.6882  2.3417 -0.6578
 3197SOL     OW10832   5.072   1.084   5.407 -0.2894  0.1492 -0.3386
 3197SOL    HW110833   5.005   1.048   5.467  0.7555 -0.0813  0.7158
 3197SOL    HW210834   5.154   1.072   5.454  0.2136  2.9136 -0.4724
 3198SOL     OW10835   5.879   7.571   6.395 -0.3120 -0.6466  0.0399
 3198SOL    HW110836   5.832   7.537   6.471  0.4667 -1.2163  0.2693
 3198SOL    HW210837   5.886   7.497   6.335 -0.2340 -0.4067 -0.2510
 3199SOL     OW10838   0.593   7.164   0.989 -0.1524 -0.1866  0.1709
 3199SOL    HW110839   0.547   7.197   0.912  0.0031  0.1265  0.2082
 3199SOL    HW210840   0.617   7.243   1.038 -1.7931 -0.4598  1.4356
 3200SOL     OW10841   2.352   4.306   5.331  0.0048  0.4948  0.1112
 3200SOL    HW110842   2.363   4.349   5.246 -3.0312  0.5503 -0.3157
 3200SOL    HW210843   2.387   4.218   5.318  0.2083  0.7294 -0.9774
 3201SOL     OW10844   7.718   4.718   7.212  0.3539  0.3011 -0.3443
 3201SOL    HW110845   7.664   4.781   7.163 -1.0294 -0.5682  0.0446
 3201SOL    HW210846   7.659   4.681   7.277  1.4960 -0.5004  0.2526
 3202SOL     OW10847   7.177   4.901   1.158 -0.8735  0.5200  0.1377
 3202SOL    HW110848   7.248   4.849   1.195 -0.6892  0.3486 -0.4578
 3202SOL    HW210849   7.156   4.965   1.226  0.5837  1.2709 -0.1020
 3203SOL     OW10850   1.098   1.675   1.511 -0.5361  0.8032 -0.1620
 3203SOL    HW110851   1.187   1.697   1.537 -0.2299  1.6034 -1.8303
 3203SOL    HW210852   1.054   1.651   1.593  1.8701 -2.0667  0.3773
 3204SOL     OW10853   7.151   2.689   0.463  0.0114  0.4623  0.3810
 3204SOL    HW110854   7.184   2.611   0.418 -0.7961  0.3006  0.0556
 3204SOL    HW210855   7.077   2.718   0.409 -2.0966 -0.7500  2.5303
 3205SOL     OW10856   3.960   7.585   2.542 -0.1402  0.0681  0.4937
 3205SOL    HW110857   3.954   7.511   2.483 -1.6290  0.0872  0.5788
 3205SOL    HW210858   3.888   7.571   2.604 -1.3347  2.3072 -0.3431
 3206SOL     OW10859   3.806   4.384   2.265 -0.2715 -0.1107  0.5062
 3206SOL    HW110860   3.762   4.446   2.322 -1.2304 -2.3773  2.3178
 3206SOL    HW210861   3.742   4.365   2.196 -0.5168 -0.1311  0.7386
 3207SOL     OW10862   4.162   1.032   0.510  0.1824 -0.4935 -0.0720
 3207SOL    HW110863   4.245   1.067   0.542 -0.0002  0.3242 -0.4712
 3207SOL    HW210864   4.156   0.944   0.548  0.0776  0.3589  1.9936
 3208SOL     OW10865   6.296   1.519   0.273 -0.2361 -0.0201 -0.2406
 3208SOL    HW110866   6.209   1.556   0.289  0.7079  2.6253 -0.9921
 3208SOL    HW210867   6.323   1.484   0.358 -1.6457 -0.0256  0.2203
 3209SOL     OW10868   3.089   5.761   5.008  0.3184  0.2129  0.3100
 3209SOL    HW110869   3.101   5.665   5.007 -1.1312  0.0302 -0.4514
 3209SOL    HW210870   3.007   5.774   5.055  0.4400  1.0855  0.2774
 3210SOL     OW10871   5.755   7.239   0.854 -0.0498 -0.0045  0.3667
 3210SOL    HW110872   5.772   7.329   0.826  1.5552 -0.5987 -0.6791
 3210SOL    HW210873   5.809   7.227   0.931  1.3239 -0.6789 -0.6751
 3211SOL     OW10874   7.116   7.740   0.562  0.1826  0.2164 -0.0105
 3211SOL    HW110875   7.025   7.712   0.577  0.7734 -1.0676  1.2352
 3211SOL    HW210876   7.167   7.659   0.564  1.6654  1.1517  1.6476
 3212SOL     OW10877   4.783   5.379   6.893 -0.0807 -0.5103 -0.0422
 3212SOL    HW110878   4.791   5.341   6.806 -1.2287 -0.4818 -0.1606
 3212SOL    HW210879   4.873   5.384   6.925  0.2874 -1.1172 -0.9675
 3213SOL     OW10880   2.787   2.172   4.672  0.6072 -0.0619  0.1348
 3213SOL    HW110881   2.744   2.156   4.588 -2.0185  1.4488  1.1431
 3213SOL    HW210882   2.732   2.126   4.735  1.2180  0.8215  1.3104
 3214SOL     OW10883   5.906   4.506   5.175 -0.0326  0.1612  0.9338
 3214SOL    HW110884   5.946   4.585   5.210 -0.7967  0.5932  0.8335
 3214SOL    HW210885   5.857   4.535   5.098 -0.1924 -0.4345  0.8041
 3215SOL     OW10886   8.032   2.135   7.794 -0.3973 -0.0931  0.4674
 3215SOL    HW110887   8.103   2.085   7.753 -0.2330  0.4093  0.1350
 3215SOL    HW210888   8.055   2.227   7.779 -2.0489  0.0629 -1.2438
 3216SOL     OW10889   3.043   0.669   7.187  0.6373 -0.4975  0.1448
 3216SOL    HW110890   2.992   0.712   7.118  3.0743  0.5804 -1.0703
 3216SOL    HW210891   3.036   0.727   7.262 -1.5471 -1.3799  0.6682
 3217SOL     OW10892   2.064   7.669   1.638 -0.0444 -0.2720 -0.2010
 3217SOL    HW110893   2.117   7.670   1.559  0.8641 -2.3405  0.3432
 3217SOL    HW210894   2.127   7.684   1.709 -0.7384  0.8082  0.2084
 3218SOL     OW10895   7.653   7.047   4.802 -0.4923  0.8560  0.1351
 3218SOL    HW110896   7.655   6.968   4.748 -2.5308  0.5437  0.4590
 3218SOL    HW210897   7.743   7.081   4.800 -0.3621  0.4469 -2.8365
 3219SOL     OW10898   6.784   5.036   7.437 -0.1864  0.0311 -0.2503
 3219SOL    HW110899   6.742   5.069   7.516  1.0978  1.2639 -0.0759
 3219SOL    HW210900   6.789   5.111   7.379 -0.4145 -0.6851 -1.2138
 3220SOL     OW10901   4.503   7.111   2.757 -0.3760  0.0529  0.2733
 3220SOL    HW110902   4.511   7.156   2.842  0.4744  0.9302 -0.2635
 3220SOL    HW210903   4.471   7.178   2.698  0.6882 -0.1036 -0.4894
 3221SOL     OW10904   0.542   3.559   2.954  0.4239 -0.3833  0.8852
 3221SOL    HW110905   0.509   3.501   2.886  1.2724  0.7148 -0.5165
 3221SOL    HW210906   0.477   3.555   3.024 -2.4140  1.3052 -1.5398
 3222SOL     OW10907   5.850   3.973   5.720  0.3199  0.1303  0.2430
 3222SOL    HW110908   5.831   4.057   5.761  1.2446 -0.0642  1.0828
 3222SOL    HW210909   5.819   3.908   5.784 -0.6730 -0.1827 -0.5282
 3223SOL     OW10910   5.784   6.148   4.539  0.0914 -0.3684 -0.7473
 3223SOL    HW110911   5.766   6.054   4.535 -2.9615  0.1455 -0.9123
 3223SOL    HW210912   5.878   6.155   4.555  0.1663 -3.4432  0.3513
 3224SOL     OW10913   2.520   4.755   7.417 -0.4716  0.3444  0.1414
 3224SOL    HW110914   2.426   4.740   7.423 -0.0747 -3.2842 -1.4109
 3224SOL    HW210915   2.554   4.725   7.501 -0.7606  2.3412  0.9821
 3225SOL     OW10916   4.016   7.390   6.355 -0.1007  0.1135  0.5213
 3225SOL    HW110917   3.949   7.444   6.313  0.6767 -1.6096 -3.1308
 3225SOL    HW210918   4.065   7.451   6.410 -2.0518  2.2180  0.0011
 3226SOL     OW10919   6.003   8.079   5.400 -0.1954  0.0980 -0.1576
 3226SOL    HW110920   6.044   8.083   5.487 -0.7559 -1.1345  0.1782
 3226SOL    HW210921   6.018   8.166   5.362  3.2518 -0.4680 -0.2882
 3227SOL     OW10922   7.733   4.699   3.018 -0.1467  0.1699  0.1376
 3227SOL    HW110923   7.794   4.636   2.979  0.1952  0.5983 -0.0283
 3227SOL    HW210924   7.755   4.782   2.976 -1.9196  0.0301 -1.1074
 3228SOL     OW10925   3.710   0.819   5.697 -0.3269 -0.9041  0.2898
 3228SOL    HW110926   3.785   0.823   5.637 -0.3139  0.8549  0.3881
 3228SOL    HW210927   3.712   0.730   5.731  1.5380 -0.9967  0.0309
 3229SOL     OW10928   1.368   1.754   4.545  0.5634  0.4102  1.0027
 3229SOL    HW110929   1.433   1.765   4.477 -0.8592  2.4214 -0.0718
 3229SOL    HW210930   1.415   1.711   4.617  2.8258  1.0354 -0.0719
 3230SOL     OW10931   1.320   4.619   0.869  0.5461 -0.0671 -0.3395
 3230SOL    HW110932   1.241   4.574   0.838 -0.0371  1.1810 -0.6976
 3230SOL    HW210933   1.347   4.674   0.796  1.7925 -0.5167 -0.2376
 3231SOL     OW10934   4.131   6.030   1.711  0.8856 -0.3601 -0.5676
 3231SOL    HW110935   4.060   6.076   1.666  1.2195 -0.2106 -0.9373
 3231SOL    HW210936   4.159   6.092   1.779 -0.5299 -1.1162  0.7548
 3232SOL     OW10937   4.435   7.956   5.139 -0.0525 -0.0282 -0.4983
 3232SOL    HW110938   4.359   7.906   5.110 -0.5828  0.3112  0.2953
 3232SOL    HW210939   4.506   7.891   5.145 -0.4383 -0.4609 -0.6115
 3233SOL     OW10940   3.779   6.361   5.196  0.1099 -0.2903  0.5064
 3233SOL    HW110941   3.746   6.302   5.129 -1.8510 -1.1629  2.1712
 3233SOL    HW210942   3.824   6.304   5.259 -1.0466  0.0487  1.6756
 3234SOL     OW10943   0.721   2.469   5.553  0.3258 -0.5656 -0.1307
 3234SOL    HW110944   0.653   2.425   5.502 -0.6706  0.1679  0.5594
 3234SOL    HW210945   0.685   2.477   5.641  1.7880 -1.2421  0.5414
 3235SOL     OW10946   2.012   1.538   3.919  0.8878 -0.6269  0.2333
 3235SOL    HW110947   1.918   1.524   3.933  0.7661  0.0080  0.0708
 3235SOL    HW210948   2.042   1.456   3.880  0.2050 -0.4971 -0.5936
 3236SOL     OW10949   5.357   2.850   2.589  0.0284  0.1807 -0.4145
 3236SOL    HW110950   5.263   2.848   2.571 -0.0735  0.4019  0.0852
 3236SOL    HW210951   5.364   2.890   2.676  0.5686 -0.0546 -0.3474
 3237SOL     OW10952   4.851   7.589   5.941  0.5241  0.5038 -0.4373
 3237SOL    HW110953   4.910   7.664   5.951  0.6613  0.2656  0.5468
 3237SOL    HW210954   4.832   7.561   6.030 -2.0139  1.2950 -0.6852
 3238SOL     OW10955   5.364   3.557   0.759 -0.1565 -0.0844  0.1705
 3238SOL    HW110956   5.409   3.641   0.759  0.2696 -0.3081 -0.2177
 3238SOL    HW210957   5.322   3.553   0.673  0.8260 -0.7928 -0.2883
 3239SOL     OW10958   6.594   8.030   6.488  0.0138 -0.6327  0.3134
 3239SOL    HW110959   6.510   7.994   6.460 -0.7536  1.5350 -0.3448
 3239SOL    HW210960   6.570   8.098   6.551  0.9599  2.5123 -2.5392
 3240SOL     OW10961   5.171   2.422   2.559 -0.4613  0.0943  0.3286
 3240SOL    HW110962   5.226   2.438   2.482 -1.0067  0.0846 -0.0729
 3240SOL    HW210963   5.173   2.504   2.607  1.5828 -0.5660  1.4186
 3241SOL     OW10964   6.555   1.150   7.746 -0.3053  0.1652 -0.2037
 3241SOL    HW110965   6.540   1.082   7.812 -2.2092  0.9941  0.2880
 3241SOL    HW210966   6.625   1.204   7.783 -1.8169  1.0230  1.5391
 3242SOL     OW10967   0.617   3.654   1.247 -0.0547  0.1802  0.4592
 3242SOL    HW110968   0.582   3.689   1.165 -0.2400 -1.0792 -0.0109
 3242SOL    HW210969   0.706   3.627   1.225  0.3269  0.9593  0.9965
 3243SOL     OW10970   1.239   7.755   2.404  0.3106 -0.2196 -0.5071
 3243SOL    HW110971   1.224   7.845   2.431 -1.9145 -0.7652  0.2293
 3243SOL    HW210972   1.167   7.736   2.344 -0.6764 -2.2296  1.2130
 3244SOL     OW10973   5.946   6.588   0.546  0.0252 -0.7190  0.1500
 3244SOL    HW110974   5.853   6.605   0.532  0.1921  0.3141  0.2650
 3244SOL    HW210975   5.989   6.623   0.468  0.2116 -2.3566 -0.5019
 3245SOL     OW10976   1.157   7.013   5.713 -0.1265  0.8186  0.8354
 3245SOL    HW110977   1.149   7.101   5.678  2.1216  1.3568  1.5855
 3245SOL    HW210978   1.181   6.959   5.638 -2.0057  0.7368  0.2781
 3246SOL     OW10979   5.570   2.533   5.147 -0.3559  0.0713 -0.2017
 3246SOL    HW110980   5.596   2.620   5.179 -1.2710  0.6052 -0.8749
 3246SOL    HW210981   5.628   2.472   5.192 -0.4810  0.9423  1.1726
 3247SOL     OW10982   5.087   0.932   2.936 -0.1858  0.0069  0.4133
 3247SOL    HW110983   5.070   0.862   2.874  2.4200 -1.3541  1.1668
 3247SOL    HW210984   5.079   0.891   3.022  2.0096  0.3977  0.8540
 3248SOL     OW10985   4.679   1.345   0.009  0.2667 -0.7253  0.6942
 3248SOL    HW110986   4.700   1.315  -0.080  1.6108 -0.3416  0.8712
 3248SOL    HW210987   4.719   1.432   0.015 -1.6024  0.1357  0.9840
 3249SOL     OW10988   5.520   2.799   2.887  1.1068 -0.2869  0.1626
 3249SOL    HW110989   5.484   2.825   2.972  2.3764 -0.5522  0.7876
 3249SOL    HW210990   5.521   2.704   2.889  2.6634 -0.2745  0.5064
 3250SOL     OW10991   0.460   0.357   3.808  0.6800 -0.2258 -0.1191
 3250SOL    HW110992   0.467   0.370   3.903 -0.1812 -0.0121 -0.0877
 3250SOL    HW210993   0.377   0.312   3.796  0.2681  0.7242 -0.8764
 3251SOL     OW10994   4.418   6.677   4.933  0.0417 -0.0686 -0.1759
 3251SOL    HW110995   4.464   6.757   4.906  1.6038 -0.9146 -0.0610
 3251SOL    HW210996   4.488   6.614   4.951 -1.0889 -0.8138  1.7932
 3252SOL     OW10997   5.677   2.267   0.119 -0.3245 -0.2128  0.4739
 3252SOL    HW110998   5.595   2.316   0.129 -0.5694 -0.7299  0.9766
 3252SOL    HW210999   5.737   2.329   0.076 -0.5171  0.6526  1.4488
 3253SOL     OW11000   4.643   3.725   0.940 -0.5325  0.3695  0.9270
 3253SOL    HW111001   4.719   3.755   0.891 -1.3704 -0.2149 -0.7610
 3253SOL    HW211002   4.678   3.660   1.001  0.8283  2.5320  2.5601
 3254SOL     OW11003   5.295   7.168   7.824 -0.1244  0.2531  0.1382
 3254SOL    HW111004   5.285   7.251   7.872  1.6036  1.5080 -1.6011
 3254SOL    HW211005   5.340   7.110   7.886 -1.7266  0.4403  1.5246
 3255SOL     OW11006   4.338   0.385   6.591  0.7462 -0.3140  0.1596
 3255SOL    HW111007   4.419   0.346   6.559  0.2568  0.9391 -2.7975
 3255SOL    HW211008   4.349   0.479   6.577 -0.3883  0.0777  1.7324
 3256SOL     OW11009   5.326   5.162   5.034 -0.7024 -0.1256 -0.1652
 3256SOL    HW111010   5.283   5.229   5.086  0.4048  1.3035 -1.0429
 3256SOL    HW211011   5.363   5.209   4.959  2.6797 -1.1804  0.7267
 3257SOL     OW11012   4.581   2.776   3.916  0.2319  0.1078  0.4431
 3257SOL    HW111013   4.572   2.832   3.993  0.2944 -1.9563  1.9703
 3257SOL    HW211014   4.499   2.790   3.868 -0.1561  0.7961  1.2880
 3258SOL     OW11015   2.222   2.750   2.020  0.3569  0.4694  0.2089
 3258SOL    HW111016   2.218   2.840   2.052  0.3551  0.8270 -0.7794
 3258SOL    HW211017   2.131   2.720   2.020  0.3627  0.4443  0.5857
 3259SOL     OW11018   8.191   5.024   6.450 -0.1667 -0.1030 -0.1876
 3259SOL    HW111019   8.232   4.937   6.459  0.2673  0.1298  0.1431
 3259SOL    HW211020   8.151   5.023   6.363  3.2949  0.7975 -1.8865
 3260SOL     OW11021   4.284   2.123   7.427 -0.4202  0.3405  0.1991
 3260SOL    HW111022   4.293   2.033   7.456 -1.3060  0.3746  0.6042
 3260SOL    HW211023   4.368   2.144   7.385 -0.5485 -0.9809 -0.7566
 3261SOL     OW11024   4.349   7.971   1.666 -0.2657  0.5300  0.2228
 3261SOL    HW111025   4.314   7.886   1.638 -2.4007  1.2508  0.5884
 3261SOL    HW211026   4.296   8.035   1.619 -0.0526  1.6730  1.5121
 3262SOL     OW11027   8.154   1.179   4.611  0.3763 -0.5470 -0.2464
 3262SOL    HW111028   8.211   1.111   4.648  1.2560  0.0875 -0.4038
 3262SOL    HW211029   8.085   1.190   4.676 -0.4374 -2.4252 -0.7726
 3263SOL     OW11030   3.777   4.222   3.367  0.0098 -0.4587  0.1891
 3263SOL    HW111031   3.852   4.280   3.379  0.6421 -1.0835 -0.6381
 3263SOL    HW211032   3.705   4.280   3.342  0.2618  0.1288  0.8188
 3264SOL     OW11033   3.961   7.405   0.698  0.0284 -0.0341 -0.4441
 3264SOL    HW111034   3.983   7.323   0.654  0.4168  0.5027 -1.2733
 3264SOL    HW211035   4.046   7.441   0.723 -0.1607 -0.0347  0.1890
 3265SOL     OW11036   2.110   4.845   6.232 -0.2629  0.1088  0.2571
 3265SOL    HW111037   2.181   4.789   6.264  0.6667  0.7259 -0.7096
 3265SOL    HW211038   2.096   4.908   6.303  1.3476  1.0548 -0.2327
 3266SOL     OW11039   2.099   2.575   4.022 -0.0964 -0.2052  0.3643
 3266SOL    HW111040   2.086   2.490   4.062 -0.5453 -0.3040  0.0151
 3266SOL    HW211041   2.096   2.637   4.095 -1.0155 -0.3713  0.4742
 3267SOL     OW11042   2.954   3.658   3.142 -0.2760  0.2022  0.5981
 3267SOL    HW111043   2.940   3.580   3.196  1.6614 -0.3748  0.3435
 3267SOL    HW211044   3.049   3.661   3.130 -0.5835  0.9666 -1.8251
 3268SOL     OW11045   8.273   2.095   4.632  0.0404 -0.1905  0.2493
 3268SOL    HW111046   8.263   2.190   4.637 -0.6241 -0.2626  0.2988
 3268SOL    HW211047   8.368   2.082   4.622  0.1414  0.4711  0.2891
 3269SOL     OW11048   4.168   7.882   5.001 -0.0481  0.0626  0.0985
 3269SOL    HW111049   4.152   7.898   5.094 -1.2010  0.2892 -0.1361
 3269SOL    HW211050   4.124   7.954   4.956  0.3725 -0.1296 -0.6321
 3270SOL     OW11051   1.584   6.460   2.556  0.3596 -0.6689  0.7108
 3270SOL    HW111052   1.535   6.382   2.582  1.7895 -1.2748  1.6629
 3270SOL    HW211053   1.651   6.470   2.624  1.5795  0.1202 -0.5788
 3271SOL     OW11054   6.163   3.834   5.488  0.0763  0.1877 -0.0245
 3271SOL    HW111055   6.236   3.848   5.427  0.6996 -1.1156  0.4038
 3271SOL    HW211056   6.171   3.743   5.513 -0.2473  0.6825  1.9193
 3272SOL     OW11057   7.925   2.008   5.540 -0.4490  0.3095  0.2453
 3272SOL    HW111058   7.852   2.046   5.589 -0.2604  0.8016  0.1530
 3272SOL    HW211059   7.893   2.003   5.450  0.3188  2.4117 -0.1815
 3273SOL     OW11060   0.842   3.523   2.159  0.2752 -0.0605 -0.3355
 3273SOL    HW111061   0.849   3.551   2.068  2.9981  1.1466  0.2156
 3273SOL    HW211062   0.808   3.600   2.205  1.0091  0.0540  0.0207
 3274SOL     OW11063   4.649   2.178   0.954 -0.1304  0.0449  0.4157
 3274SOL    HW111064   4.669   2.271   0.945 -0.5320  0.0862 -0.1019
 3274SOL    HW211065   4.629   2.149   0.865 -0.4060 -0.4407  0.6319
 3275SOL     OW11066   2.882   5.534   4.390 -0.2957 -0.2385  0.0665
 3275SOL    HW111067   2.819   5.549   4.461  0.7616  0.1911  0.9352
 3275SOL    HW211068   2.837   5.474   4.331 -1.3327 -0.3372  0.9287
 3276SOL     OW11069   2.393   5.620   1.595  0.0813 -0.3645  0.1342
 3276SOL    HW111070   2.355   5.686   1.652 -1.2420 -1.1265  0.1480
 3276SOL    HW211071   2.477   5.657   1.568 -0.4677  1.1418  0.4552
 3277SOL     OW11072   6.716   2.948   4.803 -0.0833  0.0190  0.9531
 3277SOL    HW111073   6.647   2.930   4.867 -0.7426 -1.9949 -0.2562
 3277SOL    HW211074   6.751   2.862   4.781  1.0481  0.8007 -0.3950
 3278SOL     OW11075   8.244   1.072   5.455  0.1788  0.3727  0.0947
 3278SOL    HW111076   8.189   1.070   5.377  1.0625 -0.0813 -0.5291
 3278SOL    HW211077   8.304   0.998   5.444 -0.9013 -0.8585  2.0961
 3279SOL     OW11078   4.471   7.138   0.336 -0.2070 -0.0205 -0.1399
 3279SOL    HW111079   4.505   7.149   0.247 -0.2449  0.2031 -0.1279
 3279SOL    HW211080   4.544   7.160   0.393  0.0384 -0.8665 -0.1113
 3280SOL     OW11081   5.428   2.130   0.265  0.6588 -0.4402  0.3379
 3280SOL    HW111082   5.438   2.214   0.219 -2.9517 -0.0289  0.1282
 3280SOL    HW211083   5.448   2.064   0.199  2.4000  0.2389  0.1754
 3281SOL     OW11084   0.820   0.119   6.640  0.7998 -0.1544  0.1501
 3281SOL    HW111085   0.910   0.116   6.607  0.0315  0.6805 -2.0974
 3281SOL    HW211086   0.808   0.035   6.684  2.2343 -0.8407 -0.7357
 3282SOL     OW11087   5.468   4.766   2.394 -0.5152  0.1605 -0.0245
 3282SOL    HW111088   5.440   4.696   2.335 -0.0460  0.1292 -0.2154
 3282SOL    HW211089   5.439   4.847   2.351  0.3398  0.1699 -0.5913
 3283SOL     OW11090   0.822   2.947   1.824  0.2517 -0.4408  1.3486
 3283SOL    HW111091   0.874   2.891   1.882  0.1037 -0.0569  1.8542
 3283SOL    HW211092   0.784   2.886   1.760  1.3435 -0.7244  0.9427
 3284SOL     OW11093   5.013   5.649   7.772 -0.0408  0.1319 -0.4702
 3284SOL    HW111094   4.963   5.596   7.834  1.9387  0.3378  1.3878
 3284SOL    HW211095   4.999   5.739   7.801 -2.3602  0.5825 -2.8335
 3285SOL     OW11096   4.833   5.583   0.376  0.3484  0.3065  0.2227
 3285SOL    HW111097   4.899   5.651   0.365  0.6645 -0.0544 -0.1560
 3285SOL    HW211098   4.836   5.561   0.469  0.9739  0.0765  0.1486
 3286SOL     OW11099   4.505   1.950   3.585 -0.1612 -0.2204 -0.3820
 3286SOL    HW111100   4.508   1.973   3.492 -0.5701  0.9847 -0.1051
 3286SOL    HW211101   4.597   1.944   3.611 -0.0468 -0.0322 -0.7397
 3287SOL     OW11102   1.145   0.914   1.293  0.0301  0.3057  0.0569
 3287SOL    HW111103   1.218   0.929   1.354  0.3621  0.3148 -0.3471
 3287SOL    HW211104   1.112   0.827   1.317  1.9519 -0.9055 -1.6112
 3288SOL     OW11105   5.360   2.675   8.079  0.0017  0.0226 -0.1849
 3288SOL    HW111106   5.286   2.659   8.137 -1.0040 -0.7545 -1.6449
 3288SOL    HW211107   5.326   2.734   8.012  0.3918 -1.2088 -1.4875
 3289SOL     OW11108   0.168   2.618   6.541  0.5261 -0.4433 -0.4310
 3289SOL    HW111109   0.192   2.702   6.581  0.6602 -1.2191  1.1396
 3289SOL    HW211110   0.252   2.576   6.524  0.4644 -0.1810 -1.4124
 3290SOL     OW11111   0.426   3.351   2.794  0.2722  0.1502 -0.2529
 3290SOL    HW111112   0.371   3.296   2.849  1.1608 -0.3213  0.1728
 3290SOL    HW211113   0.365   3.393   2.733 -0.7365  0.7396  1.1423
 3291SOL     OW11114   0.582   5.153   7.431  0.1708 -0.2592 -0.2458
 3291SOL    HW111115   0.619   5.206   7.361  1.0172 -0.9690 -0.3545
 3291SOL    HW211116   0.545   5.077   7.387  0.0810 -0.3685  0.0184
 3292SOL     OW11117   0.018   5.105   1.599  0.3682  0.3566  0.0687
 3292SOL    HW111118   0.112   5.120   1.611  0.3707  0.9230 -0.6289
 3292SOL    HW211119   0.012   5.056   1.517  0.1148 -0.4377  0.5607
 3293SOL     OW11120   2.275   7.735   0.348 -0.4052  0.2534  0.7114
 3293SOL    HW111121   2.241   7.693   0.269 -1.3044  0.4633  0.9849
 3293SOL    HW211122   2.348   7.789   0.316 -1.4201  1.1563 -0.1345
 3294SOL     OW11123   3.436   4.557   4.669  0.1667 -0.4125  0.0619
 3294SOL    HW111124   3.351   4.561   4.714 -0.0623  0.0769 -0.4189
 3294SOL    HW211125   3.416   4.522   4.582  0.4966 -0.5309  0.0324
 3295SOL     OW11126   6.008   3.063   3.516  0.5337 -0.0708 -0.2787
 3295SOL    HW111127   5.978   3.120   3.445  0.6056 -1.6149 -1.5763
 3295SOL    HW211128   6.063   2.998   3.472  2.0823  0.0237  1.4563
 3296SOL     OW11129   3.139   2.215   8.001 -0.4873  0.1098  0.0035
 3296SOL    HW111130   3.148   2.146   7.935  0.1986 -0.6746  0.9081
 3296SOL    HW211131   3.228   2.234   8.028 -0.7023  1.0707  0.0676
 3297SOL     OW11132   0.994   1.625   3.684 -0.2041 -0.0681 -0.8039
 3297SOL    HW111133   0.907   1.640   3.721  0.1521  0.9366 -0.3314
 3297SOL    HW211134   1.013   1.704   3.634  0.4038 -0.3055 -0.9602
 3298SOL     OW11135   1.888   3.065   4.404  0.3779 -0.4730  0.0342
 3298SOL    HW111136   1.906   3.116   4.326 -0.6147  0.4080  0.3684
 3298SOL    HW211137   1.915   3.122   4.477 -1.2267 -0.1920  0.4280
 3299SOL     OW11138   2.084   5.247   5.584  0.2329  0.4770 -0.1041
 3299SOL    HW111139   2.142   5.185   5.628 -1.2005 -0.6515  0.2380
 3299SOL    HW211140   2.034   5.194   5.523  0.5684  1.6743 -1.4445
 3300SOL     OW11141   1.511   5.424   0.146 -0.7416  0.3933 -0.3641
 3300SOL    HW111142   1.430   5.377   0.125 -0.6174 -0.1589  0.3580
 3300SOL    HW211143   1.571   5.401   0.075 -0.7937 -0.2846 -0.2002
 3301SOL     OW11144   2.431   6.807   1.533  0.2246  0.0619 -0.3382
 3301SOL    HW111145   2.337   6.804   1.550  0.0801 -0.7286 -1.2187
 3301SOL    HW211146   2.447   6.733   1.473  1.4833 -0.1443  0.2265
 3302SOL     OW11147   3.519   2.612   0.716 -0.0611 -0.1287 -0.3593
 3302SOL    HW111148   3.532   2.575   0.628  0.9356  0.4916 -0.4818
 3302SOL    HW211149   3.542   2.704   0.706  0.6095 -0.1789  0.6835
 3303SOL     OW11150   1.098   2.240   0.482  0.3651 -0.3528 -0.1364
 3303SOL    HW111151   1.124   2.288   0.561  0.8285  2.2523 -1.7839
 3303SOL    HW211152   1.181   2.214   0.442  0.1966 -0.0797 -0.6733
 3304SOL     OW11153   0.376   5.970   4.465 -0.5827  0.1671  0.0817
 3304SOL    HW111154   0.466   5.948   4.488 -0.3761 -0.2068 -1.0548
 3304SOL    HW211155   0.384   6.021   4.384 -1.3524  0.6443  0.3041
 3305SOL     OW11156   8.273   6.464   7.929 -0.4770  0.0930 -0.8586
 3305SOL    HW111157   8.251   6.512   8.009  2.4012  2.1574 -1.2307
 3305SOL    HW211158   8.299   6.377   7.959 -1.2378  0.2457  0.2730
 3306SOL     OW11159   0.559   4.689   1.020 -0.0059  0.1719 -0.0526
 3306SOL    HW111160   0.555   4.654   1.109  0.1339 -2.0324 -0.9063
 3306SOL    HW211161   0.646   4.729   1.015  0.4575 -0.7639  0.4096
 3307SOL     OW11162   1.551   2.428   8.110 -0.6451 -0.2427 -0.2048
 3307SOL    HW111163   1.537   2.383   8.193 -2.7311 -0.2830 -0.5447
 3307SOL    HW211164   1.465   2.464   8.087  0.5971  2.4929 -0.7808
 3308SOL     OW11165   1.125   7.450   0.459  0.7453  0.6138  0.1505
 3308SOL    HW111166   1.146   7.405   0.541  1.4314  0.2526 -0.2176
 3308SOL    HW211167   1.046   7.500   0.479  0.5357  0.0188  0.8442
 3309SOL     OW11168   4.663   7.679   7.278 -0.4186  0.4046  0.4417
 3309SOL    HW111169   4.719   7.712   7.349  0.0184 -0.6297  0.5769
 3309SOL    HW211170   4.620   7.758   7.244 -0.2843  0.9780  1.5491
 3310SOL     OW11171   3.516   1.174   0.580  0.1523  0.0003  0.1793
 3310SOL    HW111172   3.441   1.204   0.528  0.4898 -1.7425 -1.3760
 3310SOL    HW211173   3.592   1.188   0.524  0.6941 -0.5128  0.7725
 3311SOL     OW11174   1.768   8.288   3.508 -0.7483 -0.1701  0.5501
 3311SOL    HW111175   1.776   8.230   3.584 -0.2657 -0.1032  0.5507
 3311SOL    HW211176   1.849   8.275   3.459 -1.5051 -1.0067 -0.5203
 3312SOL     OW11177   0.813   3.524   4.448  0.2550  0.4213 -0.2194
 3312SOL    HW111178   0.854   3.609   4.461  2.2811 -0.5133 -0.3824
 3312SOL    HW211179   0.763   3.509   4.528  0.4857  1.4226  0.1167
 3313SOL     OW11180   5.973   4.810   4.575 -0.4349 -0.1381  0.3154
 3313SOL    HW111181   5.958   4.829   4.482 -0.8554 -0.9362  0.2243
 3313SOL    HW211182   6.054   4.857   4.595  0.6681 -1.4705 -0.9260
 3314SOL     OW11183   6.159   5.153   4.422  0.4699  0.0927 -0.4726
 3314SOL    HW111184   6.127   5.097   4.352 -0.6437 -0.1626  0.2287
 3314SOL    HW211185   6.090   5.218   4.436 -0.7357 -1.6527  2.3752
 3315SOL     OW11186   5.356   3.725   1.607  0.3106 -0.3957  0.3652
 3315SOL    HW111187   5.303   3.654   1.643  0.4878 -1.0605 -0.6659
 3315SOL    HW211188   5.397   3.766   1.683 -0.3500 -0.9476  1.0246
 3316SOL     OW11189   6.295   2.810   6.247  0.2478  0.6333  0.2257
 3316SOL    HW111190   6.388   2.825   6.263  0.7362 -2.3781  0.4801
 3316SOL    HW211191   6.251   2.869   6.309  2.0192  0.1470  2.0140
 3317SOL     OW11192   5.720   1.416   8.278 -1.0430 -0.0923  0.3334
 3317SOL    HW111193   5.787   1.460   8.227 -0.5376  0.1075  1.1611
 3317SOL    HW211194   5.648   1.479   8.283 -1.2244 -0.2365 -0.3975
 3318SOL     OW11195   2.352   7.784   4.168  0.3096 -0.6821  0.2645
 3318SOL    HW111196   2.300   7.758   4.092  0.9745 -2.6131  0.4479
 3318SOL    HW211197   2.289   7.821   4.229 -0.5776 -1.3235 -0.2608
 3319SOL     OW11198   6.854   7.064   6.630 -0.0312 -0.2251 -0.0049
 3319SOL    HW111199   6.902   7.079   6.711  0.3422 -0.5788 -0.1564
 3319SOL    HW211200   6.842   7.151   6.593  1.2598 -0.2021 -0.3958
 3320SOL     OW11201   6.048   1.611   4.451  0.2436  0.2930 -0.3446
 3320SOL    HW111202   5.986   1.563   4.396  1.5605  0.4559 -2.0429
 3320SOL    HW211203   5.999   1.686   4.484 -1.3260 -1.2571  0.8931
 3321SOL     OW11204   2.896   4.814   0.914  0.0246  0.9499 -0.6934
 3321SOL    HW111205   2.849   4.810   0.998  0.0568  0.3941 -0.7017
 3321SOL    HW211206   2.988   4.806   0.939  0.0354  0.8024 -0.7795
 3322SOL     OW11207   1.385   0.431   7.320 -0.1950 -0.2062  0.3502
 3322SOL    HW111208   1.446   0.357   7.316  1.8295  1.4727 -1.6095
 3322SOL    HW211209   1.362   0.447   7.228  0.8933  2.7242  0.5250
 3323SOL     OW11210   0.265   6.918   0.076  0.3244  0.2368  0.0899
 3323SOL    HW111211   0.332   6.903   0.142  1.9172 -2.6757 -2.0987
 3323SOL    HW211212   0.216   6.836   0.071 -1.3475  1.2449 -0.6157
 3324SOL     OW11213   4.541   1.912   6.471  0.4090 -0.3874  0.1829
 3324SOL    HW111214   4.576   1.830   6.505 -0.4522 -0.4676  0.8870
 3324SOL    HW211215   4.619   1.967   6.458  0.7924 -0.4737  1.9824
 3325SOL     OW11216   5.453   5.584   8.143 -0.4563  0.5048 -0.1440
 3325SOL    HW111217   5.406   5.571   8.061  0.8706 -0.6310 -0.7657
 3325SOL    HW211218   5.400   5.539   8.209  0.0748 -1.3757 -0.9507
 3326SOL     OW11219   0.580   2.096   5.772 -0.3767 -0.2569  0.4150
 3326SOL    HW111220   0.506   2.048   5.810 -1.0077  1.1068  0.9494
 3326SOL    HW211221   0.579   2.074   5.679 -1.6502 -0.0062  0.3636
 3327SOL     OW11222   5.195   2.865   2.870  0.3785  0.3935 -0.3356
 3327SOL    HW111223   5.262   2.929   2.845  1.0995 -0.5752 -0.9647
 3327SOL    HW211224   5.199   2.862   2.966  0.2521  1.3659 -0.2963
 3328SOL     OW11225   7.089   7.349   7.559 -0.3153  0.3267  0.3003
 3328SOL    HW111226   7.136   7.356   7.476 -0.3023  0.6867  0.3375
 3328SOL    HW211227   7.138   7.404   7.620 -1.5025  1.7386  0.0062
 3329SOL     OW11228   6.979   3.460   7.826 -0.7626  0.0661 -0.7412
 3329SOL    HW111229   7.064   3.478   7.785 -0.8053 -0.3570 -1.0129
 3329SOL    HW211230   6.999   3.403   7.899 -0.8284 -0.1260 -0.8734
 3330SOL     OW11231   2.228   4.156   0.567  0.1877  0.1322  0.3075
 3330SOL    HW111232   2.186   4.154   0.481  0.4837 -0.6540  0.1738
 3330SOL    HW211233   2.155   4.166   0.629 -0.0106  0.8730 -0.0418
 3331SOL     OW11234   5.988   6.430   7.945  0.2911 -0.4848 -0.0906
 3331SOL    HW111235   5.951   6.494   7.884  0.4901 -1.3926 -1.1712
 3331SOL    HW211236   5.924   6.426   8.016 -0.1047  0.3391 -0.3923
 3332SOL     OW11237   7.549   5.092   8.092 -0.3579 -0.9245 -0.0073
 3332SOL    HW111238   7.581   5.111   8.181  0.2018  0.3234 -0.4677
 3332SOL    HW211239   7.617   5.127   8.035 -1.4529 -0.3277 -0.9585
 3333SOL     OW11240   7.145   4.386   3.549  0.1751  0.0573 -0.2894
 3333SOL    HW111241   7.155   4.334   3.628 -1.1355 -0.8824 -0.7244
 3333SOL    HW211242   7.073   4.446   3.568 -0.6444 -0.6859 -1.0304
 3334SOL     OW11243   2.731   0.451   4.135  0.6334 -0.1402  0.3760
 3334SOL    HW111244   2.813   0.406   4.157  0.2509 -0.7894  0.4962
 3334SOL    HW211245   2.755   0.543   4.129  1.3692 -0.3228  0.4373
 3335SOL     OW11246   5.837   6.868   0.676  0.5417  0.1102  0.4734
 3335SOL    HW111247   5.919   6.896   0.634  0.1212 -0.3736 -0.6844
 3335SOL    HW211248   5.834   6.918   0.757  2.2708 -0.2684  0.8052
 3336SOL     OW11249   0.865   5.795   6.474  0.9036 -0.2335 -0.2246
 3336SOL    HW111250   0.955   5.797   6.506  0.4164  1.7551  1.1360
 3336SOL    HW211251   0.833   5.708   6.496  2.2591 -0.7024 -0.0746
 3337SOL     OW11252   5.638   0.078   3.688  0.3222 -0.4176  0.0307
 3337SOL    HW111253   5.565   0.097   3.747 -1.3361 -2.3331 -1.3777
 3337SOL    HW211254   5.692   0.015   3.736 -1.8949 -3.2424 -1.0933
 3338SOL     OW11255   1.961   3.516   6.127  0.3505  0.1728 -0.3453
 3338SOL    HW111256   2.006   3.582   6.075 -2.1220  0.4050 -2.2680
 3338SOL    HW211257   1.926   3.565   6.202  0.7671  0.5287 -0.3785
 3339SOL     OW11258   3.666   4.668   1.745 -0.7435 -0.2944  0.7059
 3339SOL    HW111259   3.613   4.593   1.719 -2.1995  1.1281 -0.5275
 3339SOL    HW211260   3.621   4.744   1.707  0.7710  1.1928  1.8007
 3340SOL     OW11261   4.436   2.534   3.760 -0.5429 -0.0751 -0.2892
 3340SOL    HW111262   4.480   2.547   3.676 -0.1364 -0.4378 -0.1284
 3340SOL    HW211263   4.507   2.525   3.824 -0.8491  1.1392  0.2405
 3341SOL     OW11264   8.137   3.669   3.385  0.5770 -0.3287  0.3000
 3341SOL    HW111265   8.202   3.602   3.402 -1.2196 -1.7807  1.7209
 3341SOL    HW211266   8.054   3.629   3.412 -0.3769  2.9576  2.5638
 3342SOL     OW11267   6.724   3.478   1.958  0.3548 -0.3196 -0.0286
 3342SOL    HW111268   6.744   3.457   1.867 -2.8747 -1.1301 -0.6200
 3342SOL    HW211269   6.791   3.542   1.984  1.1334  0.1259 -3.0369
 3343SOL     OW11270   1.848   7.659   0.004  0.0580  0.1102  0.2118
 3343SOL    HW111271   1.881   7.733  -0.047  2.9495 -1.0511  0.2832
 3343SOL    HW211272   1.762   7.641  -0.034  1.1744  0.7128 -2.8185
 3344SOL     OW11273   5.567   6.186   1.804  0.3030  0.6291  0.3521
 3344SOL    HW111274   5.589   6.096   1.779  0.6329  0.2672  1.8340
 3344SOL    HW211275   5.643   6.238   1.778  0.2132  0.4317 -0.2934
 3345SOL     OW11276   4.709   3.682   7.081  0.3256  0.3682 -0.2331
 3345SOL    HW111277   4.762   3.635   7.145  1.4486  1.2434 -0.5081
 3345SOL    HW211278   4.672   3.756   7.129 -1.3024 -0.6825  0.1567
 3346SOL     OW11279   7.096   3.022   1.789  0.9760 -0.2262  0.0408
 3346SOL    HW111280   7.150   2.977   1.724 -0.8989 -0.9101 -1.0511
 3346SOL    HW211281   7.023   3.059   1.739 -1.5994 -2.5030  1.9954
 3347SOL     OW11282   2.008   2.899   2.497  0.2243  0.6128  0.3374
 3347SOL    HW111283   2.014   2.931   2.587  1.2231  1.0068  0.1363
 3347SOL    HW211284   1.990   2.977   2.445 -0.5686  0.3526  0.2192
 3348SOL     OW11285   7.431   5.255   2.719 -0.7454  0.7060 -0.1421
 3348SOL    HW111286   7.451   5.343   2.687  2.3286  0.3455  0.6810
 3348SOL    HW211287   7.471   5.252   2.806  0.5284 -2.0051 -0.7885
 3349SOL     OW11288   6.594   2.064   3.807  0.1725  0.3051  0.5768
 3349SOL    HW111289   6.577   2.056   3.901 -1.6552 -1.2014  0.1404
 3349SOL    HW211290   6.520   2.116   3.774 -0.2258 -0.8340 -0.3353
 3350SOL     OW11291   0.727   1.936   0.957 -0.4684  0.1257 -0.1585
 3350SOL    HW111292   0.776   1.890   0.890  0.1045  0.0107  0.3352
 3350SOL    HW211293   0.725   1.875   1.031 -0.5941  0.4828  0.1322
 3351SOL     OW11294   3.027   7.041   1.513 -0.5009  0.4784 -0.0868
 3351SOL    HW111295   3.026   7.016   1.420 -1.8694 -0.1197  0.0797
 3351SOL    HW211296   3.047   6.959   1.559 -0.3726  0.6597  0.1771
 3352SOL     OW11297   3.471   7.725   6.074 -0.0996 -0.2479 -0.5121
 3352SOL    HW111298   3.542   7.728   6.137 -0.9075 -1.6025  0.4952
 3352SOL    HW211299   3.500   7.662   6.008 -0.1841 -0.4966 -0.3140
 3353SOL     OW11300   3.542   5.843   5.521 -0.3924  0.1851 -0.1699
 3353SOL    HW111301   3.450   5.867   5.527 -0.4525 -0.0319 -0.2480
 3353SOL    HW211302   3.542   5.755   5.484 -0.0507  1.2805 -2.8936
 3354SOL     OW11303   1.349   4.559   1.768  0.3410 -0.1770 -0.4900
 3354SOL    HW111304   1.262   4.528   1.743  0.7074  0.1176 -2.1830
 3354SOL    HW211305   1.345   4.654   1.757  0.1606  0.0822  1.7225
 3355SOL     OW11306   6.371   4.482   4.425 -0.1785  0.0758  0.7517
 3355SOL    HW111307   6.318   4.448   4.496 -0.3224 -0.2130  0.5068
 3355SOL    HW211308   6.453   4.434   4.431 -0.5394 -0.6262  0.1429
 3356SOL     OW11309   0.040   3.215   8.251  0.6456 -0.1250  0.8011
 3356SOL    HW111310   0.007   3.283   8.192 -0.2109 -1.9922 -0.9293
 3356SOL    HW211311  -0.007   3.230   8.333 -1.3323 -0.0850 -0.3041
 3357SOL     OW11312   5.064   7.848   4.648 -0.0682 -0.1092 -0.2797
 3357SOL    HW111313   5.064   7.766   4.698  1.2184 -0.2632 -0.5100
 3357SOL    HW211314   5.017   7.827   4.568 -1.0519 -0.2091  0.3164
 3358SOL     OW11315   0.032   1.671   1.500  0.3918 -0.5635  0.4163
 3358SOL    HW111316   0.019   1.736   1.569 -0.3005 -0.5043  0.2341
 3358SOL    HW211317  -0.024   1.701   1.428  0.6549 -0.9477  0.0475
 3359SOL     OW11318   3.896   3.563   6.854 -0.5201  0.4592  0.0180
 3359SOL    HW111319   3.856   3.583   6.769  1.1005  0.3999 -0.7585
 3359SOL    HW211320   3.957   3.493   6.836 -0.0102  0.5912  1.2075
 3360SOL     OW11321   0.691   2.469   7.751 -0.6775 -0.6373  0.8760
 3360SOL    HW111322   0.779   2.488   7.719 -1.3194 -0.9061 -1.0840
 3360SOL    HW211323   0.668   2.546   7.803  0.1488  0.0761  0.2074
 3361SOL     OW11324   5.087   6.928   1.497  0.0900  0.0922  0.4379
 3361SOL    HW111325   5.091   6.971   1.412 -0.3219  0.0674  0.4028
 3361SOL    HW211326   5.051   6.995   1.556  2.0940  0.6979  0.9840
 3362SOL     OW11327   6.274   0.323   3.865  0.0198  0.0801  0.8846
 3362SOL    HW111328   6.207   0.267   3.827  0.7851  0.1141 -0.5667
 3362SOL    HW211329   6.231   0.407   3.880  0.2333  0.7536 -1.9684
 3363SOL     OW11330   6.565   1.562   3.999  0.1369 -0.5594  0.3359
 3363SOL    HW111331   6.516   1.557   3.917  1.4063  2.9206 -0.7128
 3363SOL    HW211332   6.651   1.524   3.978  0.0338 -0.8092  0.3742
 3364SOL     OW11333   3.654   6.766   1.228 -0.1104  0.4001 -0.1092
 3364SOL    HW111334   3.703   6.717   1.162 -0.1683 -1.3195  1.0860
 3364SOL    HW211335   3.696   6.851   1.232 -0.4257  0.7052 -2.7267
 3365SOL     OW11336   8.177   5.810   5.489 -0.2900  0.1380  0.2443
 3365SOL    HW111337   8.194   5.725   5.449  0.5942  1.1603 -1.5907
 3365SOL    HW211338   8.159   5.869   5.416  0.0892  1.7585  1.4197
 3366SOL     OW11339   1.520   4.702   4.597  0.2626 -0.1183  0.8923
 3366SOL    HW111340   1.498   4.610   4.613  0.4179 -0.0881  1.2786
 3366SOL    HW211341   1.460   4.751   4.653 -1.0631  0.0802 -0.6753
 3367SOL     OW11342   1.110   7.952   6.453 -0.4258  0.5022 -0.1066
 3367SOL    HW111343   1.017   7.936   6.442 -0.3726 -0.6925  1.0752
 3367SOL    HW211344   1.116   8.010   6.529 -0.0031 -3.0262  2.6883
 3368SOL     OW11345   7.395   1.688   4.484 -0.7425 -0.6128  0.1257
 3368SOL    HW111346   7.443   1.768   4.463 -0.7592 -0.4115  0.8351
 3368SOL    HW211347   7.425   1.624   4.419 -1.5903  0.2854 -1.1665
 3369SOL     OW11348   3.023   2.833   2.689 -0.0100 -0.8003  0.6426
 3369SOL    HW111349   2.969   2.910   2.706  2.0284  0.7162  0.4499
 3369SOL    HW211350   3.064   2.850   2.605  2.5244 -0.8468  1.8275
 3370SOL     OW11351   7.192   1.252   3.933 -0.5822  0.0085  0.2477
 3370SOL    HW111352   7.104   1.216   3.945 -1.1008  1.3365  0.4519
 3370SOL    HW211353   7.178   1.344   3.912  0.7659  0.2213  0.2439
 3371SOL     OW11354   5.778   5.526   0.824  0.0793 -0.1575  0.0161
 3371SOL    HW111355   5.725   5.582   0.881  0.7704  2.1965 -1.5641
 3371SOL    HW211356   5.720   5.504   0.751 -0.1938 -1.5828  0.6317
 3372SOL     OW11357   2.351   2.903   1.411  0.1276 -0.4765 -0.7624
 3372SOL    HW111358   2.349   2.899   1.316 -0.4822 -2.6794 -0.6780
 3372SOL    HW211359   2.423   2.845   1.436  1.4232  1.4169  0.0876
 3373SOL     OW11360   7.365   7.200   5.523 -0.8749  0.0189 -0.1791
 3373SOL    HW111361   7.352   7.291   5.493  0.3733  0.6730  1.2318
 3373SOL    HW211362   7.303   7.191   5.595 -0.4999 -0.0324  0.1339
 3374SOL     OW11363   2.991   0.778   1.532  0.4045  0.5488  0.1297
 3374SOL    HW111364   3.018   0.798   1.621 -0.4110  2.7410 -0.0937
 3374SOL    HW211365   3.025   0.850   1.480 -0.1632 -0.0910 -1.1597
 3375SOL     OW11366   4.237   6.589   3.619 -0.2807 -0.4245 -0.0186
 3375SOL    HW111367   4.296   6.535   3.671  1.4490  1.2565 -0.1934
 3375SOL    HW211368   4.197   6.528   3.557  0.1126 -1.8531  1.0941
 3376SOL     OW11369   4.725   2.810   0.514 -0.0915 -0.3534  0.7660
 3376SOL    HW111370   4.695   2.845   0.430  1.2716  2.6141  1.4457
 3376SOL    HW211371   4.805   2.762   0.493 -0.0771 -0.1125  0.2754
 3377SOL     OW11372   8.070   6.896   3.467  0.1040  0.6018 -0.4425
 3377SOL    HW111373   8.073   6.914   3.373  0.7752 -1.8241 -0.9210
 3377SOL    HW211374   8.120   6.815   3.477 -1.3269 -0.0438  1.7886
 3378SOL     OW11375   7.566   4.706   7.746 -0.2758  0.7679 -0.1751
 3378SOL    HW111376   7.550   4.623   7.791 -1.6173  0.3502 -1.3602
 3378SOL    HW211377   7.478   4.742   7.731  0.1830  1.3049 -1.6669
 3379SOL     OW11378   3.540   0.552   2.421  0.5029  0.1888  0.7623
 3379SOL    HW111379   3.501   0.530   2.505 -1.4093 -0.2458 -0.2175
 3379SOL    HW211380   3.518   0.645   2.408  0.9740  0.3115  0.8303
 3380SOL     OW11381   6.733   1.272   3.221  0.1624 -0.4946 -0.0028
 3380SOL    HW111382   6.799   1.261   3.152  0.6124 -0.4255  0.4159
 3380SOL    HW211383   6.672   1.337   3.186  1.4537  0.9780  0.4393
 3381SOL     OW11384   7.096   4.530   2.693 -0.1492 -0.0315 -0.2086
 3381SOL    HW111385   7.005   4.517   2.665 -0.3152  0.2244  0.2061
 3381SOL    HW211386   7.089   4.548   2.787  0.2853  0.6096 -0.2999
 3382SOL     OW11387   5.405   4.885   7.377  0.0602 -0.4241 -0.2382
 3382SOL    HW111388   5.410   4.971   7.335  0.0269 -0.5732 -0.5488
 3382SOL    HW211389   5.425   4.823   7.307 -0.5215 -0.7062 -0.1543
 3383SOL     OW11390   0.078   2.731   3.183 -0.3681 -0.4686  0.3048
 3383SOL    HW111391  -0.001   2.731   3.236  0.6927 -1.0795  1.9415
 3383SOL    HW211392   0.129   2.657   3.216  1.3846  0.5989  0.0391
 3384SOL     OW11393   6.665   0.691   0.926 -0.0938  0.1436  0.6374
 3384SOL    HW111394   6.609   0.631   0.975 -0.9188  0.4200  0.0259
 3384SOL    HW211395   6.748   0.643   0.916 -0.7711 -0.9203  0.0995
 3385SOL     OW11396   3.126   0.118   0.376  0.1803  0.3012 -0.2556
 3385SOL    HW111397   3.042   0.076   0.395  0.0188  1.3483  1.5196
 3385SOL    HW211398   3.191   0.061   0.417  0.0746  1.0350  0.9553
 3386SOL     OW11399   2.181   3.822   3.482  0.0879  0.2266  0.5247
 3386SOL    HW111400   2.219   3.784   3.403  0.1936 -0.2814  0.8174
 3386SOL    HW211401   2.252   3.819   3.546  0.1205  0.9934  0.5252
 3387SOL     OW11402   0.716   5.921   1.655 -0.0898  0.0704  0.0240
 3387SOL    HW111403   0.750   6.010   1.648 -1.1597  0.3045 -3.0260
 3387SOL    HW211404   0.706   5.906   1.749 -0.3480  3.3330  0.5674
 3388SOL     OW11405   2.211   6.494   0.045 -0.5251  0.0371 -0.3816
 3388SOL    HW111406   2.269   6.571   0.053 -0.7133  0.0142  1.6211
 3388SOL    HW211407   2.127   6.524   0.081 -0.2879 -1.4013  1.4633
 3389SOL     OW11408   6.948   4.567   2.411  0.2450  0.0156 -0.0415
 3389SOL    HW111409   6.863   4.610   2.417  0.4289  0.3825 -0.1105
 3389SOL    HW211410   6.930   4.483   2.369 -0.2954 -0.4696  1.1284
 3390SOL     OW11411   7.656   2.850   5.192  0.0871 -0.4134  0.2142
 3390SOL    HW111412   7.685   2.935   5.161 -0.2442  0.5946  2.5213
 3390SOL    HW211413   7.736   2.806   5.221  0.6243 -2.0381 -3.4864
 3391SOL     OW11414   3.464   0.502   8.047  0.6029 -0.1097  0.1489
 3391SOL    HW111415   3.402   0.525   8.116 -0.5932 -4.3237  0.5975
 3391SOL    HW211416   3.413   0.509   7.966  0.9220  1.0718  0.0409
 3392SOL     OW11417   7.658   2.776   5.631 -0.2927 -0.9820 -0.6035
 3392SOL    HW111418   7.666   2.745   5.721 -1.3319 -3.2838 -1.2730
 3392SOL    HW211419   7.747   2.771   5.596 -0.4164 -3.0379 -0.6380
 3393SOL     OW11420   2.878   3.186   5.217 -0.4540  0.0504  0.0054
 3393SOL    HW111421   2.787   3.203   5.194 -0.6837  0.4204  1.1921
 3393SOL    HW211422   2.892   3.235   5.298  0.6204 -0.5159  0.1645
 3394SOL     OW11423   5.211   6.769   8.053 -0.3768 -0.5191 -0.4410
 3394SOL    HW111424   5.278   6.723   8.103 -0.1780 -0.1658 -0.3777
 3394SOL    HW211425   5.241   6.767   7.963  0.6366  1.1997 -0.1691
 3395SOL     OW11426   0.633   8.225   0.024 -0.2694 -0.2555 -0.1394
 3395SOL    HW111427   0.616   8.309  -0.020 -0.9004 -0.3852 -0.1348
 3395SOL    HW211428   0.708   8.189  -0.024  0.2705  0.4980  0.1143
 3396SOL     OW11429   0.782   3.263   5.060 -0.4240 -0.3471  0.2104
 3396SOL    HW111430   0.787   3.203   5.134 -0.4013  0.9764  1.3137
 3396SOL    HW211431   0.846   3.332   5.081  0.6722 -0.7209 -1.7625
 3397SOL     OW11432   0.198   7.541   3.469 -0.1332 -0.1278 -0.8395
 3397SOL    HW111433   0.282   7.543   3.516  0.1359  0.1298 -1.3257
 3397SOL    HW211434   0.201   7.618   3.413 -0.4291 -0.4666 -1.3204
 3398SOL     OW11435   1.429   4.911   5.740 -0.2204  0.1255  0.3884
 3398SOL    HW111436   1.483   4.989   5.755  0.7565 -0.2893 -0.8672
 3398SOL    HW211437   1.482   4.856   5.681 -0.7787 -1.6046  1.4486
 3399SOL     OW11438   6.481   0.700   4.832  0.4646  0.5568 -0.4897
 3399SOL    HW111439   6.435   0.674   4.753  0.1522  1.3836 -0.5932
 3399SOL    HW211440   6.415   0.692   4.902  1.5418 -2.9698  0.1953
 3400SOL     OW11441   4.758   2.947   7.013  0.0525  0.2356 -0.0504
 3400SOL    HW111442   4.779   2.938   7.106 -2.0269 -0.9086  0.3340
 3400SOL    HW211443   4.834   2.991   6.975  1.5839 -0.6688  1.9113
 3401SOL     OW11444   1.278   3.202   6.475  0.6290  0.2991  0.1095
 3401SOL    HW111445   1.315   3.268   6.534  2.1489  1.7960 -2.4685
 3401SOL    HW211446   1.344   3.133   6.471  0.2249 -0.1317  0.6424
 3402SOL     OW11447   4.401   1.553   3.721 -0.0945 -0.6015  0.6395
 3402SOL    HW111448   4.309   1.544   3.749 -0.1912  0.6312  0.7197
 3402SOL    HW211449   4.414   1.481   3.659 -1.2070 -0.5920  0.3881
 3403SOL     OW11450   4.930   2.256   4.661 -0.8011  0.1894  0.2864
 3403SOL    HW111451   4.919   2.162   4.667 -0.1776  0.0180 -1.0695
 3403SOL    HW211452   5.013   2.274   4.706 -1.0379  0.1286  0.7533
 3404SOL     OW11453   2.056   5.804   5.313  0.3295  0.2064 -0.1677
 3404SOL    HW111454   2.052   5.900   5.313  2.4215  0.3447  0.9819
 3404SOL    HW211455   2.001   5.778   5.387 -1.1023  0.4629 -1.1428
 3405SOL     OW11456   2.416   4.527   5.496 -0.0778  0.4604 -0.4847
 3405SOL    HW111457   2.497   4.555   5.454 -0.3822  1.1806 -0.6095
 3405SOL    HW211458   2.378   4.462   5.437 -1.5678  2.9880 -2.4052
 3406SOL     OW11459   7.649   4.417   7.587 -1.0522 -0.6600  0.3839
 3406SOL    HW111460   7.569   4.466   7.570 -1.0444 -0.3994  1.0889
 3406SOL    HW211461   7.619   4.327   7.600 -1.0959 -0.8009 -0.6014
 3407SOL     OW11462   3.624   3.494   8.048 -0.4630  0.3725 -0.1477
 3407SOL    HW111463   3.690   3.562   8.063  0.8527 -0.9172 -0.0862
 3407SOL    HW211464   3.606   3.497   7.954 -0.1696  0.5798 -0.1949
 3408SOL     OW11465   7.572   7.737   3.715 -0.3190  0.3730  0.5109
 3408SOL    HW111466   7.612   7.819   3.745  0.5230 -0.0639  0.5956
 3408SOL    HW211467   7.596   7.731   3.623 -0.3889  0.2301  0.5026
 3409SOL     OW11468   1.359   8.203   2.971  0.3769 -0.0597 -0.2822
 3409SOL    HW111469   1.309   8.132   2.931  2.3728 -0.9687 -1.2187
 3409SOL    HW211470   1.361   8.181   3.064 -0.6759 -0.1821 -0.2855
 3410SOL     OW11471   2.348   6.513   0.834  0.0082 -0.3244  0.7910
 3410SOL    HW111472   2.382   6.429   0.802 -1.0178 -0.1831 -0.6799
 3410SOL    HW211473   2.397   6.579   0.785 -0.6268 -0.0859  0.4736
 3411SOL     OW11474   3.660   7.081   3.406 -0.5952  1.2035 -0.0246
 3411SOL    HW111475   3.662   6.985   3.410 -1.0197  1.2470  1.5589
 3411SOL    HW211476   3.571   7.101   3.378  0.0096  1.0954 -2.0479
 3412SOL     OW11477   0.347   4.328   1.176  0.0724 -0.1531 -0.3557
 3412SOL    HW111478   0.430   4.280   1.169 -0.8122 -1.5443 -1.6187
 3412SOL    HW211479   0.286   4.265   1.216 -0.3896  0.8728  0.6155
 3413SOL     OW11480   0.099   4.337   2.647  0.1093  0.3439 -0.1567
 3413SOL    HW111481   0.099   4.362   2.555 -0.5849 -1.4943 -0.6907
 3413SOL    HW211482   0.085   4.418   2.695  1.7877  1.5256 -1.5965
 3414SOL     OW11483   7.443   5.023   5.182 -0.1562  0.4054  0.1390
 3414SOL    HW111484   7.531   5.031   5.146 -1.1139  0.9246 -2.2088
 3414SOL    HW211485   7.385   5.047   5.109 -2.2636 -0.7776  1.3695
 3415SOL     OW11486   5.389   1.722   1.555  0.2093 -0.9511  0.4603
 3415SOL    HW111487   5.406   1.757   1.642  3.2128 -3.4489  0.9595
 3415SOL    HW211488   5.351   1.635   1.571 -0.3720 -0.9307 -0.7228
 3416SOL     OW11489   5.274   7.272   5.578  0.5135  0.1233 -0.1951
 3416SOL    HW111490   5.256   7.224   5.658  0.0609  0.8603  0.1466
 3416SOL    HW211491   5.328   7.212   5.526  0.3011 -0.5879  0.3981
 3417SOL     OW11492   0.511   8.220   3.126  0.6676 -0.0851 -0.0438
 3417SOL    HW111493   0.597   8.209   3.167  1.1976 -0.7315 -1.2754
 3417SOL    HW211494   0.512   8.159   3.052 -1.0341 -0.4352  0.1919
 3418SOL     OW11495   3.786   8.105   0.483  0.0991  0.2396 -0.2673
 3418SOL    HW111496   3.743   8.084   0.400  1.6054  1.6247 -1.4364
 3418SOL    HW211497   3.806   8.198   0.477 -1.2152  0.7267  2.3678
 3419SOL     OW11498   1.257   2.476   5.406  0.0174  0.2839  0.0195
 3419SOL    HW111499   1.242   2.564   5.372  1.4969 -0.5713 -3.0427
 3419SOL    HW211500   1.330   2.442   5.353  0.8602 -2.0252  2.5451
 3420SOL     OW11501   3.729   7.530   7.528  0.5150 -0.1141  0.0953
 3420SOL    HW111502   3.730   7.441   7.493 -0.7798  0.5350 -1.7123
 3420SOL    HW211503   3.797   7.576   7.479 -0.0562  0.3397 -0.2805
 3421SOL     OW11504   3.993   0.389   0.248  0.0125 -0.2938  0.0587
 3421SOL    HW111505   3.996   0.457   0.181 -1.6014  1.0871  1.3486
 3421SOL    HW211506   3.911   0.342   0.231 -0.6965  0.4465  1.4278
 3422SOL     OW11507   6.268   2.656   3.141  0.0752 -0.0574 -0.4088
 3422SOL    HW111508   6.341   2.624   3.193  1.0667  0.0815 -1.7017
 3422SOL    HW211509   6.194   2.600   3.167  1.2766 -2.0142 -1.0818
 3423SOL     OW11510   2.772   3.619   0.732 -0.4844 -0.2158 -0.1026
 3423SOL    HW111511   2.794   3.645   0.822 -0.2186  3.2449 -1.0828
 3423SOL    HW211512   2.855   3.594   0.693 -0.6254 -1.8990  0.6523
 3424SOL     OW11513   7.515   2.453   7.829  0.0613  0.2447  0.0202
 3424SOL    HW111514   7.558   2.409   7.902 -0.4180  0.9676  0.7535
 3424SOL    HW211515   7.580   2.454   7.759  0.0016 -1.8134 -0.0998
 3425SOL     OW11516   7.658   7.261   7.096 -0.8091 -0.3706 -0.2155
 3425SOL    HW111517   7.679   7.196   7.163  2.7778  1.8697  1.0516
 3425SOL    HW211518   7.723   7.245   7.027 -1.7872 -0.0024 -1.2207
 3426SOL     OW11519   7.849   4.263   5.262  0.2652  0.2783  0.0853
 3426SOL    HW111520   7.777   4.280   5.323 -0.3337  1.6074 -0.9767
 3426SOL    HW211521   7.928   4.287   5.312 -0.1833  0.9081  0.5056
 3427SOL     OW11522   1.269   6.748   1.907  0.0983  0.0882 -0.2447
 3427SOL    HW111523   1.276   6.715   1.818 -1.4518  0.4459 -0.5169
 3427SOL    HW211524   1.284   6.842   1.898  1.8261 -0.1296  0.1528
 3428SOL     OW11525   3.440   1.464   2.235 -0.2154 -0.3379  0.1349
 3428SOL    HW111526   3.526   1.446   2.198  0.2138 -1.7117  1.7312
 3428SOL    HW211527   3.432   1.559   2.233  1.4259 -0.1919  0.1362
 3429SOL     OW11528   7.204   2.536   4.435  0.0778  0.0937  0.0044
 3429SOL    HW111529   7.168   2.625   4.429 -2.1055 -0.7244  0.2536
 3429SOL    HW211530   7.232   2.516   4.346 -2.3425 -0.0939 -0.7710
 3430SOL     OW11531   7.453   5.657   1.533  0.1380  0.3761 -0.5429
 3430SOL    HW111532   7.440   5.672   1.439  0.0999 -0.0519 -0.6053
 3430SOL    HW211533   7.513   5.583   1.537  0.3149  0.5382 -0.2299
 3431SOL     OW11534   5.094   4.450   4.031 -0.4476 -0.2630 -0.6044
 3431SOL    HW111535   5.176   4.438   4.079 -0.9007  0.0106  0.2460
 3431SOL    HW211536   5.029   4.469   4.099 -0.8460  1.4281 -1.4425
 3432SOL     OW11537   5.193   6.314   2.006 -0.0204 -0.3381 -0.2235
 3432SOL    HW111538   5.186   6.338   1.914  0.4777  1.8409  0.2910
 3432SOL    HW211539   5.185   6.218   2.006 -1.1147 -0.2742 -2.4051
 3433SOL     OW11540   1.830   1.722   2.684 -0.3113  0.6499 -0.3236
 3433SOL    HW111541   1.899   1.661   2.658 -0.3842  0.5847 -0.3634
 3433SOL    HW211542   1.756   1.666   2.708  0.0639  0.6796  0.9318
 3434SOL     OW11543   2.742   3.262   3.278  0.1824  0.2883  0.4026
 3434SOL    HW111544   2.749   3.196   3.209 -1.8115  0.5650 -0.0883
 3434SOL    HW211545   2.658   3.244   3.320 -0.0752  2.0786  0.7115
 3435SOL     OW11546   0.896   4.912   3.935  0.0418  0.2350  0.4284
 3435SOL    HW111547   0.819   4.968   3.945 -0.5329 -0.5980  0.7311
 3435SOL    HW211548   0.933   4.937   3.851 -0.9984  0.1128 -0.0781
 3436SOL     OW11549   3.071   7.472   0.830  0.2343  0.1722 -0.4288
 3436SOL    HW111550   2.982   7.466   0.797 -0.0485  2.4272 -0.1504
 3436SOL    HW211551   3.063   7.517   0.914  1.6937  0.9121 -0.6693
 3437SOL     OW11552   0.046   0.925   7.693  0.2511  0.2867  0.0022
 3437SOL    HW111553  -0.017   0.853   7.682  1.1480 -0.6584  0.9496
 3437SOL    HW211554   0.122   0.898   7.642  0.6938  0.4326  0.5826
 3438SOL     OW11555   3.706   2.195   0.796  0.0464  0.3746 -0.0279
 3438SOL    HW111556   3.735   2.113   0.835  1.4667 -0.1471 -2.0634
 3438SOL    HW211557   3.638   2.228   0.855 -0.1895 -1.9995  1.0672
 3439SOL     OW11558   7.458   4.001   7.125 -0.2696  0.2208 -0.0945
 3439SOL    HW111559   7.511   4.073   7.090  2.7321 -1.6516  0.3702
 3439SOL    HW211560   7.477   4.001   7.219 -0.2457 -1.1441 -0.0888
 3440SOL     OW11561   3.278   7.714   3.106 -0.4237  0.8639 -0.2276
 3440SOL    HW111562   3.272   7.809   3.108 -1.9800  0.7779 -0.1943
 3440SOL    HW211563   3.245   7.686   3.192 -0.9844  0.2581 -0.6329
 3441SOL     OW11564   0.991   5.603   2.244 -0.1845 -0.1987  0.3285
 3441SOL    HW111565   0.964   5.646   2.325  0.3751  0.3373  0.2310
 3441SOL    HW211566   0.960   5.662   2.174 -1.4082 -1.0701  0.1186
 3442SOL     OW11567   1.286   0.427   4.522 -0.3419  1.1056 -0.2173
 3442SOL    HW111568   1.194   0.425   4.492 -0.2765  0.7946 -0.4077
 3442SOL    HW211569   1.290   0.359   4.589 -0.2781  1.1944 -0.1329
 3443SOL     OW11570   0.430   2.018   6.404  0.2969  0.0205  0.1096
 3443SOL    HW111571   0.413   1.945   6.345  2.3755  1.0295 -1.8227
 3443SOL    HW211572   0.413   1.983   6.492 -0.7179 -2.1512 -0.9301
 3444SOL     OW11573   4.737   5.104   7.369  0.0597  0.4912 -0.5411
 3444SOL    HW111574   4.680   5.149   7.431 -0.4814  1.5618 -1.7847
 3444SOL    HW211575   4.728   5.154   7.288  0.8949 -0.7692 -1.4295
 3445SOL     OW11576   1.735   4.237   0.949 -0.4196 -0.5520 -0.1441
 3445SOL    HW111577   1.654   4.286   0.964  1.1707  1.6412  1.5612
 3445SOL    HW211578   1.775   4.279   0.873  0.7963  0.6702  1.1348
 3446SOL     OW11579   4.679   4.057   5.032 -0.0282  0.1871  0.2989
 3446SOL    HW111580   4.724   3.973   5.021 -1.2698 -0.5321  0.5577
 3446SOL    HW211581   4.633   4.070   4.949  1.1762  1.2427 -0.2104
 3447SOL     OW11582   2.116   1.251   0.583  0.5289 -0.2240 -0.1177
 3447SOL    HW111583   2.172   1.303   0.640  1.8190 -1.2332 -0.4324
 3447SOL    HW211584   2.161   1.166   0.577 -0.4920 -0.6929 -1.2176
 3448SOL     OW11585   1.497   0.592   0.467  0.3312 -0.0750 -1.0469
 3448SOL    HW111586   1.508   0.505   0.430  0.3342 -0.7717  0.5561
 3448SOL    HW211587   1.529   0.584   0.557 -1.5232  1.0505 -0.2632
 3449SOL     OW11588   3.235   7.351   6.499 -0.3953  0.1559 -0.0002
 3449SOL    HW111589   3.163   7.407   6.528 -0.9621 -0.7250  0.3079
 3449SOL    HW211590   3.291   7.343   6.577 -0.5139 -0.0243  0.0658
 3450SOL     OW11591   4.596   3.666   1.713 -0.6160  0.4184  0.0622
 3450SOL    HW111592   4.585   3.759   1.733  0.0730  0.9376 -1.8725
 3450SOL    HW211593   4.604   3.663   1.617 -1.5309 -1.7292  0.0369
 3451SOL     OW11594   4.331   6.046   4.522  0.0879  0.2764 -0.2756
 3451SOL    HW111595   4.291   6.131   4.502 -0.5445  0.1293  0.3302
 3451SOL    HW211596   4.260   5.996   4.561  0.6575 -0.2810  0.0398
 3452SOL     OW11597   1.337   2.411   0.504 -0.1355 -0.8499 -0.0324
 3452SOL    HW111598   1.285   2.434   0.581  1.2707  0.0374  0.6839
 3452SOL    HW211599   1.428   2.417   0.534  0.4331 -0.4883 -1.7652
 3453SOL     OW11600   7.296   2.933   7.737 -0.5413 -0.3740 -0.3531
 3453SOL    HW111601   7.233   2.868   7.767 -1.7841  0.5099 -1.0490
 3453SOL    HW211602   7.363   2.934   7.806 -2.2031 -0.0249  1.3078
 3454SOL     OW11603   6.685   2.694   5.397 -1.0313  0.1513 -0.0881
 3454SOL    HW111604   6.620   2.677   5.465 -0.1449 -1.5744  0.3517
 3454SOL    HW211605   6.741   2.616   5.397 -0.2185  0.7053 -1.8793
 3455SOL     OW11606   3.742   3.729   2.075  0.3071 -0.0076 -0.3375
 3455SOL    HW111607   3.712   3.648   2.117 -1.8091  1.8185  1.8268
 3455SOL    HW211608   3.836   3.715   2.062  0.5258 -1.7932  2.5169
 3456SOL     OW11609   4.834   0.378   5.152 -0.4374 -0.3258  0.0352
 3456SOL    HW111610   4.814   0.410   5.064 -0.3709 -2.3668 -0.7389
 3456SOL    HW211611   4.753   0.336   5.181 -0.5690  0.6387  1.0949
 3457SOL     OW11612   3.751   2.315   3.507  0.3518 -0.0991 -0.1419
 3457SOL    HW111613   3.667   2.268   3.510  0.1284  0.2657 -0.7091
 3457SOL    HW211614   3.788   2.292   3.422 -0.6889  2.3405 -1.2900
 3458SOL     OW11615   5.290   6.469   0.515  0.4776  0.1494 -0.2681
 3458SOL    HW111616   5.266   6.557   0.544 -0.0058 -0.4297  1.1390
 3458SOL    HW211617   5.361   6.443   0.574  0.4916 -0.4658 -0.5584
 3459SOL     OW11618   1.013   0.388   7.078 -0.1268  0.0650 -0.3137
 3459SOL    HW111619   1.080   0.368   7.012  1.7037  1.0576  1.1700
 3459SOL    HW211620   0.987   0.478   7.059  0.9355  0.6131  0.6960
 3460SOL     OW11621   4.442   1.122   0.567 -0.2082  0.1482 -0.1118
 3460SOL    HW111622   4.432   1.211   0.601  0.1406  1.3309 -2.9876
 3460SOL    HW211623   4.397   1.067   0.631  0.2982  2.2750  2.1713
 3461SOL     OW11624   2.185   5.995   8.138 -0.5338 -0.7729 -0.1963
 3461SOL    HW111625   2.279   5.981   8.129 -0.3438  0.0479  0.5737
 3461SOL    HW211626   2.166   6.071   8.083 -0.7299 -0.8341 -0.2160
 3462SOL     OW11627   4.348   2.095   5.818  0.4797 -0.2650 -0.2537
 3462SOL    HW111628   4.396   2.176   5.796  0.1592 -0.1871 -0.6773
 3462SOL    HW211629   4.357   2.041   5.740 -0.1747 -0.2271 -0.3559
 3463SOL     OW11630   6.865   1.972   1.016 -0.4306 -0.0527  0.3013
 3463SOL    HW111631   6.924   2.039   1.052  1.6493 -0.6972 -1.7747
 3463SOL    HW211632   6.803   2.022   0.962  2.7066  0.1078 -3.3598
 3464SOL     OW11633   7.992   6.554   4.958  0.0695  0.3418  0.3256
 3464SOL    HW111634   8.032   6.488   5.014  0.4214  1.0962  0.9655
 3464SOL    HW211635   7.920   6.590   5.011 -1.1326 -0.6418 -0.6176
 3465SOL     OW11636   2.892   3.240   6.646  0.1060  0.3555 -0.3747
 3465SOL    HW111637   2.959   3.219   6.581  0.8481  1.3419  0.0469
 3465SOL    HW211638   2.942   3.269   6.723 -0.6988 -2.1200  1.1412
 3466SOL     OW11639   4.259   2.005   1.747 -1.0445  0.0985  0.5120
 3466SOL    HW111640   4.305   2.072   1.796 -0.3845  0.3516 -0.4338
 3466SOL    HW211641   4.307   1.924   1.766 -0.4140  0.3015 -0.1916
 3467SOL     OW11642   4.785   3.067   3.099  0.7445 -0.4735  0.4716
 3467SOL    HW111643   4.832   3.036   3.022  0.3188 -0.0410  0.0321
 3467SOL    HW211644   4.827   3.023   3.173  1.2581 -0.7645  0.0055
 3468SOL     OW11645   1.784   1.087   4.543 -0.3104 -0.6549 -0.3154
 3468SOL    HW111646   1.801   1.123   4.456  0.1971  0.0379  0.0603
 3468SOL    HW211647   1.867   1.046   4.568 -0.4974 -0.9715 -0.2095
 3469SOL     OW11648   3.461   2.751   5.060 -0.0639 -0.2359 -0.5591
 3469SOL    HW111649   3.377   2.721   5.096 -0.0512 -0.7910 -0.9995
 3469SOL    HW211650   3.499   2.674   5.019  0.7955 -0.0523 -0.1203
 3470SOL     OW11651   2.157   4.514   7.179 -0.9278 -0.3073  0.1169
 3470SOL    HW111652   2.211   4.520   7.258 -0.0650  2.9157 -0.6433
 3470SOL    HW211653   2.086   4.576   7.193 -0.1121  1.2087 -2.0911
 3471SOL     OW11654   3.581   2.913   6.540 -0.2240  0.5601 -0.3733
 3471SOL    HW111655   3.644   2.978   6.507  2.2919 -1.7839 -0.3976
 3471SOL    HW211656   3.631   2.863   6.605 -1.3731 -2.8238 -2.0095
 3472SOL     OW11657   7.092   7.614   3.943 -0.1906  0.3625 -0.5530
 3472SOL    HW111658   7.103   7.548   4.012 -2.2539 -2.3688 -2.7343
 3472SOL    HW211659   7.176   7.613   3.896  0.1688  0.0640  0.0792
 3473SOL     OW11660   7.412   2.614   7.273  0.0919  0.5940 -0.5479
 3473SOL    HW111661   7.438   2.553   7.342  1.0943 -1.4311 -2.6825
 3473SOL    HW211662   7.434   2.700   7.309  2.5230 -0.5597  0.8568
 3474SOL     OW11663   3.495   3.130   0.966 -0.1113 -0.2198  0.4847
 3474SOL    HW111664   3.583   3.165   0.981 -0.2742 -0.2193  1.4941
 3474SOL    HW211665   3.461   3.114   1.054 -0.9916 -0.5430  0.0863
 3475SOL     OW11666   2.644   3.092   7.331 -0.2455 -0.4412 -0.5505
 3475SOL    HW111667   2.591   3.015   7.354 -0.7527 -0.4400 -1.6487
 3475SOL    HW211668   2.580   3.160   7.311  0.2033  0.6436  1.5456
 3476SOL     OW11669   1.200   2.331   2.748 -0.5023 -0.1660 -0.1088
 3476SOL    HW111670   1.247   2.279   2.682 -0.6810 -0.1655 -0.2357
 3476SOL    HW211671   1.210   2.422   2.718 -0.8285 -0.1906 -0.2878
 3477SOL     OW11672   1.619   4.971   7.078 -0.4271 -0.4953  0.6643
 3477SOL    HW111673   1.619   5.029   7.154 -0.5650 -0.2072  0.4450
 3477SOL    HW211674   1.711   4.967   7.051 -0.4640 -0.1248  0.4863
 3478SOL     OW11675   1.517   0.058   2.675  0.6676  0.0222  0.3714
 3478SOL    HW111676   1.455   0.128   2.696  0.3020 -0.1909  0.0036
 3478SOL    HW211677   1.563   0.089   2.597  0.6721 -0.0395  0.3493
 3479SOL     OW11678   4.182   4.699   4.717  0.0063 -0.1825 -0.4030
 3479SOL    HW111679   4.163   4.772   4.775  1.3811  0.7991 -1.1534
 3479SOL    HW211680   4.097   4.672   4.683 -0.8296 -0.8675  2.1398
 3480SOL     OW11681   3.236   3.662   4.631 -0.8258 -0.2940  0.3126
 3480SOL    HW111682   3.181   3.644   4.555  1.1057 -0.3365 -1.1274
 3480SOL    HW211683   3.191   3.620   4.704 -2.0344 -1.4102 -1.0439
 3481SOL     OW11684   7.039   0.826   4.977  0.0102 -0.0218  1.0527
 3481SOL    HW111685   7.096   0.760   4.938  0.6809  0.9190  0.4380
 3481SOL    HW211686   7.047   0.902   4.920 -2.8777 -0.3025  0.1857
 3482SOL     OW11687   2.089   2.545   6.650  0.2893  0.3396 -0.2798
 3482SOL    HW111688   2.047   2.465   6.683 -1.6488  0.4395 -2.3617
 3482SOL    HW211689   2.149   2.513   6.582  0.2211  0.5715 -0.4490
 3483SOL     OW11690   5.283   3.684   4.497  0.4484 -0.3104  0.2848
 3483SOL    HW111691   5.222   3.636   4.553 -2.1468 -0.1071 -2.3038
 3483SOL    HW211692   5.302   3.764   4.545 -2.2378  0.1492  0.6123
 3484SOL     OW11693   4.592   3.712   3.548  0.0190  0.0372 -0.5871
 3484SOL    HW111694   4.500   3.738   3.544  0.1046  0.0594 -2.5738
 3484SOL    HW211695   4.640   3.789   3.519  0.6556 -0.0820  0.1372
 3485SOL     OW11696   4.284   6.675   7.001  0.1814 -0.2287  0.0713
 3485SOL    HW111697   4.333   6.750   7.035  0.4274  0.3106 -1.4313
 3485SOL    HW211698   4.234   6.710   6.927 -2.0764 -0.8907  1.2178
 3486SOL     OW11699   6.018   1.657   7.760  0.1973 -0.7317 -0.4949
 3486SOL    HW111700   6.097   1.643   7.813 -0.2641 -0.2551  0.3271
 3486SOL    HW211701   5.972   1.574   7.763  0.5595 -0.9420 -0.7874
 3487SOL     OW11702   0.949   1.515   2.798  0.1336  0.2486  0.1637
 3487SOL    HW111703   0.904   1.496   2.881 -0.1225 -0.7766 -0.1985
 3487SOL    HW211704   1.041   1.501   2.817  0.0202 -0.5804  0.1217
 3488SOL     OW11705   1.595   7.688   7.150  0.4673  0.4933  0.0493
 3488SOL    HW111706   1.651   7.611   7.136  0.1618  0.2179  0.3147
 3488SOL    HW211707   1.656   7.761   7.159  0.7219  0.4194 -1.0986
 3489SOL     OW11708   4.040   1.348   5.637  0.2728  0.3113  0.1808
 3489SOL    HW111709   4.116   1.399   5.666  0.9571 -1.3320  1.3547
 3489SOL    HW211710   4.044   1.352   5.542  1.2851  1.0330  0.2345
 3490SOL     OW11711   3.377   0.605   0.068 -0.1033  0.0556 -0.2456
 3490SOL    HW111712   3.433   0.674   0.034  1.1869 -0.1560  1.3638
 3490SOL    HW211713   3.394   0.604   0.162 -1.1427 -1.5143 -0.0419
 3491SOL     OW11714   8.167   4.630   8.008 -0.1576  0.0968  0.3727
 3491SOL    HW111715   8.128   4.551   7.970  1.3347 -1.2629  1.6521
 3491SOL    HW211716   8.134   4.701   7.952 -0.0608 -1.5827 -1.9160
 3492SOL     OW11717   4.241   2.388   3.876  0.3951 -0.3167 -0.0541
 3492SOL    HW111718   4.316   2.437   3.843  0.0326  0.3535  0.0985
 3492SOL    HW211719   4.218   2.431   3.958 -0.2433 -0.4160 -0.1722
 3493SOL     OW11720   2.269   5.051   7.954  0.4278 -0.3053 -0.3797
 3493SOL    HW111721   2.283   5.012   7.868 -0.6479 -1.2042 -0.1612
 3493SOL    HW211722   2.176   5.034   7.973  0.8107 -0.6721  1.2268
 3494SOL     OW11723   1.670   6.847   7.594  0.5713 -0.1376  0.6248
 3494SOL    HW111724   1.754   6.808   7.619  0.7009 -0.4107 -0.2180
 3494SOL    HW211725   1.693   6.911   7.527  0.3301  1.2336  1.8516
 3495SOL     OW11726   6.115   8.022   6.770  0.1063  0.0866  0.3631
 3495SOL    HW111727   6.182   8.087   6.792  0.0957  0.0242  0.5800
 3495SOL    HW211728   6.042   8.074   6.736  0.3645  0.1364 -0.1363
 3496SOL     OW11729   7.560   6.686   0.425  0.2909  0.1836  0.0316
 3496SOL    HW111730   7.622   6.746   0.383 -0.0130 -0.1226 -0.8541
 3496SOL    HW211731   7.609   6.605   0.435 -0.0082 -0.1037 -0.8018
 3497SOL     OW11732   8.186   7.021   7.604 -0.0911  0.7683  0.4326
 3497SOL    HW111733   8.218   7.082   7.670 -0.2318  0.8735  0.4059
 3497SOL    HW211734   8.222   6.936   7.629  0.4870  0.9430  0.2068
 3498SOL     OW11735   4.645   1.861   0.139  0.6617 -0.2928  0.3366
 3498SOL    HW111736   4.707   1.928   0.167  2.2074 -1.0583 -1.1825
 3498SOL    HW211737   4.658   1.854   0.044  0.0354 -2.2437  0.3775
 3499SOL     OW11738   2.606   3.096   2.880 -0.5276 -0.1193  0.0983
 3499SOL    HW111739   2.582   3.188   2.892 -0.2518  0.0021 -0.2717
 3499SOL    HW211740   2.529   3.048   2.909 -0.5664  0.2201  0.5572
 3500SOL     OW11741   1.911   2.695   3.831 -0.0853 -0.4481  0.2289
 3500SOL    HW111742   1.897   2.606   3.800  2.7978 -0.4233 -1.2986
 3500SOL    HW211743   1.971   2.685   3.905  0.5636  0.2363 -0.1980
 3501SOL     OW11744   7.993   2.945   3.092 -0.5141  0.3972  0.1959
 3501SOL    HW111745   7.984   2.908   3.004 -0.6054  2.8510 -0.8798
 3501SOL    HW211746   7.968   2.874   3.151 -0.5261 -1.2656 -1.7671
 3502SOL     OW11747   7.807   4.254   4.534 -0.2112  0.0653  0.1098
 3502SOL    HW111748   7.765   4.338   4.551 -0.5242 -0.4027  1.7467
 3502SOL    HW211749   7.901   4.270   4.546  0.0762  0.9524 -2.8918
 3503SOL     OW11750   2.989   2.195   5.635  0.1401 -0.4006 -0.2611
 3503SOL    HW111751   2.901   2.163   5.616 -0.1306  0.4497 -0.4713
 3503SOL    HW211752   3.046   2.144   5.577 -0.5968  1.5779 -2.8327
 3504SOL     OW11753   3.975   5.725   5.112  0.1995  0.2995 -0.0124
 3504SOL    HW111754   4.019   5.737   5.196  1.5108  1.3033 -0.8151
 3504SOL    HW211755   3.972   5.630   5.100  1.6923  0.1942  0.3190
 3505SOL     OW11756   7.805   5.973   3.475 -0.3844 -0.2569 -0.3068
 3505SOL    HW111757   7.811   6.046   3.537  1.0283  0.2913 -1.0683
 3505SOL    HW211758   7.885   5.923   3.489 -0.7256 -0.9303 -0.7092
 3506SOL     OW11759   0.890   4.553   2.090 -0.4032  0.2421  0.5363
 3506SOL    HW111760   0.934   4.598   2.018  2.4553  0.0215  2.0809
 3506SOL    HW211761   0.878   4.621   2.156 -0.8299 -0.1113  0.8224
 3507SOL     OW11762   5.051   3.463   2.508  0.2668  0.6655 -0.3766
 3507SOL    HW111763   5.039   3.542   2.455 -0.1400 -0.8918 -2.6994
 3507SOL    HW211764   4.966   3.450   2.551 -0.9291 -0.4838 -2.9061
 3508SOL     OW11765   3.903   2.689   5.933 -0.1301  0.0599 -0.1822
 3508SOL    HW111766   3.997   2.681   5.954 -0.0383  1.2853 -0.1305
 3508SOL    HW211767   3.890   2.627   5.861  0.9795  0.7854 -1.0093
 3509SOL     OW11768   0.103   6.121   3.892 -0.8103  0.1779 -0.2315
 3509SOL    HW111769   0.031   6.111   3.831 -0.6231  1.2465 -0.6340
 3509SOL    HW211770   0.120   6.032   3.925  0.1281 -0.6806 -2.9214
 3510SOL     OW11771   3.044   1.491   5.699 -0.0496  0.0405  0.6666
 3510SOL    HW111772   3.051   1.402   5.734 -1.2685  0.4508  1.9915
 3510SOL    HW211773   3.033   1.547   5.775  0.1423  1.2858 -0.1941
 3511SOL     OW11774   3.527   4.992   1.119  0.3691  0.2948 -0.0620
 3511SOL    HW111775   3.444   5.039   1.120  0.0189 -0.2685 -1.3185
 3511SOL    HW211776   3.513   4.917   1.177 -0.1161  0.0155 -0.5371
 3512SOL     OW11777   1.265   0.012   1.537 -0.1242 -0.1438 -0.2245
 3512SOL    HW111778   1.344  -0.004   1.485  0.9441  0.5405  1.1438
 3512SOL    HW211779   1.207  -0.061   1.516  0.0617  0.4040 -2.7772
 3513SOL     OW11780   4.829   3.935   0.447 -0.5102  0.1744  0.2340
 3513SOL    HW111781   4.842   3.855   0.497 -0.3819 -0.1318 -0.2835
 3513SOL    HW211782   4.744   3.969   0.477 -0.4558 -0.0326  0.6164
 3514SOL     OW11783   2.241   2.302   7.026  0.1728  0.3930 -0.7391
 3514SOL    HW111784   2.318   2.360   7.024 -0.1304  0.9396  1.9806
 3514SOL    HW211785   2.256   2.245   7.101 -2.2573  0.7768  0.0848
 3515SOL     OW11786   4.846   7.886   7.936 -0.2411 -0.0056  0.9170
 3515SOL    HW111787   4.850   7.896   7.841  1.3578  0.0014  0.9641
 3515SOL    HW211788   4.784   7.815   7.951  0.4257 -0.8370 -0.1962
 3516SOL     OW11789   0.714   4.672   4.856  0.0682 -0.0143  0.3140
 3516SOL    HW111790   0.671   4.702   4.936  0.0468 -3.1660  1.5594
 3516SOL    HW211791   0.738   4.752   4.810 -2.9165  1.8316  1.8587
 3517SOL     OW11792   5.487   0.609   2.181  0.3825 -0.1342  0.1943
 3517SOL    HW111793   5.568   0.626   2.230  0.8559  1.4468 -1.1181
 3517SOL    HW211794   5.516   0.563   2.102 -0.0553  0.0302 -0.0632
 3518SOL     OW11795   7.983   5.199   7.300  0.2364  0.2058  0.5020
 3518SOL    HW111796   8.063   5.169   7.342  0.3687  2.4313  1.9159
 3518SOL    HW211797   7.913   5.150   7.343  0.6577 -0.0787  0.8647
 3519SOL     OW11798   2.764   1.113   7.536  0.7461 -0.1294  0.2174
 3519SOL    HW111799   2.720   1.193   7.508  1.0753  0.2557  0.7779
 3519SOL    HW211800   2.716   1.043   7.493 -0.4668  0.2730  0.8927
 3520SOL     OW11801   7.895   6.115   1.285 -0.1488 -0.2876 -0.3844
 3520SOL    HW111802   7.877   6.025   1.255 -0.4939 -0.3267 -0.0599
 3520SOL    HW211803   7.827   6.132   1.350  0.2162  0.0312 -0.0898
 3521SOL     OW11804   8.065   7.011   3.189  0.1843  0.4108 -0.7207
 3521SOL    HW111805   8.044   7.064   3.112  0.6880  0.4201 -0.8576
 3521SOL    HW211806   8.148   6.969   3.167 -0.1992 -0.4192 -0.6024
 3522SOL     OW11807   7.527   5.917   4.603  0.1762  0.5203 -0.2573
 3522SOL    HW111808   7.504   5.995   4.654  1.0878  0.9543 -0.4986
 3522SOL    HW211809   7.619   5.902   4.623  0.0193 -0.4805 -0.2441
 3523SOL     OW11810   4.451   4.191   7.071 -0.0618  0.0376 -0.6473
 3523SOL    HW111811   4.358   4.175   7.090 -0.0779 -0.2277 -0.9307
 3523SOL    HW211812   4.473   4.269   7.121 -0.2230 -0.3725  0.0711
 3524SOL     OW11813   8.124   5.795   6.284  0.0204  0.3470 -0.0170
 3524SOL    HW111814   8.048   5.741   6.262 -1.2580  0.9681  2.6098
 3524SOL    HW211815   8.174   5.743   6.347 -0.1027  1.3272  0.9150
 3525SOL     OW11816   4.765   7.007   2.716  0.1232  0.0331 -0.5059
 3525SOL    HW111817   4.785   7.062   2.792  0.9219 -1.3821  0.3390
 3525SOL    HW211818   4.672   7.020   2.700 -0.4434 -0.9997  1.8235
 3526SOL     OW11819   7.116   3.759   4.532  0.0620  0.2730 -0.6021
 3526SOL    HW111820   7.139   3.816   4.605 -0.8625  0.3825 -0.3916
 3526SOL    HW211821   7.090   3.676   4.573  0.7270 -0.0809 -0.8748
 3527SOL     OW11822   0.082   1.544   3.288 -0.0340 -0.6811  0.0321
 3527SOL    HW111823   0.108   1.478   3.353  1.7861 -0.6415 -0.6362
 3527SOL    HW211824   0.145   1.534   3.217 -0.1549  1.3257 -0.3897
 3528SOL     OW11825   1.635   0.233   6.844  0.3357  0.3228  0.3970
 3528SOL    HW111826   1.700   0.167   6.870  0.6179  1.0148  1.4654
 3528SOL    HW211827   1.664   0.313   6.887 -0.8077  0.8106  0.2620
 3529SOL     OW11828   1.934   1.559   6.130  0.5582  0.3435  0.2788
 3529SOL    HW111829   1.896   1.645   6.117 -1.4936 -0.5154  0.4152
 3529SOL    HW211830   1.913   1.536   6.221  4.0590  1.1015  1.3593
 3530SOL     OW11831   5.290   2.520   7.017 -0.6818  0.4695 -0.4613
 3530SOL    HW111832   5.374   2.482   6.992 -0.8401 -0.1740 -0.0254
 3530SOL    HW211833   5.253   2.552   6.934 -0.6144 -0.4666 -0.8603
 3531SOL     OW11834   1.350   5.938   6.498 -0.7309 -0.3899 -0.0849
 3531SOL    HW111835   1.436   5.969   6.469 -0.6331  2.2080  2.7066
 3531SOL    HW211836   1.358   5.933   6.594 -3.3049 -1.3366  0.1053
 3532SOL     OW11837   4.332   5.898   2.826  0.7547  0.3627  0.9549
 3532SOL    HW111838   4.403   5.954   2.793  1.5174  1.1470  3.8416
 3532SOL    HW211839   4.271   5.892   2.752  1.2013  4.0733  0.1742
 3533SOL     OW11840   3.303   2.954   1.965 -0.2268 -0.3564 -0.3707
 3533SOL    HW111841   3.395   2.929   1.961 -0.9274 -2.9146 -2.0799
 3533SOL    HW211842   3.277   2.965   1.874 -1.1266  2.4224  0.1749
 3534SOL     OW11843   5.531   7.654   4.915  0.1213  0.5468  0.3598
 3534SOL    HW111844   5.501   7.738   4.949 -0.5474  0.5193 -0.1349
 3534SOL    HW211845   5.608   7.633   4.967 -0.7564  0.5992  1.7378
 3535SOL     OW11846   3.739   8.268   2.091 -0.1562 -0.2911  0.9341
 3535SOL    HW111847   3.823   8.313   2.085  0.7210 -2.1163 -0.9763
 3535SOL    HW211848   3.742   8.226   2.177  0.6652  0.0609  1.0898
 3536SOL     OW11849   6.059   5.247   7.954  0.4505  0.0398 -0.2301
 3536SOL    HW111850   5.996   5.194   8.003 -0.4673  0.2917 -1.1200
 3536SOL    HW211851   6.140   5.243   8.006 -0.5320  0.3906  1.3266
 3537SOL     OW11852   1.137   0.776   7.347  0.0779 -0.2222  0.1795
 3537SOL    HW111853   1.183   0.693   7.361  0.6987 -0.0201 -0.6329
 3537SOL    HW211854   1.186   0.840   7.399  1.9230  0.3781 -2.2159
 3538SOL     OW11855   5.317   2.363   2.040 -0.1263  0.2085  0.1717
 3538SOL    HW111856   5.285   2.453   2.045 -0.3928  0.0976  0.4227
 3538SOL    HW211857   5.357   2.358   1.953 -0.5185  0.4329 -0.0251
 3539SOL     OW11858   2.609   0.452   3.891  0.0358  0.2827  0.2191
 3539SOL    HW111859   2.660   0.446   3.972  0.0246 -0.4288  0.1800
 3539SOL    HW211860   2.673   0.440   3.822 -0.3300 -1.6935  0.1975
 3540SOL     OW11861   0.343   5.367   1.367  0.0375  0.0126  0.3092
 3540SOL    HW111862   0.324   5.460   1.356 -1.2833 -0.4574 -1.6159
 3540SOL    HW211863   0.438   5.362   1.373  0.0153  1.6991  2.7433
 3541SOL     OW11864   6.581   7.534   5.416 -0.2284  0.4369 -0.4800
 3541SOL    HW111865   6.598   7.451   5.461  0.7355 -0.4555 -2.4394
 3541SOL    HW211866   6.663   7.555   5.373 -2.4623 -1.4140 -6.0435
 3542SOL     OW11867   0.610   2.481   1.329  0.1098 -0.2039 -0.1285
 3542SOL    HW111868   0.575   2.394   1.343 -0.0725 -0.1888 -0.4850
 3542SOL    HW211869   0.552   2.539   1.378 -1.1638 -0.0353 -1.7873
 3543SOL     OW11870   0.457   7.536   5.396 -0.0301  0.0583  0.4305
 3543SOL    HW111871   0.388   7.597   5.371  0.2980  0.2712  0.0396
 3543SOL    HW211872   0.437   7.513   5.487 -1.3808 -0.9141 -0.0829
 3544SOL     OW11873   5.117   7.623   6.105  0.3321 -0.1237 -0.2308
 3544SOL    HW111874   5.194   7.610   6.160  0.2077 -0.9834 -0.2496
 3544SOL    HW211875   5.044   7.631   6.167  0.5320  1.5092 -0.1783
 3545SOL     OW11876   1.259   8.048   2.127 -0.0757  0.2840  0.0142
 3545SOL    HW111877   1.239   8.129   2.174 -1.6818 -0.3328  0.4137
 3545SOL    HW211878   1.308   7.995   2.189  0.1945  0.5816  0.0567
 3546SOL     OW11879   6.178   1.053   1.570 -0.3615 -0.0155 -0.0080
 3546SOL    HW111880   6.214   0.988   1.510  3.1414  0.8501  1.0672
 3546SOL    HW211881   6.150   1.003   1.646 -0.8999 -0.6140 -0.5878
 3547SOL     OW11882   5.610   0.958   4.019  0.4507 -0.3022 -0.3929
 3547SOL    HW111883   5.674   0.936   3.952  0.1885  0.5088 -0.9221
 3547SOL    HW211884   5.625   0.895   4.089  2.3828  0.4266 -0.1484
 3548SOL     OW11885   4.557   1.993   6.830  0.1326 -0.2560  0.4700
 3548SOL    HW111886   4.626   1.940   6.790  1.0697 -0.3652  2.1714
 3548SOL    HW211887   4.564   1.973   6.924 -1.2239  0.8966  0.8246
 3549SOL     OW11888   0.630   2.253   5.019 -0.4229 -0.3656  0.4086
 3549SOL    HW111889   0.547   2.268   4.975  0.1609 -0.6830 -0.8121
 3549SOL    HW211890   0.611   2.181   5.080 -1.2523  0.1498  0.7750
 3550SOL     OW11891   7.120   7.027   5.087  0.0769 -0.0141  0.4456
 3550SOL    HW111892   7.101   7.008   4.995 -1.0974 -1.5976  1.0022
 3550SOL    HW211893   7.135   7.122   5.089  0.1338  0.0355 -1.3745
 3551SOL     OW11894   4.454   7.439   5.572  0.5120  0.1771  0.2709
 3551SOL    HW111895   4.429   7.395   5.491  0.6943 -0.9979  0.8501
 3551SOL    HW211896   4.522   7.383   5.610  1.9688  1.8302  0.1570
 3552SOL     OW11897   1.369   8.188   5.940 -0.0817  0.4667 -0.1616
 3552SOL    HW111898   1.352   8.121   6.005 -1.4947  0.2187 -0.7712
 3552SOL    HW211899   1.342   8.149   5.857 -1.1831  1.8571 -0.4862
 3553SOL     OW11900   0.662   1.217   1.383 -0.3902  0.3738 -0.2057
 3553SOL    HW111901   0.620   1.239   1.467 -0.7419  1.4181 -0.6417
 3553SOL    HW211902   0.749   1.188   1.407 -1.5163 -2.3649  0.7632
 3554SOL     OW11903   6.001   2.788   7.503 -0.1288 -0.6662  0.2342
 3554SOL    HW111904   5.974   2.697   7.519  0.3506 -0.8617 -0.0587
 3554SOL    HW211905   5.939   2.820   7.437  0.1705 -1.0189 -0.2184
 3555SOL     OW11906   5.552   1.882   2.024 -0.4738  0.1575  0.3648
 3555SOL    HW111907   5.542   1.884   2.119  1.5232 -0.6065  0.6401
 3555SOL    HW211908   5.627   1.939   2.007 -0.2286 -0.4406 -0.6302
 3556SOL     OW11909   3.851   0.254   6.286 -0.0364 -0.6810 -0.3056
 3556SOL    HW111910   3.856   0.247   6.191  0.2546 -0.2172 -0.3276
 3556SOL    HW211911   3.767   0.296   6.304  0.3987  0.2460 -0.4148
 3557SOL     OW11912   1.654   3.096   0.634  0.2080 -0.0045  0.3574
 3557SOL    HW111913   1.660   3.167   0.570 -0.4487  1.1048  1.4884
 3557SOL    HW211914   1.561   3.073   0.635  0.2582 -0.1967  0.7146
 3558SOL     OW11915   8.177   5.693   6.770 -0.1074  0.0008 -0.0176
 3558SOL    HW111916   8.140   5.780   6.784 -2.3143 -0.7666 -0.7753
 3558SOL    HW211917   8.155   5.672   6.679 -0.4094 -1.6924  0.4230
 3559SOL     OW11918   1.814   1.436   8.032  0.3043  0.4576 -0.5409
 3559SOL    HW111919   1.826   1.510   7.972  0.0057  1.7473  0.9652
 3559SOL    HW211920   1.734   1.394   8.001 -0.4172  1.7253 -0.4437
 3560SOL     OW11921   4.950   2.695   6.882  1.1659 -0.3354 -0.1398
 3560SOL    HW111922   4.912   2.755   6.819 -1.0399 -1.0105  0.4844
 3560SOL    HW211923   4.965   2.748   6.961 -0.4918 -0.5174  0.3104
 3561SOL     OW11924   0.920   0.140   7.133 -0.5459 -0.0375 -0.2305
 3561SOL    HW111925   0.960   0.226   7.131  0.5791 -0.5063  1.1907
 3561SOL    HW211926   0.985   0.084   7.175 -0.9620 -1.7388 -1.7859
 3562SOL     OW11927   2.655   5.594   2.257 -0.3529 -0.3957 -0.2663
 3562SOL    HW111928   2.610   5.581   2.174 -0.4169 -3.8242  0.2243
 3562SOL    HW211929   2.589   5.572   2.323  0.7726 -1.3394  0.5684
 3563SOL     OW11930   1.842   7.442   7.446 -0.1592 -0.2474 -0.4077
 3563SOL    HW111931   1.774   7.393   7.400  0.8120 -0.6574 -1.4499
 3563SOL    HW211932   1.816   7.439   7.538 -0.6328 -1.8952 -0.5674
 3564SOL     OW11933   5.613   1.364   5.887  0.8314  0.3150  0.3618
 3564SOL    HW111934   5.665   1.377   5.807 -1.0518  0.7458 -0.8334
 3564SOL    HW211935   5.647   1.282   5.924  2.1447  0.4221 -0.5455
 3565SOL     OW11936   7.760   4.801   6.015 -0.0131 -0.4322 -0.5083
 3565SOL    HW111937   7.697   4.729   6.028  1.6807 -1.4634  2.2603
 3565SOL    HW211938   7.749   4.857   6.092  4.9217 -2.5732  1.9471
 3566SOL     OW11939   8.039   7.912   5.715 -0.0563 -0.2642  0.3851
 3566SOL    HW111940   7.956   7.956   5.734 -1.0510 -0.1755 -3.7939
 3566SOL    HW211941   8.102   7.983   5.703 -0.4207 -0.1604 -0.9451
 3567SOL     OW11942   3.237   4.853   8.192  0.1859  0.1287  1.0498
 3567SOL    HW111943   3.329   4.856   8.219 -0.0757  0.2085  1.9601
 3567SOL    HW211944   3.189   4.831   8.273 -0.5549 -0.3135  0.4983
 3568SOL     OW11945   5.489   6.931   2.691 -0.2315  0.2640 -0.3457
 3568SOL    HW111946   5.490   7.015   2.645 -1.0626  0.1569 -0.5558
 3568SOL    HW211947   5.470   6.867   2.623  0.8545 -0.1559 -0.2678
 3569SOL     OW11948   7.021   2.780   5.901  0.0515 -0.0607 -0.0279
 3569SOL    HW111949   6.928   2.801   5.903 -0.1007 -0.8462  2.7241
 3569SOL    HW211950   7.064   2.857   5.939  0.4196 -0.2209 -0.1159
 3570SOL     OW11951   6.157   4.252   7.031  0.4447 -0.1385 -0.4098
 3570SOL    HW111952   6.230   4.244   7.091  0.6252  0.7233 -0.5076
 3570SOL    HW211953   6.084   4.210   7.076  0.2133  1.7413  1.0603
 3571SOL     OW11954   5.487   4.143   0.756 -0.0925 -0.4173 -0.1847
 3571SOL    HW111955   5.409   4.142   0.811  1.3253 -1.1287  1.8832
 3571SOL    HW211956   5.487   4.230   0.716 -1.1054  0.1597  1.0210
 3572SOL     OW11957   1.946   3.317   5.047  0.3144  0.1804 -0.6426
 3572SOL    HW111958   1.916   3.330   5.136  0.7519  1.4687 -0.6797
 3572SOL    HW211959   1.871   3.340   4.992  0.7718  1.5811 -0.6782
 3573SOL     OW11960   3.344   6.118   2.469 -0.3068 -0.2355  0.2954
 3573SOL    HW111961   3.374   6.183   2.532 -0.3055  1.5345 -1.4893
 3573SOL    HW211962   3.424   6.092   2.422 -0.6826  0.3636 -0.6978
 3574SOL     OW11963   2.875   2.860   1.865 -0.0710  0.0636 -0.0786
 3574SOL    HW111964   2.861   2.873   1.959 -0.5694 -0.5408 -0.0653
 3574SOL    HW211965   2.964   2.892   1.849  0.5975 -1.2655  0.8940
 3575SOL     OW11966   6.469   7.179   5.202 -0.7708 -0.2067 -0.3146
 3575SOL    HW111967   6.520   7.157   5.280  1.1021 -0.3775 -1.5634
 3575SOL    HW211968   6.393   7.225   5.236  0.1708 -0.0160  1.6066
 3576SOL     OW11969   6.105   0.533   7.461 -0.0086  0.5028 -0.3910
 3576SOL    HW111970   6.013   0.544   7.438 -0.5430 -0.4414  1.2041
 3576SOL    HW211971   6.133   0.455   7.414 -0.6955 -0.5828  0.9725
 3577SOL     OW11972   6.925   6.032   4.512 -0.7335  0.2393 -0.2628
 3577SOL    HW111973   6.843   6.017   4.464 -0.0890  1.8603 -1.9052
 3577SOL    HW211974   6.897   6.061   4.599 -1.8898 -0.5033 -0.3670
 3578SOL     OW11975   7.250   3.314   5.622 -0.3904  0.0757 -0.5692
 3578SOL    HW111976   7.250   3.222   5.597 -0.7022 -0.1637  0.3019
 3578SOL    HW211977   7.290   3.316   5.709 -1.1831  0.6531 -0.2061
 3579SOL     OW11978   4.781   6.061   4.898 -0.2269  0.5245  0.0355
 3579SOL    HW111979   4.768   6.105   4.813 -1.5113 -0.7350 -0.4276
 3579SOL    HW211980   4.840   6.120   4.946  0.0737  1.5275 -1.5153
 3580SOL     OW11981   4.189   0.978   7.873 -0.2292  0.5677  0.1953
 3580SOL    HW111982   4.203   1.000   7.965  1.2364  1.3198 -0.1836
 3580SOL    HW211983   4.247   0.904   7.857 -1.5202 -0.4661  0.2156
 3581SOL     OW11984   1.352   1.292   3.394 -0.3356  0.4778  0.1450
 3581SOL    HW111985   1.319   1.374   3.430  1.8953  1.3347  0.3286
 3581SOL    HW211986   1.324   1.225   3.457 -5.0255  0.5558 -1.6673
 3582SOL     OW11987   5.108   6.063   5.786 -0.0578 -0.6329 -0.9458
 3582SOL    HW111988   5.070   6.128   5.726  0.9363 -0.2757 -1.1985
 3582SOL    HW211989   5.075   6.088   5.872 -1.3666 -1.0538 -1.3173
 3583SOL     OW11990   2.643   7.529   5.148 -0.6051  0.3214  0.8147
 3583SOL    HW111991   2.639   7.557   5.056  0.1414  0.8821  0.9495
 3583SOL    HW211992   2.552   7.530   5.177 -0.8066  0.5267  0.1928
 3584SOL     OW11993   4.475   6.400   0.186  0.0653  0.0066 -0.4612
 3584SOL    HW111994   4.456   6.335   0.119 -1.3881  0.4559 -0.4981
 3584SOL    HW211995   4.545   6.360   0.239  0.3492 -0.8629 -1.4808
 3585SOL     OW11996   7.796   7.552   7.874  0.2578  0.0701 -0.3755
 3585SOL    HW111997   7.746   7.537   7.955  0.4443  0.1607 -0.2430
 3585SOL    HW211998   7.844   7.632   7.891 -1.0108  1.0308 -1.2160
 3586SOL     OW11999   1.513   4.405   0.663 -0.6620  0.4741 -0.0640
 3586SOL    HW112000   1.519   4.421   0.757 -1.7435  1.4197 -0.1437
 3586SOL    HW212001   1.422   4.377   0.649 -0.2030 -0.7094 -0.6705
 3587SOL     OW12002   0.142   0.779   4.904 -0.1771 -0.3439 -0.2425
 3587SOL    HW112003   0.175   0.866   4.883  1.5276 -0.5642  1.4039
 3587SOL    HW212004   0.093   0.791   4.985 -1.4396 -0.6060 -0.9600
 3588SOL     OW12005   4.287   4.432   4.148  0.1585  0.3229 -0.4941
 3588SOL    HW112006   4.229   4.366   4.111  1.3026 -0.6595 -0.5911
 3588SOL    HW212007   4.335   4.386   4.217  1.6333  0.7940 -1.1782
 3589SOL     OW12008   1.541   6.155   4.643 -0.0074  0.5824  0.0507
 3589SOL    HW112009   1.448   6.140   4.626  0.0645  1.2049 -0.9618
 3589SOL    HW212010   1.570   6.076   4.688 -0.5134 -0.6661 -1.7375
 3590SOL     OW12011   4.602   7.147   6.385  0.5869  0.6050  0.4332
 3590SOL    HW112012   4.557   7.173   6.304  1.4265  1.8662  0.3673
 3590SOL    HW212013   4.626   7.229   6.427 -2.3756  0.0605  3.4279
 3591SOL     OW12014   3.524   4.837   5.517 -0.4650 -0.1537  0.3730
 3591SOL    HW112015   3.593   4.841   5.582 -0.8933 -1.2505  0.9213
 3591SOL    HW212016   3.514   4.743   5.499 -0.9072  0.0836 -0.6659
 3592SOL     OW12017   3.084   0.739   4.628 -0.3659 -0.0977  0.5481
 3592SOL    HW112018   3.093   0.711   4.719 -0.8495  0.3813  0.7483
 3592SOL    HW212019   3.128   0.671   4.577  0.6537  0.0682  1.2042
 3593SOL     OW12020   4.121   2.045   2.985  0.5695 -0.1426  0.1720
 3593SOL    HW112021   4.167   2.086   3.058 -0.5298  1.2484  0.0908
 3593SOL    HW212022   4.147   2.095   2.908 -1.4081  0.9938  0.1864
 3594SOL     OW12023   2.463   7.121   1.973  0.4011 -0.2767 -0.0971
 3594SOL    HW112024   2.427   7.192   1.919  0.8481 -0.6849 -0.9429
 3594SOL    HW212025   2.495   7.057   1.910  0.2799 -1.0989  0.6608
 3595SOL     OW12026   3.120   0.868   1.780  0.2094  0.2545  0.2072
 3595SOL    HW112027   3.132   0.812   1.857 -2.4174 -1.6459 -0.6931
 3595SOL    HW212028   3.032   0.906   1.792  0.4259  1.1903 -1.0931
 3596SOL     OW12029   6.073   4.090   2.054  0.4416  0.1119 -0.5292
 3596SOL    HW112030   6.089   4.142   2.132  0.5631  0.5335 -0.8348
 3596SOL    HW212031   6.154   4.041   2.039 -0.2660 -1.5028  0.7649
 3597SOL     OW12032   0.692   6.391   4.484 -0.2249 -0.6251  0.1324
 3597SOL    HW112033   0.695   6.434   4.569  1.4669  0.4654 -0.4402
 3597SOL    HW212034   0.711   6.461   4.421 -1.2578 -1.4512 -1.1280
 3598SOL     OW12035   1.834   5.070   6.405  0.2383  0.4192 -0.8410
 3598SOL    HW112036   1.791   5.050   6.321 -0.8159  0.0435 -0.2181
 3598SOL    HW212037   1.927   5.063   6.386  0.0264  1.1600 -2.1943
 3599SOL     OW12038   7.836   2.654   1.123  0.0571  0.6876  0.7342
 3599SOL    HW112039   7.746   2.656   1.090 -0.1783 -1.1757  1.1942
 3599SOL    HW212040   7.828   2.683   1.214 -0.5733 -2.4616  1.7396
 3600SOL     OW12041   3.168   6.313   6.902  0.2903 -0.1226 -0.5043
 3600SOL    HW112042   3.076   6.300   6.881 -0.2798 -0.6646  2.1424
 3600SOL    HW212043   3.209   6.335   6.818 -1.8296 -2.0800 -2.1347
 3601SOL     OW12044   4.847   6.460   1.762 -0.0434 -0.0670 -0.1751
 3601SOL    HW112045   4.815   6.549   1.777 -0.5225 -0.3331  0.4418
 3601SOL    HW212046   4.805   6.409   1.831 -2.3488 -1.3584 -2.4539
 3602SOL     OW12047   4.285   7.186   7.141 -0.1016  0.2965 -0.2255
 3602SOL    HW112048   4.324   7.188   7.229  0.6531  0.9448 -0.5605
 3602SOL    HW212049   4.357   7.159   7.084 -0.9828 -1.5920 -0.4598
 3603SOL     OW12050   0.835   6.497   5.579 -0.0278  0.2159 -0.3856
 3603SOL    HW112051   0.875   6.495   5.666 -0.4204  2.0669 -0.1394
 3603SOL    HW212052   0.757   6.552   5.590 -1.2953 -1.3257 -1.4144
 3604SOL     OW12053   7.624   3.017   2.037 -0.0401  0.0900  0.0447
 3604SOL    HW112054   7.584   2.961   1.971 -0.8259  0.2942  0.3495
 3604SOL    HW212055   7.638   3.101   1.994 -0.2119  0.1103  0.0296
 3605SOL     OW12056   5.936   1.164   6.315  0.3204 -0.0385 -0.4565
 3605SOL    HW112057   6.000   1.236   6.311  0.0198  0.2840  0.4003
 3605SOL    HW212058   5.851   1.208   6.315  0.1219 -0.4252 -0.6085
 3606SOL     OW12059   6.874   0.945   8.180 -0.0630  0.0261  0.8991
 3606SOL    HW112060   6.917   0.965   8.263 -0.8206  2.1139  0.8093
 3606SOL    HW212061   6.945   0.945   8.116  0.2681  0.2807  1.2575
 3607SOL     OW12062   4.125   6.707   5.334 -0.1716  0.0849 -0.2268
 3607SOL    HW112063   4.194   6.692   5.398  0.2013 -2.5137 -1.1607
 3607SOL    HW212064   4.160   6.775   5.276  0.6465  0.4141  0.6312
 3608SOL     OW12065   2.796   5.394   4.647 -0.0410  0.3369 -0.5887
 3608SOL    HW112066   2.891   5.397   4.644  0.1225 -1.6370  1.2814
 3608SOL    HW212067   2.771   5.337   4.573  0.1507  1.3932 -1.4895
 3609SOL     OW12068   3.867   7.695   7.150 -0.0274  0.3387  0.3041
 3609SOL    HW112069   3.881   7.757   7.078  0.3884  1.4163  1.3091
 3609SOL    HW212070   3.871   7.609   7.108 -1.3507  0.9931 -1.2374
 3610SOL     OW12071   1.579   0.922   6.798 -0.0390 -0.5386 -0.3928
 3610SOL    HW112072   1.580   0.833   6.832  1.1056 -0.6403 -0.6856
 3610SOL    HW212073   1.525   0.971   6.860 -0.5840 -1.4076 -0.1766
 3611SOL     OW12074   2.357   6.947   6.662  0.4735  0.0280  0.3500
 3611SOL    HW112075   2.427   6.920   6.721  1.6024 -0.2028 -1.0591
 3611SOL    HW212076   2.297   6.998   6.717  1.0755 -0.8646  1.8505
 3612SOL     OW12077   0.461   7.540   6.679  0.4391 -0.4119 -0.5540
 3612SOL    HW112078   0.388   7.585   6.721  0.7826  0.4806 -0.9076
 3612SOL    HW212079   0.422   7.461   6.641 -0.0566 -0.7220  0.5778
 3613SOL     OW12080   1.748   4.894   3.705 -0.0291  0.1011  0.4415
 3613SOL    HW112081   1.699   4.813   3.701  0.7092 -0.3044 -0.7996
 3613SOL    HW212082   1.712   4.941   3.780 -0.9553 -1.0436  0.7203
 3614SOL     OW12083   6.042   7.073   7.724  0.2053 -0.4051  0.1955
 3614SOL    HW112084   6.109   7.055   7.790 -1.5829  0.9487  2.5059
 3614SOL    HW212085   5.995   6.991   7.714  0.5550 -0.6496  0.5507
 3615SOL     OW12086   6.580   2.147   2.502 -0.2594  0.1784 -0.0977
 3615SOL    HW112087   6.606   2.238   2.510 -0.9524  0.2293  1.7776
 3615SOL    HW212088   6.484   2.149   2.504 -0.2693 -0.6777  1.3092
 3616SOL     OW12089   6.307   2.993   7.683  0.0053 -0.5363 -0.1473
 3616SOL    HW112090   6.342   2.953   7.763  0.3012  1.6890  0.8618
 3616SOL    HW212091   6.219   3.021   7.707  0.8867  2.1523  0.1193
 3617SOL     OW12092   4.065   4.887   3.920  0.4204  0.1496  0.1334
 3617SOL    HW112093   4.034   4.955   3.980  0.4474  0.7074 -0.4798
 3617SOL    HW212094   4.126   4.835   3.972 -0.9054 -0.4593  1.1160
 3618SOL     OW12095   0.823   1.676   2.608  0.3797  0.0390  0.1440
 3618SOL    HW112096   0.860   1.620   2.676 -1.9443  0.2187  1.6130
 3618SOL    HW212097   0.833   1.626   2.527  2.0908 -0.6840  0.7912
 3619SOL     OW12098   5.354   6.167   3.988 -0.8441 -0.8250 -0.2353
 3619SOL    HW112099   5.415   6.241   3.981 -3.5531  1.6281  1.0902
 3619SOL    HW212100   5.353   6.145   4.081 -2.4302 -0.4256 -0.1444
 3620SOL     OW12101   4.731   5.347   6.596  0.6380  0.6288 -0.2662
 3620SOL    HW112102   4.764   5.437   6.603 -0.3794  1.0576 -0.8201
 3620SOL    HW212103   4.664   5.352   6.527 -0.8225 -0.1371  1.0746
 3621SOL     OW12104   4.153   5.138   2.824 -0.5242  0.1283  1.3829
 3621SOL    HW112105   4.206   5.095   2.891  1.9697  0.8715 -0.0481
 3621SOL    HW212106   4.118   5.066   2.771  1.8640 -0.3118  0.3126
 3622SOL     OW12107   1.214   3.211   4.749 -0.5043  0.7372  0.0039
 3622SOL    HW112108   1.158   3.175   4.681  1.0126  0.0095 -0.8592
 3622SOL    HW212109   1.300   3.172   4.734  0.2376  1.7974  1.3518
 3623SOL     OW12110   4.628   7.135   5.158  0.0677  0.1877 -0.5424
 3623SOL    HW112111   4.652   7.178   5.240 -2.0821  1.7640 -0.6852
 3623SOL    HW212112   4.673   7.185   5.090  0.3364  0.0482 -0.4686
 3624SOL     OW12113   6.937   5.283   7.634  0.0718  0.3560  0.5645
 3624SOL    HW112114   7.029   5.307   7.625 -0.0662  1.4667  1.9871
 3624SOL    HW212115   6.938   5.188   7.646  1.0898  0.4627  1.3584
 3625SOL     OW12116   7.494   4.059   6.807 -0.3587  0.3822  0.3730
 3625SOL    HW112117   7.530   4.039   6.893  0.7930  0.7799 -0.0179
 3625SOL    HW212118   7.538   4.140   6.779 -0.9701  0.4520 -0.4441
 3626SOL     OW12119   6.838   2.059   0.076  0.2491  0.3099  0.5920
 3626SOL    HW112120   6.754   2.095   0.048  0.2386  1.8551  2.5115
 3626SOL    HW212121   6.820   1.966   0.093 -0.2788 -0.1121 -2.0793
 3627SOL     OW12122   1.671   0.000   2.234  0.7225 -0.0489 -0.8235
 3627SOL    HW112123   1.619  -0.046   2.299  1.6292  0.6595  0.4204
 3627SOL    HW212124   1.640  -0.034   2.150 -0.9435 -0.4550 -0.0611
 3628SOL     OW12125   3.972   7.258   7.610  0.0319 -0.1547  0.0849
 3628SOL    HW112126   3.968   7.163   7.601  2.3524 -0.3612  0.9578
 3628SOL    HW212127   3.931   7.276   7.694 -1.1073 -0.3071 -0.4332
 3629SOL     OW12128   3.638   7.075   2.188 -0.0308  0.0007 -0.3544
 3629SOL    HW112129   3.573   7.102   2.253  0.6385  1.0864 -0.1151
 3629SOL    HW212130   3.680   6.998   2.226  0.2946  0.5805  0.4553
 3630SOL     OW12131   4.175   4.742   7.952  0.0679 -0.8406 -0.3077
 3630SOL    HW112132   4.143   4.828   7.980 -1.0298 -1.0312 -0.9339
 3630SOL    HW212133   4.249   4.762   7.894 -0.5258 -0.2980 -0.8832
 3631SOL     OW12134   3.799   6.535   1.277  0.1476 -0.1064  0.0202
 3631SOL    HW112135   3.753   6.499   1.201  0.3951 -0.9511  0.2703
 3631SOL    HW212136   3.758   6.621   1.291  0.7785  0.4887 -1.6686
 3632SOL     OW12137   5.366   8.046   8.306  0.3583 -0.2291 -0.3243
 3632SOL    HW112138   5.411   8.065   8.223  2.4564 -0.5527  0.7199
 3632SOL    HW212139   5.327   7.959   8.292  3.9338 -2.0448  0.2814
 3633SOL     OW12140   1.507   1.074   5.424  0.1432  0.0914 -0.6760
 3633SOL    HW112141   1.552   0.995   5.453 -1.1232 -0.5505 -0.4130
 3633SOL    HW212142   1.552   1.100   5.344  1.7185  0.1389  0.2227
 3634SOL     OW12143   5.250   3.371   6.268  0.5087  0.1381 -0.6140
 3634SOL    HW112144   5.302   3.305   6.313  0.7712  1.1338  0.5680
 3634SOL    HW212145   5.312   3.438   6.242 -0.1859  1.4305  0.9881
 3635SOL     OW12146   5.509   4.830   6.695 -0.6394 -0.2949  0.2144
 3635SOL    HW112147   5.482   4.912   6.652 -0.4117  0.2577  1.1126
 3635SOL    HW212148   5.548   4.858   6.777 -0.2984 -1.3000  0.4008
 3636SOL     OW12149   0.639   6.841   4.710  0.1384 -0.0803 -0.5871
 3636SOL    HW112150   0.547   6.843   4.685  0.4392  2.3128 -1.5722
 3636SOL    HW212151   0.661   6.748   4.713 -2.3085 -0.6712 -0.2966
 3637SOL     OW12152   4.963   0.085   1.874  0.0948 -0.1916  0.9243
 3637SOL    HW112153   4.906   0.103   1.948 -0.9876 -0.9077  0.2796
 3637SOL    HW212154   5.039   0.041   1.912 -1.5811 -2.8386  1.3182
 3638SOL     OW12155   6.962   0.535   2.938  0.0739 -0.6203 -0.5407
 3638SOL    HW112156   6.942   0.452   2.981 -1.1195  0.6295  1.4448
 3638SOL    HW212157   6.994   0.511   2.851  0.4281 -3.1579  0.2642
 3639SOL     OW12158   2.828   4.456   0.528  0.5708  0.2453  0.4386
 3639SOL    HW112159   2.745   4.472   0.482  1.0182  1.5313  0.0646
 3639SOL    HW212160   2.846   4.363   0.512 -0.1101  0.2790 -0.6034
 3640SOL     OW12161   7.273   4.186   7.557 -0.2054  0.5041 -0.3357
 3640SOL    HW112162   7.251   4.222   7.643 -0.6020 -2.1099  0.6956
 3640SOL    HW212163   7.193   4.198   7.505 -1.4065 -1.6117  0.9435
 3641SOL     OW12164   1.020   6.496   1.464 -0.5563 -0.5262  0.1669
 3641SOL    HW112165   1.005   6.572   1.409 -1.0542 -0.3205  0.5751
 3641SOL    HW212166   0.932   6.459   1.478 -0.3114 -1.2282 -0.1044
 3642SOL     OW12167   5.442   5.474   2.200  0.0832 -0.2318  0.1551
 3642SOL    HW112168   5.412   5.383   2.191 -1.9931  0.2592  1.7879
 3642SOL    HW212169   5.537   5.466   2.214  0.1567 -2.0520 -1.1784
 3643SOL     OW12170   0.165   0.193   2.435 -0.9663  0.0002  0.0334
 3643SOL    HW112171   0.225   0.247   2.382 -0.1234 -0.7379  0.2297
 3643SOL    HW212172   0.100   0.255   2.468 -1.9706  0.3842 -2.4818
 3644SOL     OW12173   5.187   6.829   0.077  0.2280  0.2774 -0.5081
 3644SOL    HW112174   5.238   6.893   0.027 -1.2714  1.1753 -0.9265
 3644SOL    HW212175   5.114   6.806   0.019  0.4716 -1.4318 -0.1469
 3645SOL     OW12176   6.528   2.884   3.479 -0.5475  0.3786  1.0616
 3645SOL    HW112177   6.593   2.816   3.493  0.3171  1.5534  3.0146
 3645SOL    HW212178   6.486   2.896   3.564 -3.4531 -0.4527 -0.1986
 3646SOL     OW12179   2.555   3.368   1.670  0.5990 -0.3773  0.2333
 3646SOL    HW112180   2.606   3.445   1.641  2.5349 -1.1737  1.3960
 3646SOL    HW212181   2.581   3.299   1.610 -1.6852  0.0253 -1.2569
 3647SOL     OW12182   5.569   6.436   3.677 -0.0880  0.4549 -0.0272
 3647SOL    HW112183   5.546   6.527   3.656  1.8668  0.4906 -2.1387
 3647SOL    HW212184   5.661   6.439   3.702 -0.5843 -0.6497  2.0727
 3648SOL     OW12185   6.628   3.130   6.691  0.0547 -0.1254  0.4366
 3648SOL    HW112186   6.625   3.194   6.763 -0.6498  0.8537 -0.4303
 3648SOL    HW212187   6.535   3.112   6.672  0.2323 -0.3051 -0.2781
 3649SOL     OW12188   1.927   1.972   5.286 -0.4637  0.6533  0.2805
 3649SOL    HW112189   1.877   2.024   5.349 -0.7326 -0.1752  0.7503
 3649SOL    HW212190   1.862   1.916   5.244 -0.1158  0.4261  0.0459
 3650SOL     OW12191   5.724   3.272   4.980  1.0559  0.0052 -0.2049
 3650SOL    HW112192   5.770   3.306   5.057  0.0086 -0.4100  0.6272
 3650SOL    HW212193   5.793   3.256   4.916  1.9300  0.5085  0.5959
 3651SOL     OW12194   4.795   4.085   1.363  0.2772  0.2757  0.3649
 3651SOL    HW112195   4.800   3.991   1.381 -0.8243 -0.1547 -1.4386
 3651SOL    HW212196   4.734   4.118   1.428 -0.3748 -0.5189  0.1802
 3652SOL     OW12197   1.388   2.684   0.351 -0.2834 -0.1991 -0.0588
 3652SOL    HW112198   1.359   2.607   0.400  0.1558 -0.2468  0.1209
 3652SOL    HW212199   1.339   2.679   0.269  0.2910 -1.0731 -0.3539
 3653SOL     OW12200   5.601   2.219   1.919  0.4095  1.0614 -0.3448
 3653SOL    HW112201   5.634   2.306   1.895  0.3919  1.5072  1.1819
 3653SOL    HW212202   5.679   2.171   1.947  0.4844  0.4252 -1.6185
 3654SOL     OW12203   1.087   2.426   7.216 -0.2848  0.0231 -0.5372
 3654SOL    HW112204   1.077   2.454   7.125  0.0170 -0.0383 -0.5915
 3654SOL    HW212205   1.165   2.370   7.215 -0.0445  0.3433 -0.1671
 3655SOL     OW12206   4.111   4.220   4.012  0.1995 -0.0164 -0.3303
 3655SOL    HW112207   4.034   4.247   3.962 -0.4438  0.1722  0.7451
 3655SOL    HW212208   4.092   4.130   4.039 -0.2113  0.4532  0.9974
 3656SOL     OW12209   2.855   0.366   0.700  0.4293 -0.3848  0.3224
 3656SOL    HW112210   2.766   0.378   0.734  0.1487 -1.9674  0.2207
 3656SOL    HW212211   2.858   0.418   0.620  0.1338  0.9973  1.2079
 3657SOL     OW12212   2.663   7.212   1.334  0.3754  0.0733 -0.3348
 3657SOL    HW112213   2.660   7.149   1.406 -0.0997 -1.6719 -1.8233
 3657SOL    HW212214   2.752   7.207   1.301  0.7673  1.3419  0.5420
 3658SOL     OW12215   2.735   5.451   1.694  0.0527  0.1240  0.0617
 3658SOL    HW112216   2.686   5.531   1.714 -1.6878 -0.9565  0.2343
 3658SOL    HW212217   2.775   5.468   1.609 -2.9360  0.0192 -1.4334
 3659SOL     OW12218   3.081   5.857   2.213  0.3456  0.0448 -0.3915
 3659SOL    HW112219   2.986   5.864   2.219  0.3800 -0.9016  1.8858
 3659SOL    HW212220   3.111   5.948   2.206 -0.7188  0.3602 -0.8887
 3660SOL     OW12221   6.706   5.421   7.635  0.3500 -0.2300  0.0501
 3660SOL    HW112222   6.722   5.496   7.692 -2.1854  0.5807 -0.2489
 3660SOL    HW212223   6.783   5.366   7.646  1.8783  2.0131  0.9127
 3661SOL     OW12224   3.849   0.888   8.157 -0.1079 -0.6204  0.1123
 3661SOL    HW112225   3.813   0.836   8.085  0.3948 -3.0147  1.5094
 3661SOL    HW212226   3.943   0.873   8.152  0.1746  1.2050 -0.2184
 3662SOL     OW12227   5.993   6.864   8.016 -0.2472  0.3504  0.1347
 3662SOL    HW112228   5.900   6.887   8.021 -0.2789  0.4724 -0.8685
 3662SOL    HW212229   6.038   6.949   8.011 -0.1574  0.2789 -0.3757
 3663SOL     OW12230   0.810   4.103   0.292 -0.0778  0.3362  0.2940
 3663SOL    HW112231   0.817   4.163   0.366 -1.7077  0.2087  0.5744
 3663SOL    HW212232   0.735   4.136   0.242  0.5432 -0.0235 -0.8809
 3664SOL     OW12233   1.533   7.822   3.464  0.3459 -0.6464  0.3825
 3664SOL    HW112234   1.486   7.749   3.504 -0.1859 -0.8996 -0.6825
 3664SOL    HW212235   1.612   7.783   3.428 -0.6656 -1.0036 -1.5312
 3665SOL     OW12236   4.173   3.563   6.477 -0.1185 -0.2289 -0.0496
 3665SOL    HW112237   4.156   3.475   6.442 -0.3982 -0.3689  0.4320
 3665SOL    HW212238   4.092   3.610   6.462 -0.1117 -0.1780  0.0806
 3666SOL     OW12239   5.240   3.556   7.560 -0.0808 -0.8245  0.3478
 3666SOL    HW112240   5.148   3.563   7.535 -0.7242 -1.0235  2.5660
 3666SOL    HW212241   5.255   3.462   7.571  0.4036 -0.7987 -0.0448
 3667SOL     OW12242   3.894   6.826   2.888 -0.3085 -0.3892 -0.0874
 3667SOL    HW112243   3.843   6.833   2.807 -0.4765 -0.5155  0.0048
 3667SOL    HW212244   3.913   6.732   2.897  0.4878 -0.2628 -0.4491
 3668SOL     OW12245   3.523   7.445   7.684  0.1325 -0.4926 -0.6284
 3668SOL    HW112246   3.452   7.413   7.629  0.2570 -1.0277 -0.4789
 3668SOL    HW212247   3.584   7.485   7.622 -1.2080  1.7205 -0.5769
 3669SOL     OW12248   4.679   1.427   6.645  0.4078  0.7870  0.1699
 3669SOL    HW112249   4.693   1.343   6.602 -0.8671  0.2248  0.8151
 3669SOL    HW212250   4.649   1.404   6.733 -1.0595  1.8964 -0.0241
 3670SOL     OW12251   4.221   7.004   3.191 -0.0456 -0.6271  0.3207
 3670SOL    HW112252   4.219   6.955   3.273 -2.0310 -0.4519  0.3862
 3670SOL    HW212253   4.136   7.048   3.187  0.7402  0.8130 -0.9506
 3671SOL     OW12254   7.896   5.808   7.292 -0.0215  0.3828 -0.1338
 3671SOL    HW112255   7.863   5.754   7.220  0.0866  0.8685 -0.5541
 3671SOL    HW212256   7.817   5.839   7.336 -0.0737 -1.3086  1.0238
 3672SOL     OW12257   2.490   0.080   4.163  0.3195 -0.4135  0.1842
 3672SOL    HW112258   2.432   0.125   4.101 -1.4189  0.8515  2.6178
 3672SOL    HW212259   2.491   0.138   4.240  1.3213 -2.5961  1.8557
 3673SOL     OW12260   5.469   7.381   0.558  0.5786 -0.2853  0.1473
 3673SOL    HW112261   5.543   7.372   0.498  1.5883  0.0411  1.3108
 3673SOL    HW212262   5.456   7.475   0.567 -0.6545 -0.3504 -0.8502
 3674SOL     OW12263   3.888   2.060   1.594  0.3491  0.2381  0.2425
 3674SOL    HW112264   3.901   1.984   1.537 -1.3963  0.1740 -0.0966
 3674SOL    HW212265   3.909   2.135   1.538  0.6032  0.0689  0.1125
 3675SOL     OW12266   7.091   4.874   5.135 -0.1338 -0.1156  0.4684
 3675SOL    HW112267   7.016   4.832   5.178 -0.5808  1.4251  1.2389
 3675SOL    HW212268   7.075   4.968   5.147  1.3962  0.2429 -0.2775
 3676SOL     OW12269   0.928   0.915   5.111  0.8616 -0.1509  0.3157
 3676SOL    HW112270   0.978   0.837   5.084  0.1730 -1.0277  1.5315
 3676SOL    HW212271   0.857   0.921   5.047  1.4304  0.0216 -0.3155
 3677SOL     OW12272   4.848   4.407   4.141  0.5830 -0.0979  0.2480
 3677SOL    HW112273   4.766   4.420   4.092 -0.1283 -0.2644  1.3690
 3677SOL    HW212274   4.823   4.420   4.232  1.5982 -1.2131  0.6944
 3678SOL     OW12275   0.718   5.436   3.783  0.0431 -0.1260  0.8241
 3678SOL    HW112276   0.657   5.430   3.709  0.1644  0.1329  0.7033
 3678SOL    HW212277   0.663   5.453   3.859 -0.0122  0.3933  0.6706
 3679SOL     OW12278   1.791   6.321   6.170 -0.7788  0.1106  0.1687
 3679SOL    HW112279   1.879   6.359   6.174  0.6821 -3.0070 -1.3624
 3679SOL    HW212280   1.762   6.335   6.080 -1.9087  1.1507  0.6698
 3680SOL     OW12281   0.843   3.483   1.671  0.5411  0.7977  0.4834
 3680SOL    HW112282   0.846   3.523   1.584  2.2450  0.8688  0.5519
 3680SOL    HW212283   0.891   3.401   1.661  0.6049  0.7294  1.3213
 3681SOL     OW12284   5.054   3.202   1.548 -0.0959  0.0529  0.0631
 3681SOL    HW112285   5.105   3.229   1.472  1.0439  1.2766  1.2415
 3681SOL    HW212286   5.090   3.116   1.571  0.4626  0.2713  0.0183
 3682SOL     OW12287   1.004   0.562   1.842 -0.0938  0.0947 -0.2291
 3682SOL    HW112288   1.059   0.570   1.765 -1.7248 -0.2119 -1.4527
 3682SOL    HW212289   1.061   0.524   1.909  0.9340 -1.0127 -1.7097
 3683SOL     OW12290   6.449   7.799   0.976 -0.0040  0.0618  0.1562
 3683SOL    HW112291   6.501   7.822   0.899  0.3546  0.3699  0.4899
 3683SOL    HW212292   6.390   7.873   0.989  1.6850  1.1907  1.6965
 3684SOL     OW12293   3.122   1.679   0.187 -0.1366 -0.4829  0.1828
 3684SOL    HW112294   3.043   1.702   0.235 -0.4698 -1.0096 -0.1057
 3684SOL    HW212295   3.140   1.755   0.132  0.6068  0.3754  1.5962
 3685SOL     OW12296   5.851   6.043   6.558  0.1291  0.1615 -0.5639
 3685SOL    HW112297   5.767   6.087   6.563 -0.4964 -0.9053 -1.4230
 3685SOL    HW212298   5.846   5.973   6.624  0.2958  0.0219 -0.6973
 3686SOL     OW12299   4.752   4.860   4.683  0.2500 -0.4103 -0.7281
 3686SOL    HW112300   4.660   4.884   4.694  0.0484 -0.1571 -2.8535
 3686SOL    HW212301   4.789   4.929   4.628  1.5347 -0.8878 -0.4727
 3687SOL     OW12302   0.772   0.457   0.789 -0.4176  0.2606 -0.2876
 3687SOL    HW112303   0.809   0.472   0.876  2.5155  0.0428 -1.4441
 3687SOL    HW212304   0.716   0.381   0.800  4.1684 -3.2280  0.3538
 3688SOL     OW12305   7.630   5.519   7.765  0.1401  0.7175 -0.5589
 3688SOL    HW112306   7.611   5.445   7.707 -0.9264  0.5691 -0.0203
 3688SOL    HW212307   7.720   5.504   7.794 -0.1764 -0.5336 -0.2101
 3689SOL     OW12308   0.054   1.451   2.355 -0.2718  0.3184  0.1268
 3689SOL    HW112309  -0.026   1.398   2.345  0.1199 -0.1881 -0.3243
 3689SOL    HW212310   0.120   1.388   2.384  0.3440  0.4555 -0.9752
 3690SOL     OW12311   5.549   0.891   1.662 -0.3405 -0.3285  0.1125
 3690SOL    HW112312   5.615   0.832   1.698  0.1849 -2.1342 -3.5737
 3690SOL    HW212313   5.573   0.902   1.571 -2.7164  2.4932 -0.2665
 3691SOL     OW12314   6.602   1.568   0.352  0.2893  0.0159 -0.1317
 3691SOL    HW112315   6.624   1.490   0.302  1.3066 -0.8384  1.6204
 3691SOL    HW212316   6.507   1.566   0.361  0.2185 -0.4603 -0.9576
 3692SOL     OW12317   0.836   0.578   0.039  0.0124 -0.1321 -0.3586
 3692SOL    HW112318   0.929   0.588   0.016  0.0289 -0.4112 -0.4136
 3692SOL    HW212319   0.821   0.646   0.105  0.6126 -0.9746  0.6789
 3693SOL     OW12320   5.041   0.088   1.574 -0.3430 -0.3345  0.0148
 3693SOL    HW112321   4.998   0.035   1.641  0.1419 -1.1648 -0.3211
 3693SOL    HW212322   5.111   0.134   1.621 -0.6141 -0.1646  0.2581
 3694SOL     OW12323   3.723   0.488   6.578  0.3989  0.2938 -0.0331
 3694SOL    HW112324   3.805   0.439   6.582 -0.1430 -0.5222  1.7449
 3694SOL    HW212325   3.746   0.575   6.610  0.8273  0.4428 -0.7355
 3695SOL     OW12326   0.236   8.030   6.196 -0.0515  0.0335  0.1429
 3695SOL    HW112327   0.214   7.942   6.166  0.3689 -0.0962  0.2107
 3695SOL    HW212328   0.153   8.077   6.195 -0.5721 -0.8120  1.6244
 3696SOL     OW12329   3.734   0.300   0.146  0.0151  0.5957 -0.0316
 3696SOL    HW112330   3.704   0.378   0.098 -0.1531  0.5451 -0.0103
 3696SOL    HW212331   3.740   0.232   0.079  1.4336  0.9619 -0.2851
 3697SOL     OW12332   0.959   1.158   1.439  0.1224 -0.2110  0.4074
 3697SOL    HW112333   0.922   1.072   1.419  0.2024 -0.0254 -0.5590
 3697SOL    HW212334   1.049   1.139   1.467 -0.0402 -0.4917  0.7358
 3698SOL     OW12335   3.067   2.939   5.117 -0.1303  0.1626  0.2289
 3698SOL    HW112336   3.129   2.921   5.188  2.5964  0.1348 -2.0615
 3698SOL    HW212337   3.007   3.004   5.154  1.0360 -0.0652  2.6479
 3699SOL     OW12338   8.134   7.932   2.984  0.1226 -0.6728 -0.4387
 3699SOL    HW112339   8.147   7.984   3.063 -1.1043  0.6882 -1.1122
 3699SOL    HW212340   8.165   7.988   2.913 -0.8272 -1.0272 -1.1400
 3700SOL     OW12341   7.715   6.545   7.429  0.4757 -0.0111 -0.3026
 3700SOL    HW112342   7.702   6.486   7.503 -1.1653 -0.4150 -0.8690
 3700SOL    HW212343   7.770   6.496   7.368  1.7330  0.2799  0.6009
 3701SOL     OW12344   6.343   0.349   3.033 -0.4158  0.4254 -0.1587
 3701SOL    HW112345   6.345   0.304   2.948  0.5811 -0.3604  0.2727
 3701SOL    HW212346   6.300   0.287   3.092  1.0500 -0.0355  0.4597
 3702SOL     OW12347   2.315   2.841   6.520 -0.3187  0.0788 -0.1282
 3702SOL    HW112348   2.242   2.901   6.536 -1.1243 -1.4699  2.3507
 3702SOL    HW212349   2.292   2.797   6.438 -1.0438  1.2214 -0.5562
 3703SOL     OW12350   2.910   0.595   4.382  0.0507 -0.8384 -0.0275
 3703SOL    HW112351   2.881   0.504   4.381 -1.0457 -0.4883 -2.2181
 3703SOL    HW212352   2.851   0.638   4.444 -1.2042 -1.0554 -1.0656
 3704SOL     OW12353   5.479   3.821   0.901 -0.0045  0.3427  0.1436
 3704SOL    HW112354   5.476   3.894   0.964  1.0267  1.0692 -0.6375
 3704SOL    HW212355   5.389   3.789   0.897 -0.1199  0.4065  1.8525
 3705SOL     OW12356   7.136   0.853   5.882 -0.6299  0.4826  0.5090
 3705SOL    HW112357   7.163   0.942   5.862 -2.4322  0.5414 -2.0194
 3705SOL    HW212358   7.159   0.803   5.803 -0.3072 -1.1372  1.6059
 3706SOL     OW12359   6.465   4.066   7.163  0.2145  0.0399 -0.0621
 3706SOL    HW112360   6.531   4.010   7.123  0.6181  0.9706 -0.7001
 3706SOL    HW212361   6.435   4.123   7.092  0.5785  1.3671  0.8400
 3707SOL     OW12362   0.553   0.843   1.261 -0.0605 -0.8197  0.0462
 3707SOL    HW112363   0.478   0.858   1.204 -1.4850  1.8277  2.4856
 3707SOL    HW212364   0.556   0.748   1.272 -1.9127 -1.0944 -1.5624
 3708SOL     OW12365   3.311   8.188   0.719 -0.0416  0.1649  0.2397
 3708SOL    HW112366   3.405   8.175   0.719 -0.2058 -1.1470 -1.0766
 3708SOL    HW212367   3.281   8.146   0.638 -1.7330  0.6394  0.6040
 3709SOL     OW12368   7.572   4.075   2.655  0.5492  0.2229  0.6338
 3709SOL    HW112369   7.560   4.082   2.561  0.2216  0.1339  0.6681
 3709SOL    HW212370   7.651   4.022   2.666 -1.5624 -3.1124  0.4281
 3710SOL     OW12371   1.403   6.510   6.761 -0.2397 -0.1362  0.6661
 3710SOL    HW112372   1.466   6.450   6.720 -0.8759 -0.3972  0.0602
 3710SOL    HW212373   1.357   6.550   6.687 -1.3469 -0.5587  1.1200
 3711SOL     OW12374   6.992   6.809   4.467 -0.4598  0.7903 -0.0631
 3711SOL    HW112375   6.951   6.739   4.518 -1.5576  0.9721 -0.6649
 3711SOL    HW212376   6.928   6.828   4.398  0.5487  1.2560 -0.8729
 3712SOL     OW12377   0.577   1.057   7.344 -0.1740  0.0400  0.3204
 3712SOL    HW112378   0.522   1.071   7.267  2.6993  0.3819 -1.7476
 3712SOL    HW212379   0.567   1.137   7.395  0.4708  1.2415 -1.3801
 3713SOL     OW12380   7.899   3.635   0.264 -0.1092  0.3103  0.2606
 3713SOL    HW112381   7.849   3.554   0.272  1.2267 -0.4701  0.8307
 3713SOL    HW212382   7.882   3.666   0.175  0.5469 -1.3718 -0.4541
 3714SOL     OW12383   7.715   7.947   3.761  0.3619  0.4765 -0.3360
 3714SOL    HW112384   7.776   7.923   3.691 -0.7221 -1.4554 -0.6509
 3714SOL    HW212385   7.765   7.933   3.842  0.7814  0.1883 -0.6415
 3715SOL     OW12386   5.534   3.677   3.467  0.2322 -0.4697 -0.0282
 3715SOL    HW112387   5.602   3.640   3.412  0.6899  1.3481 -0.7357
 3715SOL    HW212388   5.469   3.711   3.405  0.2230  0.6103  0.5632
 3716SOL     OW12389   1.257   2.056   0.703 -0.5523 -0.2600 -0.5273
 3716SOL    HW112390   1.337   2.076   0.752  0.4735  1.0737 -2.6880
 3716SOL    HW212391   1.195   2.027   0.770  1.1080  0.5863  1.4363
 3717SOL     OW12392   4.710   4.351   4.805  0.4023  0.1541 -0.3460
 3717SOL    HW112393   4.802   4.323   4.798 -0.2112 -1.5829 -1.9921
 3717SOL    HW212394   4.708   4.436   4.761  1.3559  0.5280  0.3166
 3718SOL     OW12395   3.551   3.776   1.328 -0.5582  0.0044  0.2048
 3718SOL    HW112396   3.493   3.715   1.281 -0.4674  1.0971 -1.3729
 3718SOL    HW212397   3.535   3.860   1.286  2.4079  0.2831 -0.4820
 3719SOL     OW12398   2.565   4.697   4.601  0.2529  0.1095 -0.1359
 3719SOL    HW112399   2.617   4.622   4.629  0.2902 -0.1137 -0.7916
 3719SOL    HW212400   2.541   4.677   4.510 -1.4766 -0.0695  0.3307
 3720SOL     OW12401   7.043   4.034   4.047 -0.2564 -0.2802 -0.4186
 3720SOL    HW112402   7.062   3.985   3.967  1.4852 -0.9098  0.3582
 3720SOL    HW212403   7.036   3.968   4.115 -0.5055  0.3481  0.1731
 3721SOL     OW12404   4.463   8.216   5.205  0.2292  0.1860 -0.0911
 3721SOL    HW112405   4.450   8.132   5.162 -1.0863  1.0560 -1.4326
 3721SOL    HW212406   4.455   8.197   5.298  2.2543 -1.5717 -0.2304
 3722SOL     OW12407   0.943   1.716   3.987  0.3573  0.7410 -0.3493
 3722SOL    HW112408   0.907   1.802   3.965  0.5331  0.9955  0.3246
 3722SOL    HW212409   1.017   1.705   3.927 -0.9182  0.1592 -1.8160
 3723SOL     OW12410   2.551   3.754   7.644 -0.4754 -0.2094  0.0541
 3723SOL    HW112411   2.476   3.748   7.585  0.2306 -2.8345 -0.6385
 3723SOL    HW212412   2.522   3.713   7.725 -0.6238  1.1308  0.6902
 3724SOL     OW12413   5.104   6.489   8.297 -1.1160  0.3132 -1.5111
 3724SOL    HW112414   5.189   6.493   8.254 -0.5674  0.7885 -0.4047
 3724SOL    HW212415   5.069   6.578   8.291 -1.2025  0.2935 -1.2979
 3725SOL     OW12416   3.693   6.856   6.295 -0.2822 -0.2342  0.2318
 3725SOL    HW112417   3.636   6.932   6.281 -0.5117 -0.5507 -0.6006
 3725SOL    HW212418   3.780   6.893   6.306 -0.0373  0.0479 -2.3238
 3726SOL     OW12419   7.734   0.713   5.945 -0.0773  0.4914 -0.1947
 3726SOL    HW112420   7.682   0.783   5.984 -2.1872 -0.7565 -0.7148
 3726SOL    HW212421   7.737   0.735   5.851 -0.1635  0.2375 -0.2550
 3727SOL     OW12422   0.285   4.617   4.824 -0.3576 -0.0478  0.0269
 3727SOL    HW112423   0.297   4.523   4.838 -0.6927 -0.0961 -0.0198
 3727SOL    HW212424   0.330   4.634   4.741 -2.6874 -0.6864 -1.4024
 3728SOL     OW12425   4.334   4.388   1.877  0.1305  0.4756  0.4927
 3728SOL    HW112426   4.346   4.449   1.949  1.9691  1.7268 -0.8218
 3728SOL    HW212427   4.302   4.442   1.804  1.2514 -0.2126 -0.5308
 3729SOL     OW12428   5.964   8.004   8.149  0.2013 -0.0486 -0.4073
 3729SOL    HW112429   5.875   7.972   8.144  0.1863  0.1219 -1.2501
 3729SOL    HW212430   5.961   8.071   8.217  0.1180 -1.4116  0.9535
 3730SOL     OW12431   7.153   1.795   2.576 -0.1987  0.1597 -0.3730
 3730SOL    HW112432   7.163   1.729   2.507 -1.6506  1.9026 -2.3127
 3730SOL    HW212433   7.228   1.852   2.567 -1.1634  1.2652 -1.5151
 3731SOL     OW12434   5.018   5.670   3.871 -0.4268  0.5005 -0.3681
 3731SOL    HW112435   4.955   5.630   3.931  2.5698 -4.0422 -0.0097
 3731SOL    HW212436   4.984   5.651   3.784 -1.5075  1.5328 -0.1861
 3732SOL     OW12437   0.870   2.069   2.461 -0.2829  0.3172  0.1902
 3732SOL    HW112438   0.886   2.057   2.555 -0.7266  0.3955  0.2810
 3732SOL    HW212439   0.910   1.992   2.420  0.2367  0.4698  0.4097
 3733SOL     OW12440   6.940   2.817   6.950  0.2076  0.1726 -0.6404
 3733SOL    HW112441   6.984   2.732   6.945  0.6561  0.3278  0.5145
 3733SOL    HW212442   6.968   2.864   6.871 -1.3117 -1.3337 -2.1255
 3734SOL     OW12443   2.931   3.384   7.656  0.1560 -0.4165 -0.0871
 3734SOL    HW112444   2.878   3.451   7.613  0.5862 -0.5082 -0.7715
 3734SOL    HW212445   2.869   3.315   7.679 -0.0613 -0.4168 -0.6653
 3735SOL     OW12446   0.915   2.325   8.013  0.2658 -0.0470  0.3638
 3735SOL    HW112447   0.926   2.419   7.998 -0.4862 -0.0483 -0.1831
 3735SOL    HW212448   0.895   2.318   8.106 -0.5516  0.4130  0.2291
 3736SOL     OW12449   1.852   2.910   6.193  0.5545 -0.5179 -0.6370
 3736SOL    HW112450   1.833   3.000   6.168 -1.7428 -0.5691  0.7678
 3736SOL    HW212451   1.779   2.859   6.158 -0.0108 -1.3022  1.5413
 3737SOL     OW12452   1.642   5.129   1.597  0.1771  0.1415  0.6767
 3737SOL    HW112453   1.710   5.196   1.609 -0.1410  0.2604  1.8416
 3737SOL    HW212454   1.658   5.095   1.509  1.2641  0.7165  0.6385
 3738SOL     OW12455   3.233   5.493   2.712  0.5123  0.2287 -0.2010
 3738SOL    HW112456   3.234   5.542   2.794 -0.0591  0.1382 -0.1443
 3738SOL    HW212457   3.315   5.518   2.669  1.4620 -0.7155  0.9844
 3739SOL     OW12458   5.683   2.754   1.994 -0.3574 -0.1096 -0.7256
 3739SOL    HW112459   5.707   2.828   2.049 -0.0142  0.0742 -1.1202
 3739SOL    HW212460   5.702   2.783   1.905  0.6788 -1.0168 -0.8065
 3740SOL     OW12461   7.836   6.389   1.761  0.3521 -0.7942 -0.4887
 3740SOL    HW112462   7.890   6.444   1.704 -1.5793  0.8478 -0.7772
 3740SOL    HW212463   7.866   6.409   1.849  0.2619  0.0452 -0.6483
 3741SOL     OW12464   7.061   0.266   8.100 -0.1003 -0.0422  0.0588
 3741SOL    HW112465   7.016   0.350   8.110  1.8422  0.9572  0.7163
 3741SOL    HW212466   7.108   0.254   8.183  0.5991 -1.1810 -0.4953
 3742SOL     OW12467   5.918   6.472   4.793  0.3539  0.2879 -0.1282
 3742SOL    HW112468   6.005   6.435   4.807 -0.1239 -1.0415 -0.6505
 3742SOL    HW212469   5.911   6.482   4.699 -0.3035 -0.2164 -0.1370
 3743SOL     OW12470   2.023   2.023   5.606 -0.4575  0.2097 -0.2395
 3743SOL    HW112471   2.043   2.032   5.513  1.3053  0.9196  0.1730
 3743SOL    HW212472   2.005   1.930   5.618 -0.2988  0.0499 -1.2278
 3744SOL     OW12473   4.265   3.464   6.164 -0.1468  0.0893 -0.3674
 3744SOL    HW112474   4.310   3.539   6.204 -1.2880  1.0976 -0.9507
 3744SOL    HW212475   4.245   3.492   6.075 -0.4104 -0.9857 -0.6565
 3745SOL     OW12476   8.088   6.241   4.628  0.0658  0.2754  0.4786
 3745SOL    HW112477   8.164   6.299   4.643 -0.0976  0.2988  1.2376
 3745SOL    HW212478   8.101   6.207   4.540  0.8234  0.4956  0.4993
 3746SOL     OW12479   3.055   4.331   2.575  0.2055  0.6022 -0.0122
 3746SOL    HW112480   3.132   4.294   2.619 -1.8432 -2.7338  1.0143
 3746SOL    HW212481   3.061   4.300   2.485 -0.8346 -1.3298  0.5342
 3747SOL     OW12482   7.391   4.303   5.897 -0.0071  0.2446  0.2320
 3747SOL    HW112483   7.328   4.299   5.970  0.9465 -0.7145  1.0051
 3747SOL    HW212484   7.417   4.213   5.882  0.5807  0.5501 -0.6320
 3748SOL     OW12485   0.847   7.938   0.259  0.4057  0.0744  0.3166
 3748SOL    HW112486   0.827   7.865   0.200  0.7762 -0.9254  1.4272
 3748SOL    HW212487   0.927   7.976   0.224  0.2522 -0.0919 -0.2202
 3749SOL     OW12488   7.688   0.770   0.623  0.1372 -0.0196 -0.4826
 3749SOL    HW112489   7.596   0.788   0.601 -0.2274  0.1135  1.0711
 3749SOL    HW212490   7.696   0.798   0.714  1.5036 -0.8273 -0.3467
 3750SOL     OW12491   1.776   1.944   4.528 -0.0871  0.3981  0.2170
 3750SOL    HW112492   1.804   2.036   4.522  1.9978 -0.3217 -1.7213
 3750SOL    HW212493   1.727   1.929   4.447  0.4529 -0.4799  0.0484
 3751SOL     OW12494   6.596   2.612   5.859 -0.5386  0.1647  0.5082
 3751SOL    HW112495   6.510   2.651   5.843 -1.2129 -1.0634  1.1267
 3751SOL    HW212496   6.654   2.688   5.873 -1.5689  0.9851  0.3879
 3752SOL     OW12497   5.362   3.728   0.350 -0.6507 -0.4381 -0.1039
 3752SOL    HW112498   5.406   3.757   0.430  0.0250 -1.9425  0.0822
 3752SOL    HW212499   5.287   3.787   0.341  0.3474  0.9538  0.5904
 3753SOL     OW12500   4.235   1.312   0.278 -0.0371  0.2946 -0.6542
 3753SOL    HW112501   4.188   1.230   0.294  1.8641 -0.7358 -0.1488
 3753SOL    HW212502   4.305   1.287   0.217  1.0016  1.3776  0.0727
 3754SOL     OW12503   4.722   1.099   3.922 -0.7375 -0.7175  0.3047
 3754SOL    HW112504   4.678   1.178   3.890 -0.1071 -0.1590  0.8015
 3754SOL    HW212505   4.712   1.036   3.851 -0.1734  0.2052 -0.6215
 3755SOL     OW12506   3.027   0.855   7.410  0.2121 -0.0730  0.1580
 3755SOL    HW112507   3.057   0.846   7.500 -1.2901 -0.0994  0.6794
 3755SOL    HW212508   3.018   0.949   7.397  3.2886  0.1130 -0.9670
 3756SOL     OW12509   3.980   1.919   0.672 -0.0470  0.5454 -0.2516
 3756SOL    HW112510   3.975   2.011   0.646  2.7818  0.6540 -0.5460
 3756SOL    HW212511   4.073   1.897   0.667 -0.3121 -1.5364  2.5884
 3757SOL     OW12512   1.307   4.110   1.078  0.1075 -0.1104 -0.3805
 3757SOL    HW112513   1.302   4.081   0.987 -0.4833 -0.6582 -0.1792
 3757SOL    HW212514   1.229   4.164   1.091 -0.6189 -1.2570  0.2090
 3758SOL     OW12515   7.918   7.227   5.128  0.1169  0.2006  0.3975
 3758SOL    HW112516   7.953   7.198   5.044 -0.2014  0.6272  0.1189
 3758SOL    HW212517   7.985   7.288   5.162  0.6621 -0.6463  0.8649
 3759SOL     OW12518   7.839   2.057   5.290  0.0823  0.3090  0.1059
 3759SOL    HW112519   7.881   2.085   5.209 -2.5733  1.2605 -0.9948
 3759SOL    HW212520   7.791   1.978   5.265  0.0184  0.0675  0.9869
 3760SOL     OW12521   5.817   8.175   2.584  0.2692 -0.2826 -0.4018
 3760SOL    HW112522   5.759   8.242   2.547  0.7473 -0.0622 -0.7613
 3760SOL    HW212523   5.779   8.153   2.669  0.7126  1.2449  0.2045
 3761SOL     OW12524   1.762   1.612   3.670  0.3186  0.0640  0.1718
 3761SOL    HW112525   1.749   1.566   3.587  0.1005  2.4592 -1.1478
 3761SOL    HW212526   1.843   1.661   3.658  0.1187  0.6786  1.2776
 3762SOL     OW12527   2.984   7.294   4.504  0.7548 -0.2015 -0.3531
 3762SOL    HW112528   3.039   7.362   4.543 -0.0224  1.0788 -1.4566
 3762SOL    HW212529   2.897   7.333   4.500  0.0979 -1.5953 -0.1871
 3763SOL     OW12530   5.184   6.943   6.292  0.0614  0.4186  0.1523
 3763SOL    HW112531   5.162   7.033   6.318  2.0412  0.7621  0.7085
 3763SOL    HW212532   5.249   6.915   6.356 -0.7818 -1.5552  0.1910
 3764SOL     OW12533   7.332   0.223   1.093 -0.6135  0.2470 -0.2137
 3764SOL    HW112534   7.426   0.220   1.111 -0.7252 -1.6693  0.1949
 3764SOL    HW212535   7.323   0.192   1.003 -0.9478 -0.9728  0.2246
 3765SOL     OW12536   3.456   0.966   5.763  0.4644  0.2263 -0.3639
 3765SOL    HW112537   3.518   0.893   5.764 -0.1417 -0.3265 -1.4709
 3765SOL    HW212538   3.432   0.975   5.670  0.4862  1.7999 -0.2260
 3766SOL     OW12539   0.429   7.985   6.841  0.0361 -0.2347 -0.2093
 3766SOL    HW112540   0.355   7.926   6.857 -1.9535  2.2925  0.3255
 3766SOL    HW212541   0.468   8.000   6.927  0.7054 -0.9548 -0.3814
 3767SOL     OW12542   1.922   6.914   6.192 -0.3517  0.0208  0.6408
 3767SOL    HW112543   1.960   6.990   6.149 -0.5367 -0.4932 -0.4432
 3767SOL    HW212544   1.832   6.939   6.212 -0.0576  0.5096  1.3742
 3768SOL     OW12545   0.321   4.549   7.042 -0.0106 -0.0515  0.1989
 3768SOL    HW112546   0.387   4.605   7.083 -0.9602  1.1691  0.1034
 3768SOL    HW212547   0.251   4.542   7.108 -0.5212  0.0301 -0.3257
 3769SOL     OW12548   3.974   4.541   7.919 -0.3750  0.0115  0.0803
 3769SOL    HW112549   4.041   4.473   7.920 -0.1118  0.2702 -0.0273
 3769SOL    HW212550   4.020   4.621   7.943 -0.5576  0.2707 -0.4375
 3770SOL     OW12551   0.394   5.549   5.186 -0.0141  0.2705 -0.6739
 3770SOL    HW112552   0.357   5.514   5.267  0.7376  1.0457  0.0231
 3770SOL    HW212553   0.329   5.529   5.119 -1.1526  0.5619  0.3170
 3771SOL     OW12554   7.515   2.751   6.595  0.4596  1.0664  0.4102
 3771SOL    HW112555   7.569   2.806   6.651  1.4034  0.1847  0.3705
 3771SOL    HW212556   7.570   2.677   6.573 -0.4103  0.6704 -0.4869
 3772SOL     OW12557   6.357   7.610   5.574 -0.0689 -0.1488 -0.3895
 3772SOL    HW112558   6.333   7.690   5.527  2.0150  0.9856  0.4068
 3772SOL    HW212559   6.437   7.580   5.531  0.5624 -0.3995  0.9492
 3773SOL     OW12560   3.208   1.666   3.748 -0.4163 -0.3297  0.5113
 3773SOL    HW112561   3.239   1.755   3.730 -0.1143 -0.5535 -0.0975
 3773SOL    HW212562   3.227   1.617   3.668  0.8767 -1.3378  1.4129
 3774SOL     OW12563   3.195   0.461   2.241  0.2422  0.0173 -0.0763
 3774SOL    HW112564   3.137   0.535   2.253  2.5608  1.7543  0.9050
 3774SOL    HW212565   3.210   0.456   2.147 -1.9740 -0.8894 -0.4114
 3775SOL     OW12566   1.672   6.828   3.004  0.0093  0.0613 -0.1072
 3775SOL    HW112567   1.741   6.894   3.002 -1.0158  1.1907  0.8886
 3775SOL    HW212568   1.655   6.813   3.098  0.2822 -1.6820 -0.3078
 3776SOL     OW12569   1.365   2.082   5.074 -0.3540  0.0422 -0.3149
 3776SOL    HW112570   1.291   2.042   5.121 -1.4724  1.8254 -0.5219
 3776SOL    HW212571   1.436   2.082   5.138 -0.7769 -0.9376  0.1723
 3777SOL     OW12572   1.094   7.828   1.277  0.6467 -0.3765 -0.2636
 3777SOL    HW112573   1.148   7.821   1.198 -0.1321 -0.3091 -0.8193
 3777SOL    HW212574   1.086   7.737   1.308 -1.7462 -0.8970 -2.1607
 3778SOL     OW12575   0.019   6.926   5.999 -0.1504  0.0976 -0.0925
 3778SOL    HW112576   0.074   6.897   6.071 -0.2727 -0.2133 -0.1238
 3778SOL    HW212577   0.069   6.903   5.920  0.1337  0.7383 -0.1001
 3779SOL     OW12578   6.705   4.433   6.361 -0.1865 -0.0569 -0.4227
 3779SOL    HW112579   6.709   4.447   6.455  1.2182  1.2178 -0.6637
 3779SOL    HW212580   6.611   4.431   6.341 -0.4948 -0.5580  1.0154
 3780SOL     OW12581   0.090   7.381   7.940 -0.5724 -0.7674  0.5781
 3780SOL    HW112582   0.051   7.331   8.012 -0.1468 -1.1373  0.5542
 3780SOL    HW212583   0.172   7.415   7.977 -1.1672  0.4553  0.8055
 3781SOL     OW12584   1.040   3.432   4.680 -0.5492 -0.1856  0.0975
 3781SOL    HW112585   1.082   3.470   4.603 -0.1868 -1.1693 -0.1907
 3781SOL    HW212586   1.103   3.368   4.713 -0.2741  0.9011  1.7922
 3782SOL     OW12587   5.228   4.633   1.038 -0.4490 -0.2530  0.3333
 3782SOL    HW112588   5.298   4.573   1.065  0.0924 -0.4623 -1.4740
 3782SOL    HW212589   5.160   4.622   1.105 -0.1952 -2.6152  0.2584
 3783SOL     OW12590   1.468   0.939   4.747  0.0861  0.4775 -0.4311
 3783SOL    HW112591   1.373   0.941   4.758  0.2906  1.9128  1.3267
 3783SOL    HW212592   1.487   1.013   4.688  0.0174 -0.5235 -1.7258
 3784SOL     OW12593   2.777   2.817   5.926  0.5910 -0.5985  0.3507
 3784SOL    HW112594   2.805   2.788   5.839  1.1592  0.8766  0.0392
 3784SOL    HW212595   2.721   2.893   5.910 -0.2664 -1.0283  1.2117
 3785SOL     OW12596   3.027   7.613   3.745  0.2990  0.1933 -0.5046
 3785SOL    HW112597   2.953   7.552   3.738  1.4840 -1.2062 -1.1056
 3785SOL    HW212598   3.055   7.606   3.836  1.8398 -1.8887 -1.0928
 3786SOL     OW12599   0.138   6.774   2.380  0.1078 -0.0025  0.6066
 3786SOL    HW112600   0.222   6.728   2.369 -0.0177  0.3933 -2.3479
 3786SOL    HW212601   0.110   6.795   2.291 -3.7407 -1.1429  1.4461
 3787SOL     OW12602   5.573   5.508   7.715  0.3172  0.9032 -0.3035
 3787SOL    HW112603   5.582   5.453   7.637 -0.4738  1.0080 -0.4668
 3787SOL    HW212604   5.649   5.484   7.769 -0.2630 -0.6978 -0.1646
 3788SOL     OW12605   4.362   3.097   1.252  0.1767 -0.2854  0.1483
 3788SOL    HW112606   4.271   3.084   1.279  0.1498  0.8212  0.6038
 3788SOL    HW212607   4.397   3.008   1.242 -1.1325 -0.7121 -0.6482
 3789SOL     OW12608   4.539   0.580   4.985  0.1471  0.0773 -0.5061
 3789SOL    HW112609   4.444   0.578   4.997  0.2748 -0.8257  0.4469
 3789SOL    HW212610   4.551   0.607   4.894 -1.0487 -0.6948 -0.9081
 3790SOL     OW12611   3.037   1.264   5.442 -0.6066  0.2500  0.2410
 3790SOL    HW112612   3.122   1.261   5.399 -1.1520 -1.5385 -0.7780
 3790SOL    HW212613   3.045   1.205   5.517 -0.3685  1.5783  1.2752
 3791SOL     OW12614   3.015   1.331   1.887  0.8147  0.5448  0.1901
 3791SOL    HW112615   2.930   1.327   1.844  1.0216 -3.6267 -0.0912
 3791SOL    HW212616   3.060   1.405   1.847 -1.9758  1.6383 -1.0042
 3792SOL     OW12617   3.787   0.544   0.918 -0.0669 -0.0508 -0.4391
 3792SOL    HW112618   3.783   0.585   1.004 -0.5251 -1.9487  0.4453
 3792SOL    HW212619   3.874   0.506   0.913 -0.3995 -0.8248 -0.4018
 3793SOL     OW12620   3.918   2.273   1.771 -0.0005 -0.1955  0.3289
 3793SOL    HW112621   3.890   2.182   1.761 -1.3607  0.1890  0.4171
 3793SOL    HW212622   3.929   2.305   1.682 -0.8144 -0.0812  0.2614
 3794SOL     OW12623   7.571   5.478   2.563 -0.0397  0.3911  0.2604
 3794SOL    HW112624   7.553   5.441   2.477 -0.7088  1.1572  0.0549
 3794SOL    HW212625   7.546   5.571   2.555  0.5011  0.6204  1.0857
 3795SOL     OW12626   1.332   2.662   4.429 -0.2323  0.3507 -0.5967
 3795SOL    HW112627   1.338   2.758   4.427  1.5070  0.3874  2.7514
 3795SOL    HW212628   1.243   2.644   4.459 -0.4780  0.9064 -0.9822
 3796SOL     OW12629   5.494   0.238   7.981  0.7508  0.4470 -0.3168
 3796SOL    HW112630   5.416   0.293   7.984  0.6056  0.2461 -0.4243
 3796SOL    HW212631   5.491   0.187   8.062  0.4771  0.0405 -0.5772
 3797SOL     OW12632   4.990   6.359   0.221  0.9958 -0.2306  0.2806
 3797SOL    HW112633   5.015   6.437   0.172 -2.2209 -0.1057 -1.3167
 3797SOL    HW212634   5.044   6.289   0.185  1.5192  0.6443 -0.6334
 3798SOL     OW12635   7.963   6.110   2.599 -0.2277 -0.3147 -0.0219
 3798SOL    HW112636   8.043   6.063   2.622  0.8316  0.2757 -2.3145
 3798SOL    HW212637   7.987   6.202   2.604 -1.2163 -0.0851  0.7268
 3799SOL     OW12638   2.286   5.614   5.523  0.2121  0.9421 -0.4453
 3799SOL    HW112639   2.208   5.664   5.502  0.4915  1.4538 -0.2874
 3799SOL    HW212640   2.280   5.599   5.618  0.6007  1.5085 -0.3245
 3800SOL     OW12641   0.334   0.843   3.771  0.2002  0.4155  0.1574
 3800SOL    HW112642   0.424   0.872   3.786  1.0809 -2.6682  1.2874
 3800SOL    HW212643   0.307   0.805   3.855 -0.9303 -1.7450 -1.1417
 3801SOL     OW12644   3.524   1.100   1.502 -0.4844  0.0155  0.3114
 3801SOL    HW112645   3.440   1.070   1.534 -1.0299  0.0902 -1.0147
 3801SOL    HW212646   3.513   1.195   1.492 -1.6223 -0.4292 -3.7065
 3802SOL     OW12647   4.171   4.971   0.416 -0.4728 -0.3427  1.0745
 3802SOL    HW112648   4.106   4.924   0.363  0.3112  1.5167 -1.6308
 3802SOL    HW212649   4.150   5.063   0.404  1.8718  0.2407  1.2020
 3803SOL     OW12650   6.108   0.323   3.342  0.1417 -0.2106 -0.2840
 3803SOL    HW112651   6.030   0.272   3.320  0.6338 -0.4242 -1.5979
 3803SOL    HW212652   6.181   0.265   3.319  0.7020  0.8051 -1.1098
 3804SOL     OW12653   8.046   3.550   5.811  0.4857 -0.1703 -0.6418
 3804SOL    HW112654   7.982   3.488   5.845 -0.8299  1.2074 -0.5600
 3804SOL    HW212655   8.092   3.582   5.888  0.1705  0.0497 -0.5462
 3805SOL     OW12656   3.647   6.240   1.432 -0.4135  0.4070  0.8583
 3805SOL    HW112657   3.647   6.317   1.489  0.2281  0.5080  0.7242
 3805SOL    HW212658   3.666   6.167   1.490  2.3179  0.7492  0.4781
 3806SOL     OW12659   0.394   2.859   4.701 -0.0178 -0.1676  0.2047
 3806SOL    HW112660   0.434   2.888   4.784 -1.3707 -0.9995  1.1497
 3806SOL    HW212661   0.447   2.902   4.634  1.5113 -0.0048  1.4801
 3807SOL     OW12662   3.042   4.946   2.124  0.6160 -0.2003 -0.5766
 3807SOL    HW112663   3.087   4.865   2.147  2.0811  1.2736  2.0760
 3807SOL    HW212664   3.112   5.012   2.125 -1.2066  1.7657  1.4152
 3808SOL     OW12665   2.200   1.597   6.919 -0.2810  0.0946 -0.6577
 3808SOL    HW112666   2.153   1.539   6.980 -0.2253  0.3778 -0.3459
 3808SOL    HW212667   2.290   1.596   6.951 -0.2743  0.3335 -0.6680
 3809SOL     OW12668   3.813   5.150   8.153 -0.6364  0.1016  0.0161
 3809SOL    HW112669   3.893   5.163   8.204 -0.7504  0.2203  0.1689
 3809SOL    HW212670   3.771   5.074   8.193  0.3413 -1.1392 -1.2769
 3810SOL     OW12671   0.292   0.610   6.646 -1.2646  0.4126 -0.1547
 3810SOL    HW112672   0.274   0.651   6.562 -1.3788  1.0195  0.1587
 3810SOL    HW212673   0.261   0.520   6.637 -1.0432  0.4014 -0.8396
 3811SOL     OW12674   4.258   3.372   2.653 -0.2433 -0.3062 -0.1225
 3811SOL    HW112675   4.197   3.304   2.682 -0.1860  0.3721  1.6277
 3811SOL    HW212676   4.229   3.451   2.699  0.6130  0.5143 -0.9797
 3812SOL     OW12677   3.101   2.457   6.337  0.4078 -0.5114 -0.1679
 3812SOL    HW112678   3.077   2.536   6.290 -0.7488 -0.8236 -0.1376
 3812SOL    HW212679   3.024   2.437   6.391  0.9520 -1.2591  0.3555
 3813SOL     OW12680   7.112   5.526   6.149 -0.0693  0.0447 -0.0339
 3813SOL    HW112681   7.064   5.586   6.091  2.0058  0.4117 -1.4468
 3813SOL    HW212682   7.102   5.564   6.236 -0.9393  1.0098 -0.5352
 3814SOL     OW12683   4.453   1.135   1.897 -0.7046  0.4699  0.2350
 3814SOL    HW112684   4.407   1.130   1.813 -0.4933  0.0956  0.1430
 3814SOL    HW212685   4.502   1.053   1.903 -0.1681  0.8047  0.4089
 3815SOL     OW12686   6.733   7.056   7.583 -0.2733 -0.0389  0.4803
 3815SOL    HW112687   6.641   7.053   7.558 -0.4676 -0.7768  1.2697
 3815SOL    HW212688   6.765   6.967   7.568  0.6317  0.5287 -0.9940
 3816SOL     OW12689   7.357   3.755   6.544  0.3552 -0.1364  0.2993
 3816SOL    HW112690   7.397   3.761   6.631  1.2011  0.1982 -0.1178
 3816SOL    HW212691   7.431   3.750   6.483 -0.2328 -1.3082 -0.3402
 3817SOL     OW12692   0.915   6.857   7.112  0.2257 -0.0048 -0.1005
 3817SOL    HW112693   0.928   6.908   7.192 -1.0301  0.1028  0.0420
 3817SOL    HW212694   0.986   6.793   7.112  0.9612  0.7977  0.4660
 3818SOL     OW12695   6.285   0.730   0.743  0.5982  0.6439 -0.0987
 3818SOL    HW112696   6.199   0.698   0.770  0.5241  0.4019 -0.6170
 3818SOL    HW212697   6.333   0.651   0.716  0.7765  0.8479 -0.3797
 3819SOL     OW12698   7.008   8.160   3.720 -0.0072  0.6810  0.1147
 3819SOL    HW112699   6.951   8.089   3.691  0.2792  1.0642 -1.4162
 3819SOL    HW212700   7.078   8.117   3.768 -0.6500  0.0612  0.5012
 3820SOL     OW12701   5.975   3.622   6.939  0.4637  0.0294 -0.4683
 3820SOL    HW112702   6.033   3.602   7.012  0.4214  2.2745  0.2400
 3820SOL    HW212703   6.028   3.675   6.880  0.6171 -2.0979 -2.2926
 3821SOL     OW12704   1.360   6.372   7.186  0.1832 -0.1132 -0.4823
 3821SOL    HW112705   1.335   6.306   7.250 -1.1863  1.1185  0.2852
 3821SOL    HW212706   1.279   6.397   7.143  0.9011  0.0302 -1.7883
 3822SOL     OW12707   1.423   2.280   1.186 -0.5242 -0.7373 -0.3034
 3822SOL    HW112708   1.387   2.299   1.272 -1.4053 -1.4064 -0.5055
 3822SOL    HW212709   1.460   2.363   1.156 -0.4667 -0.4354  0.5961
 3823SOL     OW12710   7.692   7.032   4.138  0.4358 -0.2545  0.8277
 3823SOL    HW112711   7.600   7.027   4.165 -0.2948  2.6999 -0.9151
 3823SOL    HW212712   7.702   6.963   4.072 -0.6535 -0.3027  0.7071
 3824SOL     OW12713   0.521   0.562   5.424 -0.0912  0.2017  0.0512
 3824SOL    HW112714   0.524   0.578   5.519  0.2469  3.1365 -0.4164
 3824SOL    HW212715   0.448   0.500   5.413 -0.1498 -0.1704  2.2199
 3825SOL     OW12716   7.774   3.250   7.060 -0.3429  0.2832  0.0803
 3825SOL    HW112717   7.704   3.271   6.998  0.8727 -1.1977 -1.8663
 3825SOL    HW212718   7.828   3.186   7.014  1.2133 -0.0493  2.2894
 3826SOL     OW12719   6.754   2.175   7.127 -0.0630  0.5788  0.0243
 3826SOL    HW112720   6.717   2.262   7.143 -0.1264  0.4388  0.6314
 3826SOL    HW212721   6.678   2.116   7.132  0.2270  0.2978  1.1952
 3827SOL     OW12722   3.168   1.364   4.102  0.3176  0.7258 -0.2369
 3827SOL    HW112723   3.074   1.344   4.108  0.2442  0.8956 -0.7803
 3827SOL    HW212724   3.173   1.458   4.117  0.4895  0.5812  0.6273
 3828SOL     OW12725   2.486   4.275   1.540  0.1349 -0.5700  0.4212
 3828SOL    HW112726   2.442   4.247   1.620  0.3036 -0.2407  0.6298
 3828SOL    HW212727   2.573   4.304   1.569 -0.9085  2.5893  0.5978
 3829SOL     OW12728   8.171   0.561   6.328 -0.1741  0.0637 -0.3162
 3829SOL    HW112729   8.163   0.478   6.282  1.3184  0.4995 -1.4204
 3829SOL    HW212730   8.111   0.620   6.283 -0.8631 -0.2864  0.1478
 3830SOL     OW12731   2.056   8.099   0.158  0.1190 -0.1313  0.0808
 3830SOL    HW112732   1.975   8.075   0.203  0.6385 -0.5185  0.8173
 3830SOL    HW212733   2.029   8.114   0.068 -0.7339 -0.4954  0.2660
 3831SOL     OW12734   0.548   1.741   2.486 -0.1601 -0.4656 -0.1181
 3831SOL    HW112735   0.641   1.731   2.504  0.1672  0.0282 -1.4312
 3831SOL    HW212736   0.531   1.835   2.496 -0.2134 -0.3529 -1.2394
 3832SOL     OW12737   0.314   5.433   3.466  0.1267 -0.4749 -0.1950
 3832SOL    HW112738   0.348   5.460   3.551  0.2162 -0.9701 -0.0685
 3832SOL    HW212739   0.325   5.509   3.409 -1.5477  0.4496  0.6759
 3833SOL     OW12740   1.710   0.301   5.575  0.3566 -0.4657 -0.4891
 3833SOL    HW112741   1.651   0.229   5.599  1.2044 -1.3466 -1.0297
 3833SOL    HW212742   1.720   0.294   5.481 -0.8604  1.3869 -0.7751
 3834SOL     OW12743   7.051   2.915   6.277 -0.9108  0.0330 -0.0640
 3834SOL    HW112744   7.071   2.957   6.194  0.1244 -0.5075 -0.1064
 3834SOL    HW212745   7.080   2.977   6.344  2.0176 -1.1793 -0.1225
 3835SOL     OW12746   2.765   6.803   1.607  0.3315  0.1055  0.0813
 3835SOL    HW112747   2.854   6.810   1.640  0.7635 -0.5870 -0.9109
 3835SOL    HW212748   2.754   6.710   1.588 -0.6596  0.1631  0.3366
 3836SOL     OW12749   5.446   4.668   4.803  0.3536 -0.3058 -0.2483
 3836SOL    HW112750   5.512   4.646   4.868  0.0431 -0.1141  0.1298
 3836SOL    HW212751   5.458   4.604   4.733 -0.5934 -1.7028  0.8633
 3837SOL     OW12752   2.500   3.484   4.956  0.2465 -0.5153 -0.4569
 3837SOL    HW112753   2.519   3.559   5.012 -0.0061 -1.4705  0.9392
 3837SOL    HW212754   2.411   3.459   4.980  0.0689 -0.8176 -1.4292
 3838SOL     OW12755   1.783   3.810   3.905 -0.0309 -0.2488 -0.2286
 3838SOL    HW112756   1.728   3.757   3.847 -0.7535  1.2516 -0.9282
 3838SOL    HW212757   1.739   3.806   3.990 -0.3474 -0.3720 -0.3983
 3839SOL     OW12758   1.979   0.374   3.415 -0.6070 -0.1204 -0.0267
 3839SOL    HW112759   1.993   0.342   3.504  0.0091 -0.0506 -0.0957
 3839SOL    HW212760   1.984   0.469   3.422 -2.4175 -0.0333  0.1746
 3840SOL     OW12761   6.272   6.461   6.739 -0.4723 -0.0942  0.1098
 3840SOL    HW112762   6.303   6.519   6.808  2.0534  0.2491 -1.2781
 3840SOL    HW212763   6.310   6.376   6.761 -0.8174 -0.3025 -0.1008
 3841SOL     OW12764   6.732   4.197   7.909 -0.3436  0.5059  0.0959
 3841SOL    HW112765   6.733   4.116   7.859  2.6874  1.1090 -0.8622
 3841SOL    HW212766   6.804   4.189   7.971 -1.6817  1.3770  1.8391
 3842SOL     OW12767   1.806   4.782   4.609  0.2407  0.0385 -0.0457
 3842SOL    HW112768   1.808   4.837   4.531 -0.9066 -1.8964 -1.4896
 3842SOL    HW212769   1.716   4.749   4.613  0.5593 -0.6913  1.5183
 3843SOL     OW12770   7.426   4.430   2.926  0.7497 -0.1414 -0.0908
 3843SOL    HW112771   7.411   4.396   3.014  2.0147  1.8164  0.8999
 3843SOL    HW212772   7.498   4.377   2.892  1.3973  0.2364  0.6908
 3844SOL     OW12773   4.380   6.476   3.261  0.5614  0.6325  0.3494
 3844SOL    HW112774   4.295   6.446   3.293  1.0926  0.0491  1.2411
 3844SOL    HW212775   4.379   6.455   3.168 -0.5351  1.2503  0.2060
 3845SOL     OW12776   7.757   3.447   0.426 -0.3016  0.2202 -0.5721
 3845SOL    HW112777   7.710   3.368   0.453 -0.8806  0.8069  0.1451
 3845SOL    HW212778   7.752   3.505   0.502  1.0607  0.5278 -0.7050
 3846SOL     OW12779   5.980   1.325   0.522 -0.2344  0.3427  0.0538
 3846SOL    HW112780   6.019   1.240   0.544  0.5127  0.6239 -0.1805
 3846SOL    HW212781   5.889   1.304   0.499  0.5551 -0.7006 -2.2782
 3847SOL     OW12782   7.374   5.840   5.928  0.0167 -0.6089  0.0370
 3847SOL    HW112783   7.341   5.891   6.003 -0.0835 -1.8840  0.8809
 3847SOL    HW212784   7.460   5.878   5.909 -0.1083 -0.0465  0.5869
 3848SOL     OW12785   4.756   5.284   2.990  0.4983  0.4133 -0.3513
 3848SOL    HW112786   4.691   5.278   2.920 -0.9187  1.0047  0.8710
 3848SOL    HW212787   4.837   5.252   2.951 -0.9185 -2.0069 -1.4072
 3849SOL     OW12788   0.122   0.562   3.104  0.1782  0.0871  0.1219
 3849SOL    HW112789   0.147   0.552   3.195  1.5995 -1.8394 -0.4550
 3849SOL    HW212790   0.197   0.530   3.054 -0.1211  2.1563 -1.7512
 3850SOL     OW12791   4.343   5.553   0.528  0.0285 -0.1111  0.3149
 3850SOL    HW112792   4.248   5.539   0.526 -0.5113  2.0528  4.5822
 3850SOL    HW212793   4.354   5.644   0.503  0.9579 -0.3027  0.0071
 3851SOL     OW12794   5.452   3.764   6.999  0.2273 -0.1112 -0.2799
 3851SOL    HW112795   5.361   3.744   6.978  0.1524  0.7647 -0.7997
 3851SOL    HW212796   5.474   3.704   7.071 -0.4464 -1.0178 -0.8119
 3852SOL     OW12797   8.153   5.748   7.552  0.2739 -0.1367  0.3904
 3852SOL    HW112798   8.058   5.746   7.537  0.2877  1.4395  0.0171
 3852SOL    HW212799   8.170   5.837   7.584  1.5531 -0.5859  0.9867
 3853SOL     OW12800   2.427   1.827   5.303  0.5138  0.0839  0.7038
 3853SOL    HW112801   2.390   1.853   5.219  1.4425  0.4869  0.4149
 3853SOL    HW212802   2.450   1.910   5.346  0.7691 -0.1488  1.0222
 3854SOL     OW12803   3.265   7.658   0.053  0.5881 -0.2786 -0.1129
 3854SOL    HW112804   3.297   7.663  -0.037 -0.4404 -1.9331 -0.5901
 3854SOL    HW212805   3.206   7.733   0.062  1.7737  0.6974 -0.3618
 3855SOL     OW12806   3.541   0.243   7.781 -0.5225 -0.0582 -0.4458
 3855SOL    HW112807   3.573   0.211   7.865 -1.6055 -2.5372 -0.9201
 3855SOL    HW212808   3.510   0.165   7.736 -3.4701  1.6699 -1.6145
 3856SOL     OW12809   3.748   0.859   2.475  0.3967 -0.1520 -1.1276
 3856SOL    HW112810   3.655   0.854   2.454  0.1213 -1.6936  0.4399
 3856SOL    HW212811   3.788   0.788   2.424  0.4519 -0.6583 -0.3793
 3857SOL     OW12812   0.527   6.840   6.704 -0.1567 -0.5603 -0.1203
 3857SOL    HW112813   0.587   6.859   6.776 -1.3385 -1.8349  1.2197
 3857SOL    HW212814   0.450   6.893   6.722 -0.4695 -0.9025 -0.4391
 3858SOL     OW12815   5.668   4.049   3.878 -0.3522 -0.8622 -0.2845
 3858SOL    HW112816   5.714   4.124   3.841  0.8150 -1.6927 -0.5575
 3858SOL    HW212817   5.584   4.084   3.908  0.6128  0.7593  0.5839
 3859SOL     OW12818   6.987   0.978   0.937 -0.1531  0.2628  0.3619
 3859SOL    HW112819   7.020   1.028   0.862 -0.9492 -1.7278 -1.3429
 3859SOL    HW212820   6.897   1.008   0.948 -0.0152  0.6041  0.5836
 3860SOL     OW12821   3.055   0.933   7.677  0.1999  0.2894 -0.0150
 3860SOL    HW112822   3.100   0.899   7.755 -1.5468 -0.1107  0.8514
 3860SOL    HW212823   3.028   1.022   7.702  1.2259  0.8270 -0.8196
 3861SOL     OW12824   6.225   1.855   5.244  0.1942 -0.0977  0.2168
 3861SOL    HW112825   6.186   1.942   5.240  0.4401  0.0645  1.2190
 3861SOL    HW212826   6.166   1.805   5.301 -0.7730 -1.0276 -1.5491
 3862SOL     OW12827   8.149   1.380   2.826  0.3676 -0.0486  0.3527
 3862SOL    HW112828   8.220   1.442   2.805  0.9952 -0.5580  0.9219
 3862SOL    HW212829   8.186   1.325   2.895  0.3303 -1.9843 -1.1240
 3863SOL     OW12830   5.415   3.460   6.483  0.1156 -0.3546 -0.3167
 3863SOL    HW112831   5.326   3.448   6.516  1.1091  0.2910  2.8223
 3863SOL    HW212832   5.417   3.550   6.451 -0.6734 -0.7495 -1.4926
 3864SOL     OW12833   4.342   6.518   1.485  0.3249  0.4157  0.0604
 3864SOL    HW112834   4.406   6.489   1.549  1.0936  3.3331  0.7065
 3864SOL    HW212835   4.393   6.562   1.417 -0.8264  1.0906 -0.3871
 3865SOL     OW12836   2.290   5.366   1.007 -0.1627  0.1787 -0.6783
 3865SOL    HW112837   2.276   5.416   1.087 -0.8817 -1.4404  0.2438
 3865SOL    HW212838   2.336   5.426   0.949  0.9995  1.1641  1.1895
 3866SOL     OW12839   4.731   5.599   3.972 -0.2284  0.4169 -0.3030
 3866SOL    HW112840   4.654   5.579   3.919  0.3160 -1.2658 -0.4825
 3866SOL    HW212841   4.696   5.647   4.048 -1.2241  1.2190 -1.2412
 3867SOL     OW12842   5.558   2.035   3.083  0.5017 -0.0195 -0.3963
 3867SOL    HW112843   5.479   2.088   3.075  0.2309 -0.3432  0.0872
 3867SOL    HW212844   5.578   2.034   3.176  0.0281 -1.4416 -0.2907
 3868SOL     OW12845   4.356   4.590   6.536 -0.5022  0.3951  0.1911
 3868SOL    HW112846   4.300   4.628   6.468 -1.7109  0.6877  1.3237
 3868SOL    HW212847   4.304   4.598   6.616 -0.1787 -2.2727  0.7110
 3869SOL     OW12848   1.632   1.038   1.466  0.3571  0.4578  0.5040
 3869SOL    HW112849   1.624   0.960   1.520 -0.1485 -0.3392 -0.6800
 3869SOL    HW212850   1.720   1.033   1.429  0.0639  0.0233 -0.1660
 3870SOL     OW12851   1.808   1.587   2.215  0.0282  0.0079  0.2505
 3870SOL    HW112852   1.847   1.644   2.282  0.4700  0.3220 -0.2654
 3870SOL    HW212853   1.714   1.593   2.229  0.1333 -0.0955  0.9818
 3871SOL     OW12854   7.332   3.307   3.740 -0.4461  1.2432 -0.0269
 3871SOL    HW112855   7.269   3.255   3.689 -0.4208  1.0458  0.1407
 3871SOL    HW212856   7.403   3.325   3.679  0.3146 -0.3010  0.3651
 3872SOL     OW12857   5.535   6.111   8.232 -0.2735  0.0572  0.3727
 3872SOL    HW112858   5.623   6.122   8.268 -0.4405 -0.6708  1.0046
 3872SOL    HW212859   5.519   6.017   8.234 -1.6855  0.2943  1.7772
 3873SOL     OW12860   4.440   2.490   6.588 -0.5531  0.6857 -0.0679
 3873SOL    HW112861   4.454   2.450   6.674 -0.9641  2.3863  0.8190
 3873SOL    HW212862   4.418   2.417   6.531  2.0572 -0.7544  0.7267
 3874SOL     OW12863   4.475   6.527   7.546 -0.2960 -0.0426  0.2364
 3874SOL    HW112864   4.391   6.573   7.553 -1.0548 -1.5603  1.4443
 3874SOL    HW212865   4.477   6.468   7.622  0.3867 -2.3842 -1.5223
 3875SOL     OW12866   1.301   6.140   5.053  0.0569 -0.2423  0.1791
 3875SOL    HW112867   1.386   6.183   5.051 -0.5917  1.0371 -0.4965
 3875SOL    HW212868   1.268   6.154   5.142  0.5388 -0.7113  0.4295
 3876SOL     OW12869   7.206   3.958   8.279 -0.6175 -0.2561  0.7626
 3876SOL    HW112870   7.132   3.974   8.221 -0.3585  0.4531  0.6161
 3876SOL    HW212871   7.222   3.864   8.274 -0.5285 -0.1803 -0.4003
 3877SOL     OW12872   8.082   4.255   4.557  0.3625 -0.1824  0.8529
 3877SOL    HW112873   8.125   4.201   4.623 -0.9534 -1.9945  0.2569
 3877SOL    HW212874   8.071   4.197   4.482  0.6738  1.4770 -0.5266
 3878SOL     OW12875   5.020   3.612   0.260  0.1194  0.5068 -0.7659
 3878SOL    HW112876   5.049   3.695   0.297  1.9088 -0.7419  0.7407
 3878SOL    HW212877   4.957   3.578   0.324  0.4327  0.0524 -0.6989
 3879SOL     OW12878   1.560   4.744   3.210  0.3867  0.0955  0.7867
 3879SOL    HW112879   1.626   4.800   3.170  1.1384 -1.7571 -0.6210
 3879SOL    HW212880   1.608   4.692   3.274  0.6491 -2.4161 -1.3862
 3880SOL     OW12881   7.864   3.607   0.669 -0.1274 -0.2837 -0.3347
 3880SOL    HW112882   7.928   3.625   0.600  0.2504  0.9724  0.3378
 3880SOL    HW212883   7.900   3.532   0.716 -0.1043 -0.7852 -1.1252
 3881SOL     OW12884   5.721   6.993   7.665  0.2383 -0.0722 -0.7644
 3881SOL    HW112885   5.759   6.992   7.753  2.7717  1.5525 -1.7926
 3881SOL    HW212886   5.688   7.082   7.654  1.5884  0.2673 -2.1374
 3882SOL     OW12887   6.118   2.944   0.690 -0.0551 -0.2467  0.2910
 3882SOL    HW112888   6.096   2.868   0.744  0.0758 -1.7742 -1.7413
 3882SOL    HW212889   6.210   2.932   0.667  0.6915  1.8617  1.9971
 3883SOL     OW12890   3.106   4.060   7.827  0.2441  0.0281  0.2354
 3883SOL    HW112891   3.013   4.045   7.809 -0.2807  2.7491  0.4744
 3883SOL    HW212892   3.144   3.972   7.828 -1.8050 -0.9797 -2.6126
 3884SOL     OW12893   3.648   2.474   6.222 -0.3270  0.2802 -0.5564
 3884SOL    HW112894   3.563   2.435   6.199 -0.6289  0.1944  0.6526
 3884SOL    HW212895   3.667   2.534   6.149 -0.7046 -0.8088 -1.5689
 3885SOL     OW12896   6.287   5.070   2.320 -0.2928 -0.8226  0.2222
 3885SOL    HW112897   6.287   5.165   2.333 -0.9136 -0.7234 -0.4991
 3885SOL    HW212898   6.202   5.051   2.280 -0.4158 -1.7579  0.8955
 3886SOL     OW12899   3.086   0.463   3.119  0.3723 -0.2598  0.5528
 3886SOL    HW112900   3.044   0.529   3.063  0.3150 -0.6373  0.1478
 3886SOL    HW212901   3.134   0.514   3.185 -1.2087  0.1822  1.3914
 3887SOL     OW12902   5.728   0.099   1.184  0.8828  0.2664  0.0027
 3887SOL    HW112903   5.684   0.166   1.236 -1.5000 -1.5978  0.4919
 3887SOL    HW212904   5.805   0.075   1.236 -0.4974 -0.2965  1.8299
 3888SOL     OW12905   5.443   5.054   6.569  1.1543  0.2680 -0.2862
 3888SOL    HW112906   5.510   5.122   6.566  0.5920  0.7819 -1.2991
 3888SOL    HW212907   5.368   5.092   6.523  0.0045 -0.1256  1.2485
 3889SOL     OW12908   5.860   1.047   2.984  0.1065  0.4695  0.5706
 3889SOL    HW112909   5.842   1.115   2.920  0.0953  0.0771  0.1493
 3889SOL    HW212910   5.953   1.059   3.007  0.0243  0.8084  0.7191
 3890SOL     OW12911   1.168   3.324   0.195 -0.4049 -0.3036 -0.1861
 3890SOL    HW112912   1.180   3.234   0.227  0.3754 -0.5001 -1.0045
 3890SOL    HW212913   1.187   3.319   0.101  1.9251  1.1199  0.1502
 3891SOL     OW12914   5.082   5.911   1.020 -0.5095  0.3130 -0.7263
 3891SOL    HW112915   4.996   5.872   1.035  0.4237 -1.3128  0.4490
 3891SOL    HW212916   5.089   5.980   1.086 -0.6668  0.0516 -0.4355
 3892SOL     OW12917   4.639   1.646   3.859  0.4542  0.1622  0.5218
 3892SOL    HW112918   4.627   1.631   3.952 -0.1917  0.7288  0.5321
 3892SOL    HW212919   4.555   1.625   3.819  1.2008 -1.6803 -0.1466
 3893SOL     OW12920   0.879   2.340   4.988  0.1117 -0.0780  0.5635
 3893SOL    HW112921   0.901   2.277   4.919 -1.8299 -0.8944  0.6607
 3893SOL    HW212922   0.784   2.330   5.001  0.3622  0.3722  3.0522
 3894SOL     OW12923   7.490   2.241   4.925 -0.6703  0.4839  0.4187
 3894SOL    HW112924   7.583   2.226   4.906 -1.4416 -2.7437 -1.1744
 3894SOL    HW212925   7.472   2.187   5.002 -0.9050  2.3383  1.6954
 3895SOL     OW12926   1.601   5.219   4.245  0.7450 -0.1985 -0.4708
 3895SOL    HW112927   1.667   5.173   4.296 -0.3079 -1.0651  0.1328
 3895SOL    HW212928   1.529   5.156   4.235 -0.9451  1.4595  0.8251
 3896SOL     OW12929   1.071   5.054   4.153  0.0727 -0.5779  0.4566
 3896SOL    HW112930   0.979   5.052   4.126  0.2596 -0.1657 -0.2343
 3896SOL    HW212931   1.098   5.145   4.138  0.9707 -1.0136 -0.6578
 3897SOL     OW12932   3.027   5.660   5.974  0.2179  0.2892 -0.1735
 3897SOL    HW112933   3.096   5.676   5.909 -1.5188  1.2769 -1.8184
 3897SOL    HW212934   3.041   5.728   6.040  0.5642  0.7690 -0.7273
 3898SOL     OW12935   8.252   7.698   7.370 -0.0174  0.0142  0.1642
 3898SOL    HW112936   8.271   7.791   7.364 -0.1059  0.1446  1.6424
 3898SOL    HW212937   8.157   7.693   7.359 -0.1972  0.2542  1.5558
 3899SOL     OW12938   5.721   7.675   8.142 -0.1369  0.6171 -0.0934
 3899SOL    HW112939   5.737   7.768   8.159  1.1363  0.0657  1.8777
 3899SOL    HW212940   5.634   7.659   8.178 -0.2598  0.9810 -0.2211
 3900SOL     OW12941   1.984   4.275   5.201  0.0059  0.2928 -0.4143
 3900SOL    HW112942   1.975   4.371   5.204  0.6591  0.3744 -0.7959
 3900SOL    HW212943   1.988   4.255   5.108 -0.6477 -0.1621 -0.3394
 3901SOL     OW12944   4.046   1.088   5.783 -0.3380  0.3316  0.0751
 3901SOL    HW112945   4.035   1.068   5.690  2.0545 -0.0539 -0.1404
 3901SOL    HW212946   4.082   1.176   5.785  0.2604  0.0806  0.6114
 3902SOL     OW12947   1.011   4.540   6.316 -0.2914 -0.4860 -0.0684
 3902SOL    HW112948   0.935   4.586   6.281  0.7212  1.1023 -0.2502
 3902SOL    HW212949   1.064   4.518   6.240  0.4970  0.3763  0.2229
 3903SOL     OW12950   1.597   0.820   5.496 -0.4676  0.5668  0.9848
 3903SOL    HW112951   1.644   0.764   5.434 -0.5485  1.4387  0.1120
 3903SOL    HW212952   1.665   0.852   5.555 -0.5454 -1.1029  2.0213
 3904SOL     OW12953   7.206   7.286   7.086 -0.0998  0.0778 -0.2051
 3904SOL    HW112954   7.280   7.310   7.031 -0.6051  0.6175 -0.6544
 3904SOL    HW212955   7.223   7.329   7.170  0.8010 -0.9545  0.1624
 3905SOL     OW12956   0.864   7.352   2.237 -0.7830  0.3034  0.1520
 3905SOL    HW112957   0.861   7.361   2.141 -3.5739 -0.0630  0.1599
 3905SOL    HW212958   0.853   7.441   2.270  2.6686  0.7723  0.1606
 3906SOL     OW12959   1.245   4.017   6.547  0.2156 -0.6682 -0.2549
 3906SOL    HW112960   1.165   4.051   6.588  1.1004  1.4164 -0.1656
 3906SOL    HW212961   1.254   3.928   6.581 -0.6316  0.0113  1.8434
 3907SOL     OW12962   7.183   7.751   5.163  0.1608 -0.6873  0.0712
 3907SOL    HW112963   7.244   7.823   5.179 -1.2544  0.4804  0.3667
 3907SOL    HW212964   7.160   7.719   5.250  0.2954 -1.0702 -0.0344
 3908SOL     OW12965   0.219   4.481   3.655 -0.2590 -0.3973  0.3138
 3908SOL    HW112966   0.311   4.457   3.670 -0.0030  1.0783  1.1854
 3908SOL    HW212967   0.212   4.571   3.686 -2.0043 -0.4733  0.2070
 3909SOL     OW12968   1.334   5.201   1.623  0.0223  0.5036  0.0570
 3909SOL    HW112969   1.418   5.214   1.580  0.0865  2.7531  0.8047
 3909SOL    HW212970   1.275   5.171   1.554  1.7677 -2.7021 -0.1774
 3910SOL     OW12971   3.292   6.347   0.905 -0.2831  0.0439  0.4380
 3910SOL    HW112972   3.202   6.317   0.923 -0.5340  0.8009  0.4658
 3910SOL    HW212973   3.348   6.280   0.944 -0.8329  0.3398  1.7791
 3911SOL     OW12974   6.247   6.834   8.210 -0.6993  0.4236 -0.5055
 3911SOL    HW112975   6.322   6.839   8.151 -0.3989  0.8156 -0.0974
 3911SOL    HW212976   6.191   6.767   8.172 -0.2697  0.3204 -0.9632
 3912SOL     OW12977   6.626   2.192   8.256  0.1807 -0.0199 -0.2071
 3912SOL    HW112978   6.611   2.224   8.167  1.5003 -1.5485 -0.9852
 3912SOL    HW212979   6.542   2.154   8.282 -1.0368  2.8636  0.2593
 3913SOL     OW12980   7.253   3.478   4.565 -0.1131 -0.3955 -0.1315
 3913SOL    HW112981   7.316   3.517   4.626 -0.0916 -0.3443 -0.1864
 3913SOL    HW212982   7.272   3.519   4.481  0.4880 -1.1631 -0.3777
 3914SOL     OW12983   4.562   2.581   5.470 -0.1052 -0.0061  0.1071
 3914SOL    HW112984   4.496   2.649   5.471  1.9674  2.0531  0.1156
 3914SOL    HW212985   4.512   2.499   5.472 -2.6957  1.4309 -2.3208
 3915SOL     OW12986   0.715   3.285   5.854 -0.8173 -0.1951 -0.2195
 3915SOL    HW112987   0.675   3.199   5.847  0.5122 -1.1436  2.9056
 3915SOL    HW212988   0.745   3.290   5.945  2.3418  2.1345 -1.3045
 3916SOL     OW12989   6.430   4.179   5.606  0.8899  0.5063  0.0139
 3916SOL    HW112990   6.505   4.223   5.567  0.9610  0.7534  0.4164
 3916SOL    HW212991   6.399   4.241   5.673 -0.2703  0.8351 -0.8214
 3917SOL     OW12992   7.249   5.222   7.804  0.2555  0.2704 -0.0603
 3917SOL    HW112993   7.290   5.306   7.820  0.9489 -0.3762  1.6301
 3917SOL    HW212994   7.283   5.164   7.872 -1.3705 -0.9891 -0.2684
 3918SOL     OW12995   1.640   0.395   1.812 -0.1786 -0.1589 -0.4607
 3918SOL    HW112996   1.667   0.417   1.901  0.9086 -0.3765 -0.7242
 3918SOL    HW212997   1.588   0.470   1.784 -0.6128 -0.1316  0.3911
 3919SOL     OW12998   4.712   2.302   6.260  0.6063  0.5049  0.9391
 3919SOL    HW112999   4.790   2.278   6.210  0.6058  2.9366 -0.3192
 3919SOL    HW213000   4.641   2.252   6.220  1.2533 -0.5276  1.0696
 3920SOL     OW13001   6.581   6.039   2.596 -0.2594 -0.0347 -0.9691
 3920SOL    HW113002   6.615   6.030   2.507  1.4576  1.1462 -0.4457
 3920SOL    HW213003   6.595   5.953   2.636  1.4496  0.2179 -0.9986
 3921SOL     OW13004   4.419   5.402   5.583 -0.0739 -0.0035  0.3966
 3921SOL    HW113005   4.362   5.478   5.599 -2.1248 -1.2086 -0.9013
 3921SOL    HW213006   4.477   5.399   5.659 -1.2006  1.7811  1.3613
 3922SOL     OW13007   5.619   0.116   8.255 -0.2763  0.4703  0.0248
 3922SOL    HW113008   5.532   0.097   8.291 -0.3841 -0.3348 -0.6425
 3922SOL    HW213009   5.669   0.149   8.330 -1.4703  2.0074  0.1857
 3923SOL     OW13010   1.844   7.548   7.921  0.0614  0.2322  0.5674
 3923SOL    HW113011   1.790   7.495   7.862 -0.7657  2.1311 -0.4386
 3923SOL    HW213012   1.781   7.590   7.980  0.7579 -0.3558  1.7706
 3924SOL     OW13013   5.374   7.156   7.063  0.5025 -0.7870  0.5194
 3924SOL    HW113014   5.443   7.221   7.073 -0.4029  0.3431 -0.5518
 3924SOL    HW213015   5.417   7.080   7.024  1.3776 -0.5436  1.0106
 3925SOL     OW13016   2.883   5.036   7.427 -0.2774  0.2642  0.2548
 3925SOL    HW113017   2.809   5.045   7.367 -0.0108  0.2229 -0.0756
 3925SOL    HW213018   2.903   4.942   7.427  1.2361  0.5825 -1.3901
 3926SOL     OW13019   1.256   1.095   2.198  0.0251  0.0747  0.6671
 3926SOL    HW113020   1.206   1.040   2.257  0.3892 -0.6671  0.2845
 3926SOL    HW213021   1.300   1.158   2.255 -0.1231 -0.2434  1.1249
 3927SOL     OW13022   2.557   3.382   5.455  0.7202 -0.1958  0.5974
 3927SOL    HW113023   2.627   3.428   5.502  0.5829 -0.6748  1.2812
 3927SOL    HW213024   2.498   3.451   5.426  1.8825  0.2919 -0.6787
 3928SOL     OW13025   7.052   1.264   0.802  0.0461  0.4201 -0.2987
 3928SOL    HW113026   7.133   1.220   0.829 -0.6903 -0.8710 -0.1483
 3928SOL    HW213027   7.016   1.207   0.734 -0.4025  1.3323 -0.8317
 3929SOL     OW13028   5.483   2.771   4.865 -0.1297  0.1602  0.3737
 3929SOL    HW113029   5.468   2.693   4.917  1.0138 -0.6927 -0.5687
 3929SOL    HW213030   5.578   2.783   4.864 -0.3345  2.0660  1.2328
 3930SOL     OW13031   1.198   5.263   7.370  0.7337  0.3704  0.0970
 3930SOL    HW113032   1.114   5.220   7.385  0.5023  0.0441 -1.9632
 3930SOL    HW213033   1.263   5.200   7.401  0.2194  0.6944  1.8484
 3931SOL     OW13034   5.284   0.240   0.197  0.6805  0.2036 -0.1854
 3931SOL    HW113035   5.371   0.277   0.216  0.5707  0.5810 -0.3991
 3931SOL    HW213036   5.296   0.190   0.116  0.5167  0.9620 -0.6926
 3932SOL     OW13037   7.259   0.582   0.208 -0.1948  0.2064 -0.7868
 3932SOL    HW113038   7.263   0.495   0.249 -0.0033  0.8488  0.6135
 3932SOL    HW213039   7.237   0.640   0.281 -0.9083  1.2525 -1.8341
 3933SOL     OW13040   4.070   2.778   3.392 -0.0397  0.0378 -0.0970
 3933SOL    HW113041   4.102   2.705   3.340  1.0314 -0.6415  1.4518
 3933SOL    HW213042   4.148   2.810   3.439 -1.1337  0.0132  1.7901
 3934SOL     OW13043   7.853   4.419   0.308  0.2847  0.6743 -0.1973
 3934SOL    HW113044   7.881   4.500   0.265 -0.9782  1.4140  0.3443
 3934SOL    HW213045   7.894   4.422   0.394  1.0193  0.2725 -0.5354
 3935SOL     OW13046   2.977   0.339   4.187  0.0951 -0.5373  0.6154
 3935SOL    HW113047   3.067   0.339   4.222  0.6786 -0.5808 -0.8583
 3935SOL    HW213048   2.955   0.246   4.179 -0.0669 -0.5262  0.9006
 3936SOL     OW13049   2.108   4.539   5.561 -0.0229  0.7462  0.0303
 3936SOL    HW113050   2.140   4.578   5.643 -0.4856 -1.1876  1.1807
 3936SOL    HW213051   2.182   4.488   5.529 -0.2078  0.5973 -0.1568
 3937SOL     OW13052   3.091   4.978   7.986 -0.2754 -0.2236  0.2473
 3937SOL    HW113053   3.146   4.951   7.912  0.5785  2.2577 -0.0519
 3937SOL    HW213054   3.143   4.957   8.063  0.0460 -0.1393  0.0541
 3938SOL     OW13055   2.400   7.455   4.803  0.1426  0.4540 -0.2775
 3938SOL    HW113056   2.474   7.516   4.797  0.9997 -0.5477  0.0651
 3938SOL    HW213057   2.412   7.396   4.729  0.6049 -0.7214  0.7259
 3939SOL     OW13058   4.789   6.722   3.402  0.1840  0.6361  0.5300
 3939SOL    HW113059   4.730   6.646   3.400 -0.1410  0.8271  2.0902
 3939SOL    HW213060   4.835   6.719   3.318 -0.7073 -0.5840  0.0682
 3940SOL     OW13061   3.500   7.491   0.174 -0.0773 -0.2951 -0.0346
 3940SOL    HW113062   3.465   7.522   0.090 -1.2833  0.4514  0.7435
 3940SOL    HW213063   3.430   7.507   0.237  0.6322 -1.3279  1.0354
 3941SOL     OW13064   5.731   4.206   7.108 -0.9349  0.3044  0.4689
 3941SOL    HW113065   5.655   4.165   7.147 -0.8700 -1.5420 -1.2905
 3941SOL    HW213066   5.697   4.283   7.062 -1.4014  0.7673  1.5756
 3942SOL     OW13067   3.339   4.656   7.984  0.1005  0.5201  0.5796
 3942SOL    HW113068   3.305   4.665   8.072  1.1395  1.4247  0.9077
 3942SOL    HW213069   3.273   4.697   7.928 -1.2452 -1.3435  0.7696
 3943SOL     OW13070   7.503   7.907   7.172 -0.4539  0.2855 -0.1627
 3943SOL    HW113071   7.422   7.875   7.213 -0.3485 -0.2776 -0.3920
 3943SOL    HW213072   7.481   7.915   7.079 -0.7673  1.7974  0.0229
 3944SOL     OW13073   8.234   3.890   4.854  0.3193  0.7343  0.0220
 3944SOL    HW113074   8.200   3.938   4.778 -1.5795 -1.8729 -0.8528
 3944SOL    HW213075   8.306   3.838   4.818 -1.0945 -1.1098 -0.2112
 3945SOL     OW13076   2.792   6.176   4.069 -0.2302  0.8220 -0.1482
 3945SOL    HW113077   2.848   6.221   4.132 -0.8922  1.3444  0.0757
 3945SOL    HW213078   2.739   6.245   4.029 -0.6028  0.3579 -0.4752
 3946SOL     OW13079   4.225   4.778   2.067  0.0759  0.5951 -0.3664
 3946SOL    HW113080   4.257   4.688   2.057 -1.0908  0.0614  0.5017
 3946SOL    HW213081   4.265   4.826   1.995  2.0384 -0.2431  0.1346
 3947SOL     OW13082   3.168   5.231   2.091 -0.4490 -0.0251  0.0303
 3947SOL    HW113083   3.251   5.279   2.093 -0.1956 -0.5134  1.8067
 3947SOL    HW213084   3.105   5.295   2.059  0.3233  0.8184  0.1484
 3948SOL     OW13085   7.588   1.113   5.314 -0.3827  0.6511  0.6850
 3948SOL    HW113086   7.674   1.132   5.352 -0.6291  1.1275  1.0076
 3948SOL    HW213087   7.561   1.032   5.357  0.0182  0.3590  0.3925
 3949SOL     OW13088   5.250   3.102   6.792  0.2185  0.4306  0.3993
 3949SOL    HW113089   5.246   3.011   6.823 -0.4211  0.9283  1.7995
 3949SOL    HW213090   5.179   3.108   6.728  1.4044 -0.5395 -1.0308
 3950SOL     OW13091   5.088   1.734   1.408 -0.1117  0.5978  0.5374
 3950SOL    HW113092   5.094   1.691   1.323  0.4519 -0.2646  1.0100
 3950SOL    HW213093   5.013   1.693   1.451  0.7623 -0.3144  1.2082
 3951SOL     OW13094   2.597   5.130   4.343  0.3943  0.6785  0.3302
 3951SOL    HW113095   2.546   5.084   4.276  0.3405  1.2962 -0.0529
 3951SOL    HW213096   2.568   5.090   4.425 -0.7937  1.0873  0.1231
 3952SOL     OW13097   4.738   2.350   1.269  0.3099 -0.2781 -0.4176
 3952SOL    HW113098   4.818   2.300   1.287  0.0546 -0.4034  0.3750
 3952SOL    HW213099   4.749   2.432   1.317 -0.5566 -0.7862  0.6755
 3953SOL     OW13100   2.922   4.937   1.876  0.6040 -0.4090 -0.1826
 3953SOL    HW113101   2.961   4.969   1.958  1.6108 -0.8737 -0.4642
 3953SOL    HW213102   2.880   4.855   1.900 -1.0465  0.5736  0.3211
 3954SOL     OW13103   2.700   3.782   7.923 -0.1460 -0.2203 -0.3765
 3954SOL    HW113104   2.760   3.722   7.968  0.1285 -1.4039 -2.2501
 3954SOL    HW213105   2.681   3.851   7.987  0.2265 -1.8503  1.5047
 3955SOL     OW13106   7.267   3.360   6.840 -0.1003  0.1479 -0.4562
 3955SOL    HW113107   7.221   3.347   6.923  0.8157 -1.2479 -0.1629
 3955SOL    HW213108   7.356   3.383   6.865  0.3387 -0.8727 -1.0375
 3956SOL     OW13109   6.555   5.737   7.578 -0.0862 -0.1501 -0.5335
 3956SOL    HW113110   6.550   5.691   7.494  0.3900  0.6086 -0.9837
 3956SOL    HW213111   6.543   5.829   7.555  0.3930  0.0918  0.1914
 3957SOL     OW13112   2.154   8.013   2.521 -0.0745 -0.0169 -0.3659
 3957SOL    HW113113   2.071   8.017   2.474 -0.1171 -0.5354 -0.3414
 3957SOL    HW213114   2.185   7.924   2.506 -0.4180 -0.3967  1.1325
 3958SOL     OW13115   6.298   7.184   0.420  0.3995  0.4425 -0.0989
 3958SOL    HW113116   6.359   7.238   0.471  0.8722  0.7348 -0.9602
 3958SOL    HW213117   6.346   7.103   0.403  0.9546  1.0954 -1.6902
 3959SOL     OW13118   7.460   0.855   6.069 -0.3850  0.0553  0.2326
 3959SOL    HW113119   7.496   0.823   6.152  0.3507  0.6684  0.1492
 3959SOL    HW213120   7.385   0.797   6.052  0.5824 -1.2669  0.3771
 3960SOL     OW13121   6.270   1.069   7.786  0.4833  0.9073  0.0268
 3960SOL    HW113122   6.242   1.093   7.874  1.3669  0.9971  0.2924
 3960SOL    HW213123   6.352   1.021   7.799  0.2071  0.2390 -0.6947
 3961SOL     OW13124   2.198   6.356   2.938  0.1000 -0.2223 -0.2610
 3961SOL    HW113125   2.174   6.324   2.851 -1.1556 -0.7324  0.2614
 3961SOL    HW213126   2.127   6.416   2.962 -0.1699 -0.9753  0.8846
 3962SOL     OW13127   2.436   5.976   3.097  0.1501  0.6138  0.1857
 3962SOL    HW113128   2.409   5.884   3.106 -1.8544  1.0901 -0.6669
 3962SOL    HW213129   2.361   6.026   3.130  1.5333  1.9476  1.3565
 3963SOL     OW13130   0.765   0.676   7.742 -0.2962 -0.6695  0.1812
 3963SOL    HW113131   0.848   0.715   7.768 -0.0990 -0.5259 -0.6456
 3963SOL    HW213132   0.777   0.653   7.650 -0.6889 -1.9274  0.4363
 3964SOL     OW13133   6.059   7.516   4.225  0.1915 -0.0475  0.7176
 3964SOL    HW113134   6.079   7.521   4.318  0.8088 -0.4360  0.6034
 3964SOL    HW213135   6.121   7.575   4.183  1.1609 -1.3134  0.3596
 3965SOL     OW13136   2.871   7.661   0.483 -0.7612 -0.2373  0.3081
 3965SOL    HW113137   2.888   7.622   0.398  0.8470  0.5949  0.2116
 3965SOL    HW213138   2.958   7.669   0.524 -1.3558  0.5680  1.4755
 3966SOL     OW13139   2.851   3.878   3.012 -0.0076 -0.3070 -0.5747
 3966SOL    HW113140   2.850   3.805   3.074 -1.0436  0.3496  0.2037
 3966SOL    HW213141   2.902   3.946   3.055 -0.2023 -0.0736 -0.7109
 3967SOL     OW13142   5.072   0.732   2.541  0.1482  0.4921  0.0369
 3967SOL    HW113143   5.075   0.637   2.529 -1.3196  0.2741  1.1616
 3967SOL    HW213144   5.093   0.768   2.455 -1.6547 -0.8928 -1.0196
 3968SOL     OW13145   6.033   0.005   6.968  0.6498  0.0667 -0.1988
 3968SOL    HW113146   5.990  -0.005   6.883  0.2364 -0.2297  0.0494
 3968SOL    HW213147   6.034  -0.083   7.005 -1.3577  0.6091  1.1781
 3969SOL     OW13148   7.797   0.584   2.123  0.6554  0.4837 -0.4560
 3969SOL    HW113149   7.782   0.498   2.083 -0.6670  0.1970  0.6248
 3969SOL    HW213150   7.874   0.571   2.179 -0.0018 -0.1925  0.2894
 3970SOL     OW13151   4.526   5.788   5.358  0.5386 -0.3420 -1.0770
 3970SOL    HW113152   4.597   5.850   5.341 -0.3903  1.7997  2.4906
 3970SOL    HW213153   4.461   5.808   5.291  0.7592  1.7812 -0.6859
 3971SOL     OW13154   4.565   4.324   3.971 -0.4206 -0.0511  0.2341
 3971SOL    HW113155   4.532   4.257   3.912 -0.7423  2.2570 -2.3453
 3971SOL    HW213156   4.491   4.345   4.028 -1.2519  0.1786 -0.9178
 3972SOL     OW13157   6.476   1.968   5.567  0.0747 -0.0386  0.4717
 3972SOL    HW113158   6.383   1.985   5.580  0.5975  2.5729  1.0938
 3972SOL    HW213159   6.488   1.967   5.472 -0.1554  2.3200  0.3951
 3973SOL     OW13160   3.498   0.854   8.007 -0.3428  0.5584  0.2235
 3973SOL    HW113161   3.489   0.795   7.933 -0.5806 -1.3245  1.7008
 3973SOL    HW213162   3.508   0.941   7.968  0.0169 -0.4467 -1.9912
 3974SOL     OW13163   8.266   4.313   5.829 -0.2223 -0.0521 -0.0216
 3974SOL    HW113164   8.206   4.277   5.764  0.9625 -0.8129 -0.7032
 3974SOL    HW213165   8.247   4.407   5.829 -1.9909 -0.3955  0.3830
 3975SOL     OW13166   5.481   1.914   2.293 -0.0590  0.3938  0.0587
 3975SOL    HW113167   5.522   1.926   2.379  2.8271  0.4166 -1.2472
 3975SOL    HW213168   5.457   2.002   2.265  1.0010  0.6394 -0.0915
 3976SOL     OW13169   7.828   2.716   6.750  0.0611  0.3229  0.1783
 3976SOL    HW113170   7.748   2.663   6.743  0.8639 -0.9681  0.4761
 3976SOL    HW213171   7.852   2.712   6.842  0.6318  0.4456  0.0410
 3977SOL     OW13172   3.719   2.215   2.865  0.1982  0.3864  0.1293
 3977SOL    HW113173   3.722   2.307   2.890  0.2333  0.2125  0.7903
 3977SOL    HW213174   3.797   2.176   2.906 -0.7960 -0.3030  1.3926
 3978SOL     OW13175   1.149   6.932   0.422 -0.0257  0.1223  0.5971
 3978SOL    HW113176   1.205   6.966   0.492  1.0308  0.7431 -0.5430
 3978SOL    HW213177   1.099   7.008   0.392 -0.6836 -0.2027  0.8524
 3979SOL     OW13178   5.918   5.371   6.206 -0.1821  0.3669 -0.2481
 3979SOL    HW113179   5.993   5.338   6.255 -1.0868 -1.4104  0.0008
 3979SOL    HW213180   5.845   5.368   6.269 -0.7300  0.8611 -0.8512
 3980SOL     OW13181   1.048   2.310   5.986  0.0863 -0.4483  0.4456
 3980SOL    HW113182   1.096   2.303   5.903 -0.6230 -0.2020  0.0088
 3980SOL    HW213183   0.987   2.236   5.984 -0.3640 -0.0761  0.4654
 3981SOL     OW13184   4.904   7.678   4.112  0.3319 -0.0417 -0.3584
 3981SOL    HW113185   4.833   7.622   4.078  0.9109 -0.3355 -1.1185
 3981SOL    HW213186   4.969   7.615   4.144 -0.7551  0.2412  2.5045
 3982SOL     OW13187   1.882   6.668   0.890 -0.2958 -0.4652  0.2144
 3982SOL    HW113188   1.877   6.594   0.951 -0.7358 -1.1646 -0.6555
 3982SOL    HW213189   1.972   6.666   0.858  0.1498  0.3570  1.3902
 3983SOL     OW13190   2.711   4.760   2.382  0.4037  0.1451  0.0449
 3983SOL    HW113191   2.645   4.704   2.340 -0.3028  0.9698  0.0535
 3983SOL    HW213192   2.671   4.787   2.464  0.2824  1.5964 -0.4772
 3984SOL     OW13193   6.857   1.783   7.332 -0.5532  0.0513 -0.0495
 3984SOL    HW113194   6.841   1.796   7.239  1.0169 -0.1391 -0.3537
 3984SOL    HW213195   6.926   1.845   7.354 -0.0630 -0.7488  0.7113
 3985SOL     OW13196   6.937   1.663   2.712 -0.0760  0.6019  0.4004
 3985SOL    HW113197   7.016   1.706   2.679 -0.5708  2.3427  1.4177
 3985SOL    HW213198   6.935   1.686   2.805 -0.8783 -0.8397  0.7485
 3986SOL     OW13199   0.304   0.242   6.652 -0.0096  0.0948 -0.3241
 3986SOL    HW113200   0.367   0.226   6.722  0.1052  0.7136 -0.2889
 3986SOL    HW213201   0.307   0.162   6.598  0.8185  0.1390 -0.3390
 3987SOL     OW13202   4.438   1.264   0.081  0.2821 -0.3628  0.2140
 3987SOL    HW113203   4.424   1.200   0.011 -2.2883  1.2516 -0.8257
 3987SOL    HW213204   4.530   1.289   0.071  0.6062 -1.9250 -1.0575
 3988SOL     OW13205   5.265   0.710   6.512 -0.3839 -0.3537 -0.1851
 3988SOL    HW113206   5.342   0.691   6.565  0.7509  0.0322 -1.6829
 3988SOL    HW213207   5.287   0.789   6.464 -1.5701 -0.4575 -0.9283
 3989SOL     OW13208   6.770   7.559   4.464  0.4087 -0.8538  0.2329
 3989SOL    HW113209   6.852   7.606   4.480 -0.4607  0.6298  0.4531
 3989SOL    HW213210   6.719   7.570   4.544 -2.0618  2.6424 -1.6673
 3990SOL     OW13211   0.732   5.059   6.160 -0.5272  0.2387 -0.4698
 3990SOL    HW113212   0.709   5.051   6.252 -1.9172  0.2389 -0.8030
 3990SOL    HW213213   0.827   5.046   6.157 -0.4202  0.6580  0.9996
 3991SOL     OW13214   0.542   3.708   3.484  0.3983  0.2309 -0.3550
 3991SOL    HW113215   0.486   3.730   3.409  1.7028  1.7081 -0.9131
 3991SOL    HW213216   0.564   3.793   3.523  0.5650 -0.4701  1.0937
 3992SOL     OW13217   4.987   4.771   7.601  0.1586  0.2741 -0.0287
 3992SOL    HW113218   5.027   4.819   7.673  0.4146  0.8973 -0.5752
 3992SOL    HW213219   5.027   4.809   7.522 -2.0990  1.4996 -0.6314
 3993SOL     OW13220   0.276   0.277   0.762  0.4951 -0.8654  0.1326
 3993SOL    HW113221   0.316   0.320   0.686 -0.3318  0.6069  0.5195
 3993SOL    HW213222   0.338   0.208   0.785  1.6500 -0.1482 -0.7512
 3994SOL     OW13223   5.872   6.479   0.197  0.6958  0.1860 -0.6484
 3994SOL    HW113224   5.896   6.550   0.257  1.3174  0.2490 -0.9671
 3994SOL    HW213225   5.834   6.524   0.121  1.0072  0.1752 -0.8118
 3995SOL     OW13226   3.248   3.297   6.605  0.0295 -0.0116 -0.0415
 3995SOL    HW113227   3.178   3.257   6.554 -0.8954 -0.0899  1.2470
 3995SOL    HW213228   3.318   3.314   6.542 -0.9347 -0.4446 -1.2418
 3996SOL     OW13229   5.745   0.301   5.431 -0.7690  0.1084  0.5731
 3996SOL    HW113230   5.796   0.380   5.413 -1.0519  0.1925  0.1225
 3996SOL    HW213231   5.728   0.263   5.344 -1.0855 -0.1579  0.7488
 3997SOL     OW13232   0.053   6.850   0.799 -0.3593 -0.2137 -0.7753
 3997SOL    HW113233   0.084   6.939   0.780 -0.8000 -0.1143 -1.0370
 3997SOL    HW213234   0.116   6.793   0.755  0.4578 -0.0546  0.1750
 3998SOL     OW13235   6.917   0.938   1.962  0.3062  0.5741 -0.1551
 3998SOL    HW113236   6.944   0.859   2.009 -1.0808  0.2925  0.1756
 3998SOL    HW213237   7.000   0.981   1.939  1.0308 -0.0766  1.1785
 3999SOL     OW13238   6.798   6.766   6.872  0.2130 -0.1454 -0.4578
 3999SOL    HW113239   6.711   6.750   6.910  0.4225 -0.9342 -0.3101
 3999SOL    HW213240   6.844   6.817   6.939  0.5532 -1.4625  0.3342
 4000SOL     OW13241   2.200   1.395   1.750 -0.1450 -0.0004 -0.1039
 4000SOL    HW113242   2.118   1.367   1.710 -0.7003 -0.3355  1.2513
 4000SOL    HW213243   2.176   1.467   1.808  0.4323 -0.4052  0.6533
 4001SOL     OW13244   4.264   6.303   7.753  0.1417 -0.4476 -0.1504
 4001SOL    HW113245   4.250   6.221   7.704  0.5262 -0.7419  0.2279
 4001SOL    HW213246   4.202   6.297   7.826 -0.3345 -0.0732 -0.5231
 4002SOL     OW13247   2.044   6.398   4.988 -0.1287  0.0633  0.1732
 4002SOL    HW113248   2.130   6.439   4.979 -0.3706  0.4915 -0.1678
 4002SOL    HW213249   2.041   6.332   4.918 -0.3386  0.5009 -0.2294
 4003SOL     OW13250   0.130   1.704   2.526  0.0113 -0.0005 -0.5668
 4003SOL    HW113251   0.209   1.754   2.506 -0.2158  1.0942  1.1541
 4003SOL    HW213252   0.131   1.631   2.464  2.3952 -0.0290 -0.5292
 4004SOL     OW13253   1.777   3.063   3.760  0.0611 -0.1793  0.0616
 4004SOL    HW113254   1.732   3.130   3.812 -1.3780  0.1437 -1.5661
 4004SOL    HW213255   1.830   3.112   3.698  1.1114 -0.5693  0.6426
 4005SOL     OW13256   7.815   7.092   7.876  0.0744  0.1460  0.2619
 4005SOL    HW113257   7.793   7.060   7.964  1.0266 -0.0940  0.4195
 4005SOL    HW213258   7.760   7.040   7.817 -0.9872  0.6982  0.7414
 4006SOL     OW13259   2.347   5.646   2.252 -0.3283  0.2715  0.1359
 4006SOL    HW113260   2.289   5.692   2.191 -0.2633 -0.3405 -0.3991
 4006SOL    HW213261   2.341   5.695   2.334  1.2714  2.3963 -0.9936
 4007SOL     OW13262   1.188   1.077   7.420  0.0901 -0.3200  0.1182
 4007SOL    HW113263   1.226   1.103   7.504  3.0198 -0.3333 -1.1440
 4007SOL    HW213264   1.097   1.105   7.425  0.7312  1.4724  2.5221
 4008SOL     OW13265   6.452   3.109   7.064 -0.0139 -0.2707  0.3408
 4008SOL    HW113266   6.534   3.141   7.102 -0.3209 -0.8642  1.5161
 4008SOL    HW213267   6.399   3.188   7.051 -0.3479 -0.1570  2.2157
 4009SOL     OW13268   5.780   3.197   8.244  0.6193 -0.1629  0.9691
 4009SOL    HW113269   5.805   3.274   8.296 -0.9174 -0.2341  1.8305
 4009SOL    HW213270   5.695   3.219   8.207  0.8840 -0.8373 -0.0578
 4010SOL     OW13271   6.010   4.178   3.326  0.0696 -0.1290 -0.3253
 4010SOL    HW113272   5.961   4.235   3.385  0.3046  0.6100 -0.8407
 4010SOL    HW213273   6.005   4.221   3.241  1.3929 -0.1666 -0.4422
 4011SOL     OW13274   4.725   4.780   2.785 -0.3902  0.3568 -0.1536
 4011SOL    HW113275   4.802   4.806   2.736 -0.3723 -0.8388 -0.7477
 4011SOL    HW213276   4.657   4.765   2.719 -0.8689  0.4772  0.2987
 4012SOL     OW13277   4.944   0.571   6.756 -0.7756  0.2676 -0.6263
 4012SOL    HW113278   4.966   0.634   6.688  1.1723 -0.7601 -0.9819
 4012SOL    HW213279   4.848   0.568   6.757 -0.8324  1.4302 -2.2474
 4013SOL     OW13280   1.782   4.376   3.193  0.0454  0.0008 -0.5829
 4013SOL    HW113281   1.787   4.288   3.231 -0.9386  0.2246  0.0901
 4013SOL    HW213282   1.749   4.361   3.104 -2.8042 -0.1222  0.4328
 4014SOL     OW13283   2.757   0.756   1.171 -0.6960  0.0162 -0.0881
 4014SOL    HW113284   2.796   0.705   1.241  1.6543  0.7864 -0.7990
 4014SOL    HW213285   2.766   0.700   1.093  0.9604  1.0586 -0.6673
 4015SOL     OW13286   6.431   2.116   4.041 -0.2452  0.7990  0.4970
 4015SOL    HW113287   6.371   2.092   3.970  2.1213 -0.8182 -1.0243
 4015SOL    HW213288   6.382   2.099   4.121 -1.3120 -1.9398 -0.6887
 4016SOL     OW13289   2.762   5.150   8.118  0.0583  0.2070 -0.4146
 4016SOL    HW113290   2.837   5.097   8.143  0.1862  0.1862 -0.8384
 4016SOL    HW213291   2.691   5.086   8.103 -0.1068  0.2451  0.2176
 4017SOL     OW13292   1.715   1.748   0.212 -0.4888 -0.5614  0.3777
 4017SOL    HW113293   1.690   1.709   0.296 -0.6604 -0.3974  0.4016
 4017SOL    HW213294   1.793   1.798   0.232 -0.6791 -0.3106  0.4921
 4018SOL     OW13295   4.312   2.954   7.039 -0.5479 -0.0475  0.0082
 4018SOL    HW113296   4.330   3.006   6.961  0.1578  0.2001  0.3366
 4018SOL    HW213297   4.299   2.865   7.005 -1.5336  0.2922 -0.5258
 4019SOL     OW13298   2.578   1.728   2.181 -0.3668 -0.0463  0.0894
 4019SOL    HW113299   2.612   1.814   2.206  1.8072 -0.4821 -1.2355
 4019SOL    HW213300   2.655   1.678   2.156 -1.6014 -2.4352  0.9144
 4020SOL     OW13301   0.898   3.446   5.760 -0.8125  0.5193  0.9601
 4020SOL    HW113302   0.979   3.407   5.727 -1.9945 -0.7563 -0.5660
 4020SOL    HW213303   0.854   3.374   5.805 -1.6331  0.8764  0.7339
 4021SOL     OW13304   1.211   7.100   1.678  0.0268 -0.2539 -0.0182
 4021SOL    HW113305   1.150   7.153   1.628 -0.6781  0.1472  1.2364
 4021SOL    HW213306   1.293   7.105   1.629 -0.9435 -0.8475 -1.7407
 4022SOL     OW13307   5.904   2.703   3.018 -0.1710  0.0712  0.2030
 4022SOL    HW113308   5.831   2.665   2.970 -0.2084 -0.2018  0.4822
 4022SOL    HW213309   5.966   2.730   2.949 -0.8489  0.9571 -0.0629
 4023SOL     OW13310   2.435   5.996   4.528 -0.2377 -0.0432  0.1764
 4023SOL    HW113311   2.421   6.068   4.589 -2.9425  0.3062 -0.8239
 4023SOL    HW213312   2.464   6.038   4.447 -1.2720 -0.1311 -0.2379
 4024SOL     OW13313   6.310   3.703   6.997  0.4585  0.0263 -0.1678
 4024SOL    HW113314   6.278   3.745   6.917  1.7970  3.1215  0.8339
 4024SOL    HW213315   6.256   3.741   7.067  0.8613 -0.8975  0.6597
 4025SOL     OW13316   7.060   5.547   7.138  0.3370  0.6688  0.0330
 4025SOL    HW113317   7.023   5.618   7.190  0.8819  0.7897  0.2585
 4025SOL    HW213318   7.084   5.589   7.055 -2.2150  0.1076 -1.0380
 4026SOL     OW13319   1.819   2.157   2.849 -1.0060 -0.0915  0.4567
 4026SOL    HW113320   1.782   2.197   2.771 -0.7772  0.9225  0.8549
 4026SOL    HW213321   1.758   2.087   2.872 -1.4482  0.0704 -0.2195
 4027SOL     OW13322   3.543   5.597   5.425  0.2186  0.1321  0.4388
 4027SOL    HW113323   3.595   5.518   5.442  0.2244  0.1376  0.4450
 4027SOL    HW213324   3.518   5.590   5.333  2.3728  1.4027 -0.2729
 4028SOL     OW13325   4.348   5.424   7.578 -0.1715 -0.2511  0.3185
 4028SOL    HW113326   4.283   5.407   7.647  1.5350 -0.3689  1.9298
 4028SOL    HW213327   4.333   5.515   7.553 -0.3020  0.0393  1.4049
 4029SOL     OW13328   0.753   7.127   7.568  0.0297 -0.1918  0.0299
 4029SOL    HW113329   0.763   7.218   7.597  1.5091 -0.2731 -0.2163
 4029SOL    HW213330   0.842   7.094   7.561 -0.4216 -1.0733 -1.7863
 4030SOL     OW13331   6.372   1.155   1.890  0.9830 -0.4884  0.7431
 4030SOL    HW113332   6.337   1.101   1.819  0.1953 -0.0073  0.7650
 4030SOL    HW213333   6.442   1.101   1.928  0.4339 -1.3562  0.5438
 4031SOL     OW13334   2.839   0.927   5.551  0.2620 -0.1278 -0.1951
 4031SOL    HW113335   2.909   0.872   5.585  0.9129 -1.0711 -2.8931
 4031SOL    HW213336   2.858   1.014   5.585  2.8679 -0.3338 -0.9863
 4032SOL     OW13337   2.639   4.586   5.324 -0.7372 -0.5318 -0.6908
 4032SOL    HW113338   2.627   4.653   5.257  1.3283 -0.1647 -0.7371
 4032SOL    HW213339   2.681   4.513   5.278  1.0970 -0.1136  0.2332
 4033SOL     OW13340   7.033   4.792   2.202  0.3060  0.5136 -0.4256
 4033SOL    HW113341   7.020   4.858   2.134 -0.9797  0.3524 -0.3414
 4033SOL    HW213342   6.945   4.764   2.226  0.8445 -3.7372 -2.8881
 4034SOL     OW13343   4.702   7.918   7.038  0.0673 -0.1386 -0.5704
 4034SOL    HW113344   4.668   7.936   6.950 -0.2340  1.6889 -0.0994
 4034SOL    HW213345   4.793   7.894   7.024  0.1123  0.4603 -1.3579
 4035SOL     OW13346   8.264   1.300   7.591 -0.0344 -0.1075 -0.1170
 4035SOL    HW113347   8.269   1.393   7.615  0.3777  0.0324 -0.7318
 4035SOL    HW213348   8.224   1.258   7.667 -0.3282  0.5920  0.1212
 4036SOL     OW13349   7.450   4.631   4.605 -0.2764  0.1107 -0.1217
 4036SOL    HW113350   7.436   4.619   4.511 -1.4506  0.3076  0.0198
 4036SOL    HW213351   7.458   4.726   4.616  1.8181 -0.0106 -0.2650
 4037SOL     OW13352   6.710   0.786   6.471  0.0548 -0.0945 -0.1647
 4037SOL    HW113353   6.643   0.833   6.521 -1.0739 -0.6453 -1.1369
 4037SOL    HW213354   6.708   0.697   6.506  0.9910  0.1342  0.4931
 4038SOL     OW13355   5.616   5.735   6.722 -0.1658  0.5777  0.1413
 4038SOL    HW113356   5.608   5.818   6.768 -1.1460  1.5662 -1.7765
 4038SOL    HW213357   5.692   5.746   6.664 -1.4609  0.8552 -1.5364
 4039SOL     OW13358   1.859   0.590   7.561 -0.0079  0.3737  0.3085
 4039SOL    HW113359   1.800   0.630   7.497 -1.4580 -2.2987 -0.0902
 4039SOL    HW213360   1.880   0.661   7.622 -0.8346  2.2498 -1.5140
 4040SOL     OW13361   0.446   4.149   2.890 -0.3090  0.2530 -0.5600
 4040SOL    HW113362   0.465   4.117   2.802  1.6874 -1.2115  0.3538
 4040SOL    HW213363   0.526   4.196   2.916 -0.8907  0.7068  0.4393
 4041SOL     OW13364   6.710   4.647   1.348 -0.1988 -0.2215  0.1763
 4041SOL    HW113365   6.639   4.586   1.368  1.2344 -1.8632  0.3254
 4041SOL    HW213366   6.674   4.704   1.280 -1.7743 -0.8054  0.4980
 4042SOL     OW13367   5.457   6.986   3.379 -0.2263  0.8910  0.5073
 4042SOL    HW113368   5.494   6.946   3.301  0.0555 -0.6189  1.3878
 4042SOL    HW213369   5.515   7.060   3.399 -1.5608  2.6527 -1.9517
 4043SOL     OW13370   4.897   7.798   3.672  0.2998  0.1492  0.4872
 4043SOL    HW113371   4.901   7.717   3.621 -0.6741  0.6505 -0.4048
 4043SOL    HW213372   4.987   7.812   3.702  0.4389 -1.3724  0.8292
 4044SOL     OW13373   7.066   8.226   4.952 -0.0655  0.6077 -0.2449
 4044SOL    HW113374   7.028   8.265   4.873  0.5645 -0.2751 -0.9900
 4044SOL    HW213375   7.120   8.154   4.920  0.0555  0.1263  1.0070
 4045SOL     OW13376   5.674   5.894   2.750 -0.1250 -0.7790 -1.0881
 4045SOL    HW113377   5.645   5.805   2.772 -1.4339  0.0081  0.4680
 4045SOL    HW213378   5.644   5.907   2.660 -0.8269 -1.5503 -0.9804
 4046SOL     OW13379   5.298   3.962   6.708 -0.2222  0.1581  0.6369
 4046SOL    HW113380   5.376   3.984   6.760  0.3605 -1.2959  0.4264
 4046SOL    HW213381   5.229   4.019   6.742  0.4340  0.0333  2.2215
 4047SOL     OW13382   4.049   2.303   5.945  0.1026 -0.0148  0.5013
 4047SOL    HW113383   4.065   2.342   6.031 -1.2732 -0.3382  0.9255
 4047SOL    HW213384   4.102   2.355   5.885 -2.4441  3.1947  0.9058
 4048SOL     OW13385   5.819   0.970   7.225  0.5303 -0.0905  0.1621
 4048SOL    HW113386   5.767   0.949   7.303  0.9309 -1.8085 -0.0212
 4048SOL    HW213387   5.754   0.995   7.159  0.0406 -0.7583  0.3844
 4049SOL     OW13388   2.483   4.498   2.611  0.5862 -0.0278  0.0680
 4049SOL    HW113389   2.431   4.564   2.656 -1.5008 -1.2480 -0.5031
 4049SOL    HW213390   2.555   4.480   2.672 -1.6521 -0.9333  2.5547
 4050SOL     OW13391   6.082   7.042   5.718 -0.3309  0.0957  0.0425
 4050SOL    HW113392   6.038   6.962   5.690 -2.4774  0.3404  2.5871
 4050SOL    HW213393   6.176   7.023   5.706 -0.8839 -2.1296 -1.0511
 4051SOL     OW13394   2.842   3.336   4.448 -0.8104  0.3113  0.0647
 4051SOL    HW113395   2.845   3.250   4.407  0.4655 -0.0844  0.9250
 4051SOL    HW213396   2.863   3.319   4.540 -1.4347  1.4338  0.4263
 4052SOL     OW13397   4.441   2.283   5.161 -0.1378  0.7894 -0.2642
 4052SOL    HW113398   4.463   2.373   5.184  1.8500  0.7995 -2.0735
 4052SOL    HW213399   4.482   2.269   5.076 -0.6125 -1.7765 -0.1193
 4053SOL     OW13400   0.272   2.878   5.225 -0.4037 -0.2066 -0.3387
 4053SOL    HW113401   0.362   2.912   5.221 -1.0695  1.6156 -0.4163
 4053SOL    HW213402   0.260   2.854   5.317  0.3455 -0.9679 -0.4371
 4054SOL     OW13403   5.253   1.853   3.382  0.0380  0.1794 -0.0410
 4054SOL    HW113404   5.275   1.946   3.388  1.4641 -0.1367 -0.2329
 4054SOL    HW213405   5.259   1.832   3.289  0.8749 -0.3740  0.1330
 4055SOL     OW13406   1.787   2.961   5.037 -0.8193 -0.2648 -0.4691
 4055SOL    HW113407   1.873   3.003   5.025 -1.6929  1.0917 -2.2785
 4055SOL    HW213408   1.728   3.034   5.057 -1.7123 -1.0854 -0.1434
 4056SOL     OW13409   1.992   2.157   8.250 -0.4524  0.8738  0.1427
 4056SOL    HW113410   1.925   2.176   8.184  0.6307  1.5249 -0.7767
 4056SOL    HW213411   2.052   2.231   8.246  0.8919 -0.1832  0.2373
 4057SOL     OW13412   1.825   5.602   0.041 -0.7730 -0.1553  0.1573
 4057SOL    HW113413   1.864   5.659  -0.025 -1.8330 -0.2584 -0.5731
 4057SOL    HW213414   1.777   5.661   0.098 -0.5697 -0.1553  0.3277
 4058SOL     OW13415   5.138   2.814   0.867 -0.2387  0.2581 -0.2687
 4058SOL    HW113416   5.216   2.794   0.814 -0.9036 -1.2526 -0.6974
 4058SOL    HW213417   5.113   2.902   0.839  0.3089  0.0799 -1.3866
 4059SOL     OW13418   2.300   8.249   5.111 -0.6647  0.1563  0.3603
 4059SOL    HW113419   2.390   8.227   5.086 -1.0403 -1.2114  0.1988
 4059SOL    HW213420   2.264   8.291   5.033 -0.2555  0.4875  0.3417
 4060SOL     OW13421   7.128   4.783   0.897  0.2430  0.1434  0.2143
 4060SOL    HW113422   7.141   4.817   0.986  2.9092 -1.3547  0.4165
 4060SOL    HW213423   7.175   4.845   0.840 -0.3924  0.3888 -0.0523
 4061SOL     OW13424   2.791   6.204   0.804 -0.3480  0.2815 -0.4679
 4061SOL    HW113425   2.743   6.125   0.778 -0.1981  0.5804 -1.6987
 4061SOL    HW213426   2.819   6.243   0.721  2.1446  0.0441  0.2088
 4062SOL     OW13427   2.526   6.065   6.086 -0.4876  0.5361 -0.6204
 4062SOL    HW113428   2.506   6.123   6.012 -1.2493  1.3381  0.1988
 4062SOL    HW213429   2.620   6.075   6.100 -0.1029 -0.5812 -2.2775
 4063SOL     OW13430   5.928   8.089   7.662  0.2827  0.3182  0.3471
 4063SOL    HW113431   5.847   8.067   7.615  0.7378 -0.8693  0.0909
 4063SOL    HW213432   5.981   8.137   7.599  0.6002 -0.6652 -0.1563
 4064SOL     OW13433   7.025   5.140   5.208  0.4275 -0.3452 -0.1540
 4064SOL    HW113434   6.944   5.178   5.174 -0.0723 -1.1779  0.0899
 4064SOL    HW213435   6.997   5.088   5.284  1.1834 -0.6742 -0.0969
 4065SOL     OW13436   7.281   0.022   0.120 -0.4268 -0.0017 -0.5478
 4065SOL    HW113437   7.328   0.103   0.139 -0.1869  0.0804 -1.4384
 4065SOL    HW213438   7.327  -0.046   0.170 -1.9177  0.7271  1.8885
 4066SOL     OW13439   6.219   2.216   3.083  0.5968  0.0418  0.0149
 4066SOL    HW113440   6.300   2.267   3.082  0.4535  0.2699 -0.0611
 4066SOL    HW213441   6.176   2.241   3.164 -0.5342  1.7338 -1.0607
 4067SOL     OW13442   1.515   4.763   5.973 -0.0535 -0.0682  0.4200
 4067SOL    HW113443   1.422   4.763   5.951  0.0349  0.5762  0.0119
 4067SOL    HW213444   1.546   4.850   5.947  0.3118  0.3073  2.0497
 4068SOL     OW13445   7.657   3.705   1.463 -0.1544  0.2074 -0.0073
 4068SOL    HW113446   7.629   3.787   1.504  0.7477  0.2148  0.6217
 4068SOL    HW213447   7.749   3.697   1.487 -0.0915 -0.7146 -0.5299
 4069SOL     OW13448   7.422   0.855   2.819  0.8407  0.1317  0.0749
 4069SOL    HW113449   7.432   0.760   2.812 -0.9861 -0.0697 -0.1477
 4069SOL    HW213450   7.332   0.871   2.791  0.8458  1.8385  1.0120
 4070SOL     OW13451   4.005   1.177   2.178 -0.3834 -0.6302  0.5629
 4070SOL    HW113452   3.917   1.180   2.217 -0.9268 -1.1480 -0.5813
 4070SOL    HW213453   4.016   1.085   2.153  0.8314 -0.7382  1.4622
 4071SOL     OW13454   6.303   3.828   7.466  0.4465  0.5985  0.1912
 4071SOL    HW113455   6.252   3.766   7.414  1.6205  1.0939 -1.6055
 4071SOL    HW213456   6.252   3.908   7.466 -0.4886  0.0197  1.4833
 4072SOL     OW13457   7.348   6.577   7.930  0.2190  0.0852  0.3085
 4072SOL    HW113458   7.298   6.560   8.009  2.0210  2.1140  1.9490
 4072SOL    HW213459   7.421   6.633   7.959 -0.0135  2.2892 -3.0358
 4073SOL     OW13460   7.723   4.463   2.633  1.1519 -0.4310 -0.4582
 4073SOL    HW113461   7.721   4.428   2.722  0.4693 -2.5271 -1.2797
 4073SOL    HW213462   7.633   4.491   2.616  1.3775  0.3817 -0.3380
 4074SOL     OW13463   0.754   5.923   3.040 -0.2169  0.5351  0.0506
 4074SOL    HW113464   0.720   6.012   3.034 -0.9813  0.3883  1.9184
 4074SOL    HW213465   0.716   5.878   2.965 -0.5624  1.5396 -0.3866
 4075SOL     OW13466   4.024   5.301   7.127 -0.5118  0.0825 -0.5197
 4075SOL    HW113467   4.081   5.225   7.113 -1.6740 -0.5800 -1.8160
 4075SOL    HW213468   4.031   5.352   7.045  2.1391  2.6796  1.2291
 4076SOL     OW13469   4.262   7.935   2.651 -0.6353 -0.3322  0.1578
 4076SOL    HW113470   4.294   7.866   2.593 -0.6042  0.0094 -0.2407
 4076SOL    HW213471   4.328   8.004   2.644 -0.1203 -0.6860  1.3792
 4077SOL     OW13472   2.260   5.369   1.640  0.5340  0.3600  0.9114
 4077SOL    HW113473   2.296   5.457   1.623  0.0612  0.1049 -1.6057
 4077SOL    HW213474   2.258   5.362   1.736  1.7567  2.6063  1.1385
 4078SOL     OW13475   4.744   5.824   7.760 -0.3997 -0.4260  0.1872
 4078SOL    HW113476   4.708   5.907   7.728 -0.1072  0.5744  2.3984
 4078SOL    HW213477   4.827   5.847   7.801  0.0542 -1.9349  0.1772
 4079SOL     OW13478   1.878   0.130   3.864 -0.3992 -0.2581 -0.1520
 4079SOL    HW113479   1.941   0.073   3.909 -0.7551 -0.9662 -0.5482
 4079SOL    HW213480   1.832   0.072   3.804 -0.4024  0.5496 -0.9424
 4080SOL     OW13481   6.212   0.129   0.573  0.5232  0.6775  0.2861
 4080SOL    HW113482   6.301   0.127   0.606  0.2495 -2.4043  1.0236
 4080SOL    HW213483   6.157   0.136   0.651  0.0703  0.6322 -0.0221
 4081SOL     OW13484   1.991   4.012   7.456  0.1612 -0.1037  0.1465
 4081SOL    HW113485   2.078   4.002   7.496 -0.4110 -1.0670  1.1801
 4081SOL    HW213486   1.932   3.969   7.517 -1.1196  0.9803 -0.3160
 4082SOL     OW13487   5.769   1.631   6.038  0.6878 -0.1935  0.1550
 4082SOL    HW113488   5.811   1.586   6.111 -0.6074 -1.3614  0.1905
 4082SOL    HW213489   5.740   1.561   5.980 -1.9612  0.5464  0.5334
 4083SOL     OW13490   3.337   3.006   5.643 -0.3244  0.0930 -0.0426
 4083SOL    HW113491   3.417   3.053   5.666 -0.4775  1.0884 -1.5295
 4083SOL    HW213492   3.283   3.070   5.597 -1.5578 -0.8531  0.0542
 4084SOL     OW13493   7.238   3.565   8.041  0.4054 -0.0325 -0.4341
 4084SOL    HW113494   7.332   3.571   8.055  0.4518 -0.7407 -0.4378
 4084SOL    HW213495   7.229   3.514   7.960  0.0160 -0.1140 -0.3394
 4085SOL     OW13496   4.903   0.895   6.862  0.0259  0.5398  0.2639
 4085SOL    HW113497   4.880   0.878   6.953  1.4329 -0.4712  0.4451
 4085SOL    HW213498   4.821   0.923   6.821 -1.3815 -2.3300  1.0302
 4086SOL     OW13499   5.854   2.890   2.328 -0.0861  0.8149  0.1245
 4086SOL    HW113500   5.815   2.917   2.244 -0.6782 -1.4032 -0.3425
 4086SOL    HW213501   5.792   2.920   2.394 -1.5830 -0.8247 -0.4935
 4087SOL     OW13502   1.815   1.757   5.138  0.2455  0.0709 -0.0117
 4087SOL    HW113503   1.815   1.677   5.085  0.7647 -1.0072  1.5929
 4087SOL    HW213504   1.732   1.755   5.186  0.3148  0.4393  0.1310
 4088SOL     OW13505   3.281   6.174   4.134 -0.1436 -0.8547 -0.1769
 4088SOL    HW113506   3.287   6.168   4.230 -0.2776 -1.5499 -0.2045
 4088SOL    HW213507   3.241   6.090   4.108 -1.6422  0.0105 -0.7037
 4089SOL     OW13508   2.058   7.642   5.877  0.1185 -0.2608  0.0475
 4089SOL    HW113509   2.027   7.708   5.940 -0.9762 -2.4623  1.9011
 4089SOL    HW213510   2.148   7.623   5.906  1.1505  1.7545 -1.6695
 4090SOL     OW13511   3.975   5.246   3.814  0.0474  0.5391  0.2411
 4090SOL    HW113512   3.897   5.229   3.867 -0.2881  1.0226 -0.0895
 4090SOL    HW213513   4.022   5.314   3.863 -0.8107  1.7620 -0.6229
 4091SOL     OW13514   8.037   3.977   6.504 -0.4155  0.1681 -0.0127
 4091SOL    HW113515   7.977   3.979   6.429 -2.4903 -0.1464  1.5961
 4091SOL    HW213516   8.053   4.069   6.525  0.7530  0.2688 -1.2655
 4092SOL     OW13517   7.574   6.251   3.879  0.1158 -1.3515  0.2535
 4092SOL    HW113518   7.494   6.303   3.891  1.3744  0.3043  1.8439
 4092SOL    HW213519   7.545   6.160   3.888 -2.2413 -1.0159 -3.1615
 4093SOL     OW13520   0.348   4.877   5.201  0.1871  0.8895  0.3265
 4093SOL    HW113521   0.285   4.839   5.140  1.1889 -0.9946  0.4457
 4093SOL    HW213522   0.298   4.894   5.280 -0.1878 -0.4855  0.3850
 4094SOL     OW13523   3.611   7.852   7.543  0.3346  0.1149 -0.1461
 4094SOL    HW113524   3.632   7.789   7.612  0.6290  1.0956  0.6721
 4094SOL    HW213525   3.672   7.830   7.472  0.3814 -0.5720  0.1030
 4095SOL     OW13526   4.016   2.924   6.922 -0.1034  0.7614 -0.0352
 4095SOL    HW113527   4.075   2.953   6.992 -0.8798  1.6660  0.2603
 4095SOL    HW213528   4.071   2.871   6.865  0.9300  1.3344  0.4058
 4096SOL     OW13529   2.752   6.134   2.954 -0.5120  0.0363  0.5967
 4096SOL    HW113530   2.714   6.222   2.952 -2.3289 -0.7512 -0.3596
 4096SOL    HW213531   2.826   6.139   2.893 -1.5549  0.4688 -0.6456
 4097SOL     OW13532   5.656   0.778   5.472 -0.0833  0.1742 -0.2638
 4097SOL    HW113533   5.723   0.832   5.513 -0.1049  1.6336 -2.1239
 4097SOL    HW213534   5.705   0.708   5.428  0.2767  1.3522 -1.7895
 4098SOL     OW13535   5.277   4.857   2.612  0.3395 -0.6300 -0.8326
 4098SOL    HW113536   5.327   4.812   2.679 -0.5961 -2.1039 -1.1018
 4098SOL    HW213537   5.321   4.834   2.530 -0.9494 -2.2022 -1.1017
 4099SOL     OW13538   2.807   4.041   0.010  0.0535 -0.8100 -0.1388
 4099SOL    HW113539   2.900   4.050   0.027  0.1027  1.6153 -1.5223
 4099SOL    HW213540   2.768   4.122   0.044 -1.1171 -0.3490 -2.4845
 4100SOL     OW13541   7.215   8.034   4.829  0.0343  0.0974 -0.0169
 4100SOL    HW113542   7.277   8.055   4.760  0.1954  0.4194  0.2239
 4100SOL    HW213543   7.260   7.968   4.883  0.1006  0.2034  0.0580
 4101SOL     OW13544   2.636   6.960   0.831  0.2795  0.4264 -0.3295
 4101SOL    HW113545   2.703   6.931   0.769 -1.3657 -1.0737 -1.4682
 4101SOL    HW213546   2.625   7.053   0.813  0.5384  0.2197 -1.6040
 4102SOL     OW13547   0.401   1.309   1.458 -0.4009  0.0299 -0.2713
 4102SOL    HW113548   0.426   1.285   1.547  0.3631 -1.9911 -1.0012
 4102SOL    HW213549   0.329   1.372   1.469  0.5920  0.8339  1.7657
 4103SOL     OW13550   1.022   7.400   7.590  0.0863 -0.3817  0.3264
 4103SOL    HW113551   1.111   7.385   7.622 -0.0779 -1.9640  0.0785
 4103SOL    HW213552   1.016   7.495   7.580  1.5350 -0.2082  0.9464
 4104SOL     OW13553   7.502   7.143   0.169 -0.1404  0.0523 -0.2852
 4104SOL    HW113554   7.500   7.234   0.199  2.1699 -0.2056  0.7177
 4104SOL    HW213555   7.466   7.094   0.243 -0.5345  0.0442 -0.4786
 4105SOL     OW13556   4.117   2.336   0.386 -0.4111  0.1303 -0.4534
 4105SOL    HW113557   4.118   2.430   0.371 -0.0495  0.2722  0.4442
 4105SOL    HW213558   4.207   2.313   0.408 -0.5095 -0.4083 -0.5976
 4106SOL     OW13559   2.790   0.086   1.062  0.1828 -0.1563  0.1773
 4106SOL    HW113560   2.795   0.173   1.102 -0.5479  0.2264 -0.5485
 4106SOL    HW213561   2.881   0.059   1.051  0.3959 -0.4453  2.4591
 4107SOL     OW13562   5.420   0.808   2.019 -0.4276  0.1059  0.0992
 4107SOL    HW113563   5.481   0.867   2.065 -0.2755  0.0991 -0.0925
 4107SOL    HW213564   5.409   0.734   2.079  0.4619 -0.3191 -0.2525
 4108SOL     OW13565   0.644   1.361   6.387  0.1042 -0.2799  0.2269
 4108SOL    HW113566   0.640   1.307   6.466  0.0171  0.8304  0.9909
 4108SOL    HW213567   0.560   1.345   6.343  0.2839 -1.1436  0.2012
 4109SOL     OW13568   7.119   1.168   8.300 -0.2706 -0.2441  0.1172
 4109SOL    HW113569   7.185   1.223   8.344  0.7205 -1.5999  0.3584
 4109SOL    HW213570   7.041   1.223   8.298  1.5731  2.4349 -2.5914
 4110SOL     OW13571   3.483   2.953   2.632  0.3274 -0.7493 -0.2922
 4110SOL    HW113572   3.498   2.869   2.589  0.2336 -0.6693 -0.4800
 4110SOL    HW213573   3.443   3.008   2.565 -0.6263 -0.9010  0.1469
 4111SOL     OW13574   8.280   5.659   4.431 -0.0307 -0.8642  0.0595
 4111SOL    HW113575   8.301   5.588   4.369  0.4577 -1.2514  0.6695
 4111SOL    HW213576   8.310   5.627   4.516  0.6067  0.2602  0.2682
 4112SOL     OW13577   2.696   3.026   6.628  0.1439  0.5562 -0.3002
 4112SOL    HW113578   2.768   3.087   6.616 -0.7255  1.6241 -0.2049
 4112SOL    HW213579   2.646   3.032   6.546  0.8509 -1.1171 -0.8727
 4113SOL     OW13580   6.243   3.786   1.735 -0.0441  0.1326  0.3054
 4113SOL    HW113581   6.161   3.813   1.777 -0.5383  1.2156 -1.2980
 4113SOL    HW213582   6.215   3.738   1.657  0.8475 -0.5423  0.3983
 4114SOL     OW13583   2.166   7.157   0.507  0.4279 -0.5840  0.0062
 4114SOL    HW113584   2.165   7.223   0.438 -1.1054 -1.2058 -0.6010
 4114SOL    HW213585   2.080   7.116   0.502  0.6483 -1.2954  1.6671
 4115SOL     OW13586   4.418   2.350   4.261  0.2151  0.2113 -0.1948
 4115SOL    HW113587   4.370   2.273   4.292  0.8300 -0.8844 -1.8823
 4115SOL    HW213588   4.355   2.398   4.208 -0.5833  1.6446  1.9570
 4116SOL     OW13589   1.288   0.794   7.593  0.6836 -0.1374  0.5475
 4116SOL    HW113590   1.341   0.868   7.623  1.1904 -0.5369  0.6490
 4116SOL    HW213591   1.351   0.723   7.580  0.1949 -0.5652  0.4974
 4117SOL     OW13592   2.562   1.149   2.697  0.0049  0.0374 -0.2386
 4117SOL    HW113593   2.502   1.102   2.639 -0.5448  0.7374 -0.2372
 4117SOL    HW213594   2.509   1.170   2.774  0.5188 -0.1943  0.1835
 4118SOL     OW13595   0.143   5.614   2.727  0.1411  0.0584 -0.1850
 4118SOL    HW113596   0.133   5.707   2.747 -0.7945  0.1060 -0.7859
 4118SOL    HW213597   0.184   5.576   2.804  2.5384  1.3430 -0.7795
 4119SOL     OW13598   3.580   3.549   6.181 -0.3381 -0.1325  0.5267
 4119SOL    HW113599   3.675   3.539   6.184 -0.3747 -0.4008  0.8858
 4119SOL    HW213600   3.548   3.464   6.152 -0.4251  0.1896 -0.3149
 4120SOL     OW13601   6.228   4.814   4.971 -0.2109  0.3050 -0.1803
 4120SOL    HW113602   6.147   4.859   4.997  0.3220  1.5908 -0.6612
 4120SOL    HW213603   6.298   4.866   5.011  0.3451 -1.5819  1.3611
 4121SOL     OW13604   5.211   4.190   3.377  0.1067 -0.3355  1.0910
 4121SOL    HW113605   5.188   4.234   3.296  0.3799 -1.3813  0.4421
 4121SOL    HW213606   5.138   4.130   3.394  0.2817 -0.4778  1.3497
 4122SOL     OW13607   6.185   0.655   2.394  0.0488 -0.2889  0.3127
 4122SOL    HW113608   6.100   0.698   2.382 -0.5707 -1.1199  1.5441
 4122SOL    HW213609   6.228   0.663   2.310 -1.9510 -1.2933 -0.8448
 4123SOL     OW13610   0.127   0.251   1.874 -0.1703 -0.6395  0.0891
 4123SOL    HW113611   0.206   0.198   1.876 -0.8040 -1.5626  1.3772
 4123SOL    HW213612   0.090   0.237   1.787  1.0685 -0.2112 -0.5136
 4124SOL     OW13613   5.949   7.676   0.603  0.2461  0.2508  0.4096
 4124SOL    HW113614   5.939   7.734   0.528  1.0084 -0.2069 -0.0505
 4124SOL    HW213615   6.031   7.703   0.644  1.8311 -2.0146 -1.1558
 4125SOL     OW13616   5.790   2.017   1.985  0.3905 -0.1180  0.0100
 4125SOL    HW113617   5.849   1.942   1.997  0.4082  0.2101  2.0729
 4125SOL    HW213618   5.826   2.063   1.909  2.3257 -0.3589  0.7596
 4126SOL     OW13619   1.197   2.935   3.018  0.2175  0.3226  0.6547
 4126SOL    HW113620   1.151   2.890   3.088 -1.5010  1.0047 -0.0038
 4126SOL    HW213621   1.176   2.885   2.939 -0.1971  1.1996  0.2024
 4127SOL     OW13622   0.050   2.261   8.212  0.2348 -0.0863 -0.1660
 4127SOL    HW113623   0.070   2.263   8.306 -0.8201 -2.0659  0.1248
 4127SOL    HW213624  -0.021   2.324   8.202  1.6064  1.5273  0.0282
 4128SOL     OW13625   1.505   4.732   7.471 -0.2437 -0.3778  0.3328
 4128SOL    HW113626   1.519   4.673   7.397  0.6206  1.0941 -0.6920
 4128SOL    HW213627   1.430   4.786   7.444  1.3726  1.5581 -0.3792
 4129SOL     OW13628   4.597   7.369   3.762 -0.2201  0.4955  0.4582
 4129SOL    HW113629   4.556   7.331   3.685 -0.3668  1.2656  0.1502
 4129SOL    HW213630   4.677   7.318   3.775  0.2286  0.9024 -0.6937
 4130SOL     OW13631   8.074   8.235   7.679 -0.0442 -0.1783 -0.3495
 4130SOL    HW113632   8.051   8.145   7.657 -0.3097 -0.2853  0.3539
 4130SOL    HW213633   8.162   8.248   7.643  0.0861 -0.7941 -0.2486
 4131SOL     OW13634   2.056   2.241   6.310 -0.7602 -0.5209 -0.1895
 4131SOL    HW113635   1.994   2.200   6.370 -2.2583  1.0491 -0.6360
 4131SOL    HW213636   2.046   2.192   6.228 -0.1610 -1.3612  0.2278
 4132SOL     OW13637   2.821   4.314   8.115  0.5195  0.2462  0.0929
 4132SOL    HW113638   2.891   4.249   8.109 -0.7292 -1.1541  0.4525
 4132SOL    HW213639   2.771   4.303   8.034  1.0908  1.7035 -0.4792
 4133SOL     OW13640   0.352   0.696   7.783 -0.3304 -0.0784  0.0454
 4133SOL    HW113641   0.325   0.690   7.691  0.2012  1.0788 -0.1892
 4133SOL    HW213642   0.395   0.781   7.790 -1.9691  0.6174  1.8157
 4134SOL     OW13643   4.811   4.974   3.322  0.9894 -0.4323  0.0120
 4134SOL    HW113644   4.814   5.027   3.242 -0.4713 -0.4438 -0.0691
 4134SOL    HW213645   4.718   4.957   3.335  1.3639 -2.0183  0.6862
 4135SOL     OW13646   3.675   4.951   4.136  0.6872  0.4492 -0.3105
 4135SOL    HW113647   3.621   5.005   4.193  0.9203  0.9665 -0.5734
 4135SOL    HW213648   3.732   5.013   4.090  1.0335 -0.0258 -0.5375
 4136SOL     OW13649   0.710   5.123   2.063  0.2236  0.1720 -0.1727
 4136SOL    HW113650   0.660   5.165   1.993 -0.4195 -1.7029 -0.8531
 4136SOL    HW213651   0.645   5.104   2.131  0.3594 -0.4630 -0.2174
 4137SOL     OW13652   7.917   4.546   7.545  0.1666  0.1676  0.0455
 4137SOL    HW113653   7.866   4.628   7.538 -0.0000  0.1094  0.5696
 4137SOL    HW213654   7.856   4.484   7.586  0.3019 -0.2146 -0.3343
 4138SOL     OW13655   3.925   8.245   6.736  0.2759 -0.6160 -0.0037
 4138SOL    HW113656   3.917   8.337   6.711  0.1364 -0.3291  1.0841
 4138SOL    HW213657   3.922   8.198   6.653  4.0512  0.6062 -0.9381
 4139SOL     OW13658   3.991   3.354   5.604 -0.5519  0.2530 -0.2146
 4139SOL    HW113659   3.923   3.409   5.565  0.4419  0.8668 -1.0964
 4139SOL    HW213660   4.012   3.290   5.536 -0.2962  0.0174  0.0840
 4140SOL     OW13661   5.459   6.032   0.278  0.3309 -0.4328 -0.3497
 4140SOL    HW113662   5.512   6.002   0.353  0.6486  0.0984 -0.3625
 4140SOL    HW213663   5.510   6.005   0.201  0.9819  0.7807 -0.3578
 4141SOL     OW13664   7.892   3.748   0.010  0.2166 -0.5682 -0.3041
 4141SOL    HW113665   7.964   3.702  -0.032  0.1795 -0.1033 -0.8820
 4141SOL    HW213666   7.925   3.837   0.024  0.7745 -1.1029  2.0316
 4142SOL     OW13667   3.524   2.880   7.422  0.1093  0.0123 -0.2573
 4142SOL    HW113668   3.431   2.879   7.445 -0.0473  0.1034 -0.8836
 4142SOL    HW213669   3.559   2.957   7.466 -0.0756 -0.1222  0.1256
 4143SOL     OW13670   1.052   0.210   7.554 -0.4226  0.3734 -0.0798
 4143SOL    HW113671   1.084   0.292   7.516 -0.0580  0.3756  0.2284
 4143SOL    HW213672   0.998   0.237   7.627  1.7569  0.2939  1.6183
 4144SOL     OW13673   3.339   2.545   4.216 -0.2047 -0.3097 -0.5530
 4144SOL    HW113674   3.415   2.581   4.262 -3.0153  2.3880  2.2683
 4144SOL    HW213675   3.323   2.608   4.145 -1.4106  0.6692  0.5646
 4145SOL     OW13676   4.514   1.659   4.096  0.3608  0.6615 -0.5135
 4145SOL    HW113677   4.471   1.741   4.071 -0.0882 -0.3823 -3.3545
 4145SOL    HW213678   4.453   1.591   4.068  1.4271 -0.6984  0.4058
 4146SOL     OW13679   7.242   4.906   0.661 -0.0794  0.3287 -0.6999
 4146SOL    HW113680   7.176   4.975   0.658 -1.3974 -0.9325 -1.2345
 4146SOL    HW213681   7.230   4.857   0.580 -1.0003 -2.1914  0.8881
 4147SOL     OW13682   3.957   8.127   2.522 -0.1723 -0.1019 -0.1245
 4147SOL    HW113683   3.930   8.083   2.602  0.5828 -1.7102 -0.7262
 4147SOL    HW213684   3.879   8.174   2.493 -0.8024 -0.4871  0.9064
 4148SOL     OW13685   5.024   0.343   3.141 -0.3388  0.3666  0.7125
 4148SOL    HW113686   5.050   0.351   3.049  2.1585 -1.8844  1.1567
 4148SOL    HW213687   4.929   0.331   3.138 -0.2728  0.1825 -1.5736
 4149SOL     OW13688   4.395   3.446   7.834 -0.0741 -0.4499  0.0415
 4149SOL    HW113689   4.336   3.468   7.761  1.5961  1.8068 -0.6901
 4149SOL    HW213690   4.397   3.350   7.835 -3.7281 -0.5955  0.1100
 4150SOL     OW13691   1.506   1.789   5.109 -0.4178  0.1643  0.0785
 4150SOL    HW113692   1.505   1.829   5.195 -0.9702 -0.9377  0.5991
 4150SOL    HW213693   1.571   1.838   5.060  0.0454  0.6673  1.1913
 4151SOL     OW13694   5.891   2.539   7.460  0.0779 -0.2641  0.4317
 4151SOL    HW113695   5.802   2.563   7.485 -1.3395 -3.3793 -1.2839
 4151SOL    HW213696   5.918   2.475   7.525  1.1784  0.7798  1.0350
 4152SOL     OW13697   4.064   5.483   6.915  0.2674 -0.1061 -0.6710
 4152SOL    HW113698   4.031   5.572   6.923  0.4167 -0.1459  0.3807
 4152SOL    HW213699   4.148   5.493   6.869  0.4530  0.3238 -0.2379
 4153SOL     OW13700   1.041   3.906   7.513  1.0600  0.2904 -0.0363
 4153SOL    HW113701   0.993   3.982   7.481 -0.0870 -0.3804  0.0748
 4153SOL    HW213702   1.050   3.849   7.437 -1.8923 -1.4228  0.7977
 4154SOL     OW13703   4.913   1.512   5.840  0.1145  0.2674  0.8081
 4154SOL    HW113704   4.847   1.570   5.879 -0.4437 -0.2856  0.6797
 4154SOL    HW213705   4.944   1.561   5.763 -2.1826 -0.6681 -0.7785
 4155SOL     OW13706   1.328   7.605   4.327  0.4020  0.2869 -0.5301
 4155SOL    HW113707   1.371   7.594   4.412 -2.5416 -0.0038  0.9960
 4155SOL    HW213708   1.366   7.537   4.271  2.2351  0.3569  0.5733
 4156SOL     OW13709   3.746   2.530   5.105  0.9060 -0.5933  0.4438
 4156SOL    HW113710   3.772   2.507   5.015 -0.6364  0.6212 -0.3366
 4156SOL    HW213711   3.824   2.571   5.142  1.9151 -2.1099  0.0452
 4157SOL     OW13712   5.235   2.896   7.881 -0.2131 -0.9072  0.0300
 4157SOL    HW113713   5.149   2.907   7.922  0.4974  0.0738  1.2664
 4157SOL    HW213714   5.287   2.970   7.912  0.2176  0.1370 -2.9676
 4158SOL     OW13715   7.071   1.382   6.785  0.2774 -0.5580 -0.3577
 4158SOL    HW113716   6.985   1.425   6.794 -0.3169 -1.6806 -0.6435
 4158SOL    HW213717   7.062   1.326   6.709  0.8156 -1.7614  0.4547
 4159SOL     OW13718   7.675   3.837   3.946  0.2700 -0.3599  0.3071
 4159SOL    HW113719   7.724   3.779   4.005 -1.0476  0.2952  2.1098
 4159SOL    HW213720   7.737   3.859   3.877  1.9993 -0.8536  1.6635
 4160SOL     OW13721   7.088   3.416   4.184 -0.0102 -0.2641 -0.8946
 4160SOL    HW113722   7.139   3.424   4.103  0.0703 -0.0924 -0.8278
 4160SOL    HW213723   7.148   3.447   4.252  0.2467 -1.2643 -0.6493
 4161SOL     OW13724   0.428   7.947   0.472  0.1996  0.2753 -0.4256
 4161SOL    HW113725   0.511   7.994   0.458  0.1309  0.7803  0.8106
 4161SOL    HW213726   0.372   8.011   0.516  0.2570 -1.1030  1.6948
 4162SOL     OW13727   4.542   3.561   0.249  0.0579  0.1659  0.5955
 4162SOL    HW113728   4.506   3.476   0.225 -0.4249  0.3353  0.7150
 4162SOL    HW213729   4.473   3.603   0.302  0.6036  0.3099  1.1980
 4163SOL     OW13730   5.566   2.608   6.076  0.0771 -0.3975  0.3162
 4163SOL    HW113731   5.513   2.532   6.101  1.0077 -0.6436  1.5871
 4163SOL    HW213732   5.646   2.599   6.128  0.9110  0.5385 -0.8045
 4164SOL     OW13733   0.903   6.165   7.096 -0.1524  0.5428 -0.2660
 4164SOL    HW113734   0.812   6.156   7.068  0.1962 -0.5671 -1.0716
 4164SOL    HW213735   0.920   6.260   7.094 -0.8669  0.6508 -1.4671
 4165SOL     OW13736   0.337   2.802   2.136 -0.6287 -0.5434 -0.1883
 4165SOL    HW113737   0.412   2.744   2.125 -0.4537 -0.2676 -0.4356
 4165SOL    HW213738   0.369   2.888   2.109 -0.3466  0.0380  1.8974
 4166SOL     OW13739   3.092   3.568   5.601 -0.9710 -0.2631  0.4425
 4166SOL    HW113740   3.137   3.602   5.679 -0.3533 -4.3481  1.9583
 4166SOL    HW213741   3.003   3.551   5.631 -1.0916 -0.6186 -0.1282
 4167SOL     OW13742   7.011   4.123   5.205 -0.0300  0.0429 -0.1487
 4167SOL    HW113743   7.075   4.191   5.184  0.8663 -0.4638  0.8835
 4167SOL    HW213744   6.931   4.171   5.227  0.5872  0.7663  0.5445
 4168SOL     OW13745   4.809   8.171   1.962  0.4302  0.2433 -0.1856
 4168SOL    HW113746   4.782   8.116   1.888 -0.2675 -1.1423  1.0694
 4168SOL    HW213747   4.755   8.249   1.955  0.0891 -0.0520 -0.8983
 4169SOL     OW13748   5.290   1.449   1.544 -0.7869  0.1273 -0.1387
 4169SOL    HW113749   5.298   1.376   1.482 -0.5686 -0.9671  1.1397
 4169SOL    HW213750   5.305   1.409   1.630  2.1119  2.1965  0.3781
 4170SOL     OW13751   2.377   5.190   1.972  0.2143  0.8945 -0.2700
 4170SOL    HW113752   2.289   5.220   1.945  0.4727  0.6180 -1.4548
 4170SOL    HW213753   2.360   5.118   2.032 -0.3739 -0.4211 -1.9815
 4171SOL     OW13754   3.922   1.667   1.872  0.2837  0.1154 -0.4659
 4171SOL    HW113755   3.865   1.649   1.946  1.4796  0.4079  0.5417
 4171SOL    HW213756   3.930   1.763   1.870  2.3675 -0.0037  0.6797
 4172SOL     OW13757   2.927   7.159   5.671 -0.1821  0.3532  0.0824
 4172SOL    HW113758   2.890   7.160   5.760 -4.3364 -1.6815 -1.4769
 4172SOL    HW213759   2.959   7.070   5.660 -0.1889  0.4431 -0.6410
 4173SOL     OW13760   0.189   2.038   0.260 -0.4009  0.3093 -0.2569
 4173SOL    HW113761   0.274   2.022   0.302  0.7452  0.9098 -2.2838
 4173SOL    HW213762   0.125   2.018   0.328  1.3252 -1.2242  0.9781
 4174SOL     OW13763   5.260   2.224   7.404  0.2630  0.0088 -0.2579
 4174SOL    HW113764   5.196   2.242   7.473 -0.7008 -1.0845 -0.8313
 4174SOL    HW213765   5.280   2.309   7.367  0.3055  0.5372  0.9430
 4175SOL     OW13766   2.135   1.569   4.450 -0.0878  0.6369  0.2569
 4175SOL    HW113767   2.046   1.577   4.483 -0.1814 -2.5942  0.9331
 4175SOL    HW213768   2.188   1.621   4.511 -1.3648  1.7732  0.4097
 4176SOL     OW13769   6.273   5.216   8.136 -0.1424  0.1018 -0.0568
 4176SOL    HW113770   6.324   5.188   8.060  1.0451  2.7282 -0.2958
 4176SOL    HW213771   6.316   5.173   8.210  0.6891  0.0400 -0.5551
 4177SOL     OW13772   2.203   0.615   8.291  0.3596 -0.5132  0.8324
 4177SOL    HW113773   2.196   0.523   8.266  0.1029  0.1061 -1.4588
 4177SOL    HW213774   2.113   0.642   8.309  0.3940 -0.6044  1.1484
 4178SOL     OW13775   0.319   7.291   1.381 -0.2901  0.0554 -0.2453
 4178SOL    HW113776   0.328   7.234   1.305 -2.6434 -1.0534  0.2675
 4178SOL    HW213777   0.327   7.233   1.457  1.9593  1.1364  0.3864
 4179SOL     OW13778   2.780   7.936   1.734  0.7788  0.3146 -0.1170
 4179SOL    HW113779   2.691   7.923   1.767  0.0882  0.9852 -1.6783
 4179SOL    HW213780   2.819   7.849   1.737 -0.4882 -0.3025 -0.9764
 4180SOL     OW13781   7.586   2.656   6.286 -0.2469 -0.0707  0.1783
 4180SOL    HW113782   7.657   2.628   6.343 -1.1540 -0.1037  1.2865
 4180SOL    HW213783   7.519   2.588   6.295 -0.4085 -0.0631 -0.8996
 4181SOL     OW13784   4.559   1.633   8.050 -0.4812 -0.1501  0.2815
 4181SOL    HW113785   4.548   1.620   7.955 -1.3206  0.2759  0.3193
 4181SOL    HW213786   4.649   1.606   8.067 -0.5691 -0.9643 -0.5154
 4182SOL     OW13787   4.511   7.042   1.118  0.1303  0.3963  1.1076
 4182SOL    HW113788   4.444   7.004   1.174 -0.1594  0.7097  0.9736
 4182SOL    HW213789   4.521   6.980   1.046 -0.1368  0.4328  1.0389
 4183SOL     OW13790   8.075   6.306   7.532 -0.4249  0.2536 -0.7491
 4183SOL    HW113791   7.995   6.336   7.575 -0.8036  0.0441 -1.3012
 4183SOL    HW213792   8.059   6.213   7.514 -0.9355  0.7088 -2.8126
 4184SOL     OW13793   4.873   2.115   2.992 -0.1969  0.0470 -0.1526
 4184SOL    HW113794   4.934   2.130   3.064  0.2006  0.4788 -0.5761
 4184SOL    HW213795   4.922   2.139   2.913 -0.5161 -0.7263 -0.6016
 4185SOL     OW13796   8.131   5.517   7.003 -0.5322 -0.1442 -0.5626
 4185SOL    HW113797   8.159   5.562   6.923 -0.0184 -0.4708 -0.5694
 4185SOL    HW213798   8.139   5.584   7.072  1.4851 -0.5738 -0.3455
 4186SOL     OW13799   5.344   4.317   5.013  0.2485 -0.3102  0.8167
 4186SOL    HW113800   5.340   4.248   5.078  0.4472 -0.3107  0.8293
 4186SOL    HW213801   5.430   4.357   5.026  0.8859 -1.2648 -0.4184
 4187SOL     OW13802   4.522   2.296   6.837 -0.1359 -0.1105 -0.2117
 4187SOL    HW113803   4.571   2.222   6.800  0.8505  0.3047  0.2690
 4187SOL    HW213804   4.438   2.258   6.863 -0.1524 -0.7877 -1.2008
 4188SOL     OW13805   4.712   2.598   1.375  0.1665 -0.6303 -0.2178
 4188SOL    HW113806   4.726   2.685   1.336 -0.9977 -1.1792 -1.9219
 4188SOL    HW213807   4.767   2.598   1.453  0.1278  1.6784 -0.1432
 4189SOL     OW13808   8.219   0.567   2.174 -0.5398  0.3752 -0.2493
 4189SOL    HW113809   8.247   0.557   2.083 -1.9328 -1.5321 -0.5019
 4189SOL    HW213810   8.301   0.584   2.222  0.6223 -1.5603 -1.4565
 4190SOL     OW13811   6.142   0.809   2.686  0.4958  0.1090  0.1647
 4190SOL    HW113812   6.048   0.793   2.688  0.4522 -0.2416 -2.6813
 4190SOL    HW213813   6.151   0.897   2.651  1.2256  0.2059  0.5769
 4191SOL     OW13814   3.591   0.319   7.099  0.0211 -0.4207 -0.2409
 4191SOL    HW113815   3.647   0.389   7.131  0.4352 -0.3460 -1.0987
 4191SOL    HW213816   3.615   0.310   7.006 -3.1015  1.2982 -1.3017
 4192SOL     OW13817   4.935   5.385   3.380 -0.0197 -0.0710 -0.1262
 4192SOL    HW113818   4.860   5.349   3.332 -0.8569  1.9870 -0.4059
 4192SOL    HW213819   4.984   5.435   3.314  0.3946  0.4154  0.5408
 4193SOL     OW13820   0.453   6.292   1.003  0.0716  0.2066  0.2468
 4193SOL    HW113821   0.408   6.224   0.953 -1.1290  1.4835 -0.4267
 4193SOL    HW213822   0.529   6.247   1.041  0.7339 -0.9129 -2.2732
 4194SOL     OW13823   4.382   5.875   5.105  0.0445 -0.1867  0.0585
 4194SOL    HW113824   4.324   5.950   5.121  0.3972  0.1317 -0.1650
 4194SOL    HW213825   4.420   5.892   5.019  0.0819 -0.6492 -0.0140
 4195SOL     OW13826   1.611   3.155   5.118 -0.7816 -0.3714  0.1891
 4195SOL    HW113827   1.577   3.166   5.207  1.5484 -0.5494  1.1194
 4195SOL    HW213828   1.640   3.242   5.092 -0.4919 -0.5262 -0.0062
 4196SOL     OW13829   7.239   1.106   0.892 -0.1039  0.6094 -0.0028
 4196SOL    HW113830   7.250   1.011   0.885  1.1050  0.8941 -3.1264
 4196SOL    HW213831   7.310   1.134   0.950  0.7041 -0.2228 -0.5640
 4197SOL     OW13832   5.393   7.071   5.886  0.0438 -0.4356 -0.1877
 4197SOL    HW113833   5.377   7.113   5.971  1.2868  1.8446 -1.0657
 4197SOL    HW213834   5.305   7.052   5.852 -0.5605  1.8485  0.0355
 4198SOL     OW13835   6.118   5.530   2.054  0.2316 -0.7655  0.3812
 4198SOL    HW113836   6.152   5.549   1.967 -1.2024 -0.8845 -0.2224
 4198SOL    HW213837   6.105   5.435   2.055  1.9442 -1.0120  1.3700
 4199SOL     OW13838   1.833   2.384   7.454  0.3487 -0.1326  0.1694
 4199SOL    HW113839   1.923   2.351   7.456 -0.1656 -1.6928 -1.0901
 4199SOL    HW213840   1.817   2.406   7.363  0.1533  2.2122  0.7428
 4200SOL     OW13841   0.680   6.336   3.679 -0.0840  0.4619 -0.0668
 4200SOL    HW113842   0.749   6.293   3.628  1.3269 -0.6463  2.6395
 4200SOL    HW213843   0.630   6.263   3.716 -0.3555  1.2077  1.0536
 4201SOL     OW13844   3.554   3.981   5.961 -0.1074 -0.3368 -0.1752
 4201SOL    HW113845   3.597   3.901   5.929 -0.1021 -0.0039 -1.0046
 4201SOL    HW213846   3.627   4.039   5.985 -0.1128 -0.8262  1.0568
 4202SOL     OW13847   6.225   4.068   7.397  0.2636  0.7194  0.3816
 4202SOL    HW113848   6.137   4.098   7.419 -0.1234 -0.3156  0.2394
 4202SOL    HW213849   6.256   4.130   7.331 -1.1954 -0.1949 -1.1846
 4203SOL     OW13850   6.815   0.557   6.601 -0.1633  0.1015 -0.2320
 4203SOL    HW113851   6.851   0.549   6.690  0.4035  1.1859 -0.3474
 4203SOL    HW213852   6.891   0.558   6.544 -0.5139 -0.3116 -0.7080
 4204SOL     OW13853   0.627   2.194   4.428 -0.5679  0.4088  0.4933
 4204SOL    HW113854   0.577   2.146   4.362  0.3206 -0.4573  0.4419
 4204SOL    HW213855   0.693   2.242   4.377  0.1261 -0.2717  0.7621
 4205SOL     OW13856   6.739   2.368   3.968  0.6997 -0.4052 -0.1150
 4205SOL    HW113857   6.749   2.290   3.913 -0.2217 -0.8119  0.3001
 4205SOL    HW213858   6.827   2.383   4.004  0.6369 -1.8806  0.6660
 4206SOL     OW13859   5.810   2.509   0.303  0.0770  0.3990 -0.1122
 4206SOL    HW113860   5.811   2.421   0.339  0.2620 -0.0699 -1.2579
 4206SOL    HW213861   5.828   2.566   0.379 -0.4009 -0.5090  0.6905
 4207SOL     OW13862   1.861   0.132   6.383  0.3689 -0.3488 -0.1822
 4207SOL    HW113863   1.870   0.217   6.426 -1.0078 -1.1191  1.7270
 4207SOL    HW213864   1.768   0.126   6.360  0.2018 -1.7970  0.7866
 4208SOL     OW13865   4.254   0.907   3.302 -0.4637 -0.1836 -0.0364
 4208SOL    HW113866   4.263   0.816   3.273 -2.2685 -0.4363  0.1487
 4208SOL    HW213867   4.174   0.907   3.354  0.3499  1.2068  1.2154
 4209SOL     OW13868   2.894   2.322   4.238 -0.2479  0.0800 -0.5106
 4209SOL    HW113869   2.936   2.400   4.202 -1.4359  1.3443  0.8173
 4209SOL    HW213870   2.814   2.354   4.280 -1.3105 -1.9806 -0.8598
 4210SOL     OW13871   2.981   6.234   6.711 -0.1670 -0.3173 -0.2087
 4210SOL    HW113872   2.934   6.311   6.679 -0.1137 -0.7875 -1.4596
 4210SOL    HW213873   3.043   6.212   6.641  0.1592 -1.2026  0.3368
 4211SOL     OW13874   2.412   0.839   6.606 -0.1654 -0.1515  0.4300
 4211SOL    HW113875   2.434   0.770   6.544 -1.6443  0.9040 -1.3006
 4211SOL    HW213876   2.487   0.898   6.604  0.2221 -0.6345  0.4109
 4212SOL     OW13877   7.139   5.540   8.290  0.2786 -0.1895 -0.2491
 4212SOL    HW113878   7.174   5.616   8.337  1.2773 -0.0823 -1.1393
 4212SOL    HW213879   7.055   5.570   8.255 -0.1444 -0.0545  0.8927
 4213SOL     OW13880   4.035   3.296   6.543 -0.0042 -0.1908 -0.1601
 4213SOL    HW113881   3.951   3.252   6.548  0.0404 -0.3621 -0.8396
 4213SOL    HW213882   4.052   3.304   6.449  0.2658  0.7316 -0.0397
 4214SOL     OW13883   3.391   0.642   3.527 -0.4784 -0.4604  0.3350
 4214SOL    HW113884   3.413   0.565   3.474  1.1837 -0.8698  1.5931
 4214SOL    HW213885   3.295   0.647   3.523 -0.3879 -0.5380 -2.5941
 4215SOL     OW13886   2.380   7.054   7.058 -0.5757 -0.7975  0.1610
 4215SOL    HW113887   2.313   6.987   7.071  0.4428 -1.9543 -0.4534
 4215SOL    HW213888   2.432   7.022   6.984  1.2778 -0.4064  1.2714
 4216SOL     OW13889   5.331   0.728   4.550 -0.0112 -0.5905  0.0284
 4216SOL    HW113890   5.283   0.760   4.626 -0.8012 -1.7658  0.0284
 4216SOL    HW213891   5.285   0.764   4.475  0.1042 -0.3512  0.0719
 4217SOL     OW13892   1.988   7.203   7.435 -0.5718 -0.0992 -0.5526
 4217SOL    HW113893   1.945   7.288   7.432 -1.4343 -0.5615 -2.5585
 4217SOL    HW213894   2.075   7.221   7.471 -1.4723  1.2760  0.9920
 4218SOL     OW13895   7.592   5.485   5.397  0.1772  0.3366  0.6793
 4218SOL    HW113896   7.643   5.551   5.445  0.3842 -0.3234  1.3877
 4218SOL    HW213897   7.624   5.401   5.432  0.6548 -0.1736 -0.9425
 4219SOL     OW13898   6.848   3.090   0.628 -0.1697 -0.2410  0.2985
 4219SOL    HW113899   6.923   3.098   0.687  0.1347  1.8629 -0.3630
 4219SOL    HW213900   6.885   3.094   0.540 -0.8472 -1.3817 -0.0612
 4220SOL     OW13901   1.013   7.653   0.969  0.6928 -0.3752 -0.7029
 4220SOL    HW113902   0.933   7.671   0.920  1.2278  0.8022 -1.1660
 4220SOL    HW213903   0.984   7.602   1.045 -0.5282  0.3154 -0.6933
 4221SOL     OW13904   5.003   7.424   7.735 -0.3053 -0.7356  0.1341
 4221SOL    HW113905   4.963   7.370   7.803  3.7817 -1.2204  2.3356
 4221SOL    HW213906   5.024   7.362   7.664 -0.2707 -1.1091  0.4700
 4222SOL     OW13907   6.585   2.570   0.615  0.0468  0.5146  0.0467
 4222SOL    HW113908   6.624   2.635   0.673  1.0459 -0.8061  0.8842
 4222SOL    HW213909   6.646   2.564   0.541 -0.5990  1.2998 -0.5635
 4223SOL     OW13910   4.756   5.941   7.078  0.0169 -0.4505 -0.3082
 4223SOL    HW113911   4.735   5.996   7.153  1.0974 -0.0749 -0.2794
 4223SOL    HW213912   4.754   5.852   7.112  1.2131 -0.2382  0.3473
 4224SOL     OW13913   5.032   4.546   1.229  0.3537 -0.1876  0.4622
 4224SOL    HW113914   5.020   4.452   1.241 -2.6822  0.0454 -0.3502
 4224SOL    HW213915   5.036   4.581   1.318 -1.7329 -0.7386  0.7919
 4225SOL     OW13916   0.538   2.610   6.112  0.2985 -0.2501 -0.1073
 4225SOL    HW113917   0.603   2.539   6.108  0.2218 -0.6064  3.2851
 4225SOL    HW213918   0.455   2.567   6.091  0.4204 -0.9551  0.8070
 4226SOL     OW13919   1.234   1.743   1.030 -0.3088  0.0218  0.0719
 4226SOL    HW113920   1.187   1.705   1.105 -1.5000 -0.0124 -0.6817
 4226SOL    HW213921   1.281   1.818   1.067  1.0933 -1.4385  1.3369
 4227SOL     OW13922   7.614   1.870   5.752 -0.4138  1.1253  0.1314
 4227SOL    HW113923   7.632   1.953   5.795  0.3806  0.8129  0.4117
 4227SOL    HW213924   7.549   1.891   5.684  1.4063  2.3756 -1.2664
 4228SOL     OW13925   7.319   5.862   2.340 -0.0262  0.6007 -0.0453
 4228SOL    HW113926   7.317   5.956   2.360  0.4840  0.6708 -0.3323
 4228SOL    HW213927   7.412   5.841   2.334 -0.1583  0.2835 -0.9650
 4229SOL     OW13928   6.952   5.700   6.002  0.0428  0.1252  0.1556
 4229SOL    HW113929   6.921   5.777   6.050  0.8340  0.5386  0.0229
 4229SOL    HW213930   6.943   5.724   5.910 -2.1328 -0.9373  0.0736
 4230SOL     OW13931   4.935   2.202   6.123 -0.5903 -0.1640  0.4406
 4230SOL    HW113932   5.005   2.157   6.171 -0.2127 -1.1854 -1.0553
 4230SOL    HW213933   4.977   2.282   6.091 -0.5177 -0.0581  0.7946
 4231SOL     OW13934   1.620   3.242   3.911 -0.0341  0.8534  0.1524
 4231SOL    HW113935   1.660   3.313   3.960  0.8370  1.0016 -0.7622
 4231SOL    HW213936   1.595   3.178   3.977  0.3423  1.4386  0.8598
 4232SOL     OW13937   8.289   0.366   0.257 -0.3378 -1.3352  0.4794
 4232SOL    HW113938   8.228   0.429   0.218  0.5239 -0.0236  1.2176
 4232SOL    HW213939   8.271   0.371   0.351  0.9269 -0.9137  0.6997
 4233SOL     OW13940   6.885   0.480   7.530  0.2688 -0.6578  0.0298
 4233SOL    HW113941   6.862   0.556   7.583  2.1749 -1.4758  2.1195
 4233SOL    HW213942   6.820   0.413   7.555 -0.1323 -0.3770 -0.2575
 4234SOL     OW13943   3.338   4.204   1.700  0.6043 -0.2747 -0.3387
 4234SOL    HW113944   3.362   4.240   1.785  2.5404 -0.3039 -0.8580
 4234SOL    HW213945   3.399   4.132   1.685 -0.5041 -1.0507 -1.2085
 4235SOL     OW13946   3.166   5.582   0.865 -0.1571  0.0582  0.0496
 4235SOL    HW113947   3.182   5.506   0.921  0.6561  0.0091 -0.2509
 4235SOL    HW213948   3.220   5.651   0.903  1.1588 -0.2448 -1.2524
 4236SOL     OW13949   3.114   0.601   2.767  0.0278  0.1223 -0.3879
 4236SOL    HW113950   3.036   0.626   2.816  0.4174 -0.0870  0.3431
 4236SOL    HW213951   3.090   0.522   2.721 -0.9623  1.3781 -2.0756
 4237SOL     OW13952   7.660   4.607   6.530 -0.2121 -0.2016 -0.2228
 4237SOL    HW113953   7.645   4.673   6.462 -0.2286 -0.1230 -0.1441
 4237SOL    HW213954   7.748   4.626   6.562  0.7597 -1.7730 -1.8960
 4238SOL     OW13955   2.007   8.248   1.944 -0.0268  0.3379 -0.2724
 4238SOL    HW113956   2.015   8.184   2.014 -0.0909 -1.1140 -1.5873
 4238SOL    HW213957   1.985   8.197   1.866 -2.1275  2.1489 -0.9150
 4239SOL     OW13958   7.810   2.628   2.914  0.5055 -0.2144 -0.1950
 4239SOL    HW113959   7.727   2.591   2.884  0.3827  0.3614 -0.5799
 4239SOL    HW213960   7.839   2.569   2.983 -0.7237  0.1203  0.6479
 4240SOL     OW13961   0.934   2.519   0.784  0.1242 -0.0515  0.3673
 4240SOL    HW113962   0.930   2.510   0.880  1.5221  0.0058  0.4468
 4240SOL    HW213963   0.883   2.444   0.751 -1.7549  0.8470  1.1466
 4241SOL     OW13964   7.698   1.871   7.214  0.4689  0.6363  0.0191
 4241SOL    HW113965   7.634   1.836   7.275  0.6297 -0.3135 -0.3483
 4241SOL    HW213966   7.764   1.912   7.269 -0.9343  2.5097  0.3817
 4242SOL     OW13967   7.124   3.214   6.638  0.6449 -0.2545  0.0527
 4242SOL    HW113968   7.186   3.264   6.691  0.3890  0.3612 -0.2231
 4242SOL    HW213969   7.177   3.147   6.596  1.0634  0.0302  0.1244
 4243SOL     OW13970   7.642   1.711   5.416 -0.2311  0.5625 -0.3545
 4243SOL    HW113971   7.697   1.742   5.345  0.4189  2.1852  0.8162
 4243SOL    HW213972   7.584   1.785   5.436  0.5544  0.6443  1.7187
 4244SOL     OW13973   2.039   8.041   3.185  0.1571 -0.0589 -0.1827
 4244SOL    HW113974   1.956   8.077   3.153  0.8843  0.9877 -0.9428
 4244SOL    HW213975   2.066   8.103   3.252 -0.4544 -1.2656  1.1960
 4245SOL     OW13976   4.286   2.758   2.974 -0.0603  0.6511 -0.0784
 4245SOL    HW113977   4.228   2.692   3.012  0.4827  0.9667  1.3141
 4245SOL    HW213978   4.352   2.708   2.926 -0.3803  0.2271 -0.0745
 4246SOL     OW13979   7.889   3.050   6.915 -0.8472  0.7188  0.0933
 4246SOL    HW113980   7.914   3.083   6.829  2.0465  1.6459  1.2243
 4246SOL    HW213981   7.926   2.962   6.919 -1.3870  0.4960  0.2293
 4247SOL     OW13982   7.381   0.435   7.628 -0.1937  0.1262  0.7210
 4247SOL    HW113983   7.470   0.400   7.623 -0.6955 -0.9569 -1.2219
 4247SOL    HW213984   7.389   0.514   7.680  2.1130  0.6673 -0.3981
 4248SOL     OW13985   6.514   6.328   4.054 -0.3734 -0.5112 -0.7762
 4248SOL    HW113986   6.548   6.356   4.139 -0.7659 -0.1145 -0.7472
 4248SOL    HW213987   6.571   6.371   3.990 -0.1207 -0.7552 -0.7172
 4249SOL     OW13988   7.198   0.994   1.277 -0.1187  0.3288  0.4777
 4249SOL    HW113989   7.122   0.937   1.269  0.2320 -0.4228  2.2518
 4249SOL    HW213990   7.161   1.082   1.283 -0.8815 -0.0611  1.6858
 4250SOL     OW13991   6.947   4.564   3.591  0.0220 -0.3444 -0.6412
 4250SOL    HW113992   6.961   4.578   3.498 -0.6142 -0.8134 -0.8123
 4250SOL    HW213993   6.853   4.580   3.603 -0.0581 -1.1331 -0.2325
 4251SOL     OW13994   7.242   0.381   7.410 -0.2311 -0.2057  0.0637
 4251SOL    HW113995   7.300   0.408   7.482 -1.9780  0.9469  1.0847
 4251SOL    HW213996   7.236   0.286   7.419  0.3661 -0.1759  0.8382
 4252SOL     OW13997   5.370   6.834   2.466  0.3875  0.7624 -0.1653
 4252SOL    HW113998   5.394   6.822   2.374 -0.2983  1.0007 -0.3734
 4252SOL    HW213999   5.324   6.753   2.489  0.2995  0.8288 -0.1094
 4253SOL     OW14000   0.259   2.349   4.406 -0.3898  0.0210  0.1652
 4253SOL    HW114001   0.338   2.387   4.445 -1.4708  0.1384  2.3189
 4253SOL    HW214002   0.290   2.274   4.357  1.0500 -0.0258  1.1105
 4254SOL     OW14003   2.386   4.389   4.615 -0.2883  0.2386 -0.5133
 4254SOL    HW114004   2.403   4.446   4.539 -0.0959  1.0941  0.1572
 4254SOL    HW214005   2.416   4.303   4.588 -0.5191  0.4715 -1.5295
 4255SOL     OW14006   7.937   0.262   1.163 -0.0269 -0.1031 -0.1258
 4255SOL    HW114007   8.027   0.256   1.131 -0.7666 -0.3216 -2.2636
 4255SOL    HW214008   7.929   0.353   1.194  1.1612 -0.3262  0.8774
 4256SOL     OW14009   0.533   2.910   5.221  0.1407 -0.0876  0.4102
 4256SOL    HW114010   0.550   2.833   5.275 -1.8673 -0.6962  0.2288
 4256SOL    HW214011   0.555   2.984   5.277  1.8804 -0.7841  0.6600
 4257SOL     OW14012   4.747   1.881   3.732  0.6982  0.2428 -0.1982
 4257SOL    HW114013   4.711   1.820   3.796 -0.8287 -0.4430 -1.6655
 4257SOL    HW214014   4.805   1.828   3.678  0.2900  0.3350 -0.7327
 4258SOL     OW14015   2.354   6.707   3.040 -0.1240 -0.6449  0.4172
 4258SOL    HW114016   2.408   6.639   2.999  0.8336  0.1076  0.4221
 4258SOL    HW214017   2.314   6.754   2.967  1.3498  0.5082  0.3455
 4259SOL     OW14018   0.077   1.611   6.367 -0.9055 -0.1140 -0.0418
 4259SOL    HW114019   0.152   1.552   6.356 -1.2917 -0.6841  0.3567
 4259SOL    HW214020   0.094   1.656   6.449  0.6471  2.1900 -1.5866
 4260SOL     OW14021   4.764   8.046   2.224  0.3801 -0.2647 -0.2657
 4260SOL    HW114022   4.844   8.002   2.251  0.3566 -0.1481 -0.0070
 4260SOL    HW214023   4.786   8.089   2.141  1.1572  1.4683  0.8334
 4261SOL     OW14024   3.822   1.016   6.820 -0.1659  0.1993  0.0849
 4261SOL    HW114025   3.847   1.096   6.866  0.0732 -0.6068  1.3680
 4261SOL    HW214026   3.809   1.044   6.729  3.7134  0.9910 -0.3139
 4262SOL     OW14027   8.121   2.601   6.652  0.2607  0.1462  0.2769
 4262SOL    HW114028   8.160   2.525   6.608 -2.6902 -1.0685 -0.3654
 4262SOL    HW214029   8.134   2.585   6.745 -0.3011 -1.1479  0.1377
 4263SOL     OW14030   5.102   5.966   6.310  0.0164  0.1826 -0.0404
 4263SOL    HW114031   5.183   6.015   6.318  0.0879  0.3690 -1.7569
 4263SOL    HW214032   5.112   5.892   6.370  1.9587 -0.4583 -1.1195
 4264SOL     OW14033   2.658   3.577   5.731  0.0085  0.1503 -0.3293
 4264SOL    HW114034   2.652   3.633   5.654  1.6497  0.6429 -0.1184
 4264SOL    HW214035   2.745   3.538   5.725  0.2309  0.3614  1.3735
 4265SOL     OW14036   4.875   7.972   7.257  0.3506  0.2458  0.2231
 4265SOL    HW114037   4.937   7.916   7.304  0.4206  1.7853  2.0220
 4265SOL    HW214038   4.929   8.019   7.194  0.6413 -0.0548  0.2426
 4266SOL     OW14039   4.327   7.775   1.328  0.0447 -0.1122  0.2374
 4266SOL    HW114040   4.285   7.762   1.413  0.2048  0.1898  0.3638
 4266SOL    HW214041   4.339   7.686   1.294 -2.1055 -0.1631 -0.5000
 4267SOL     OW14042   1.957   6.670   6.026  0.2167 -0.3003  0.2749
 4267SOL    HW114043   2.020   6.724   5.979  0.3644 -0.0456  0.7616
 4267SOL    HW214044   1.919   6.728   6.092 -2.0753  0.1569 -1.3649
 4268SOL     OW14045   5.108   2.026   4.279  0.2479 -0.5303  0.0179
 4268SOL    HW114046   5.059   1.957   4.234 -0.3889  0.0757 -0.2217
 4268SOL    HW214047   5.194   2.026   4.237  0.1854 -1.0477 -0.1101
 4269SOL     OW14048   6.399   3.949   2.328 -0.7544  0.4121  0.3599
 4269SOL    HW114049   6.428   3.915   2.412 -0.9775 -0.2287  0.1786
 4269SOL    HW214050   6.315   3.905   2.311 -0.8550  0.7550 -0.0532
 4270SOL     OW14051   2.131   3.772   4.712  0.1643  0.1448 -0.0534
 4270SOL    HW114052   2.133   3.813   4.798  0.0176 -0.5592  0.2892
 4270SOL    HW214053   2.076   3.830   4.659 -2.8291 -1.3171  1.3213
 4271SOL     OW14054   4.597   5.739   0.420 -0.2944  0.0471  0.2323
 4271SOL    HW114055   4.623   5.773   0.505 -1.6057 -0.4444  0.8447
 4271SOL    HW214056   4.672   5.687   0.391  1.8528  3.5652 -0.8489
 4272SOL     OW14057   7.754   1.727   3.190 -0.5541 -0.4038 -0.0232
 4272SOL    HW114058   7.766   1.672   3.113 -0.3092  1.2489 -1.2085
 4272SOL    HW214059   7.736   1.814   3.154  0.1212  0.5105  1.7999
 4273SOL     OW14060   1.300   1.151   7.189 -0.2956  0.4438 -0.2542
 4273SOL    HW114061   1.260   1.086   7.246 -3.1228  1.4777 -0.9636
 4273SOL    HW214062   1.353   1.205   7.247 -0.8799 -0.2244  0.9132
 4274SOL     OW14063   4.300   2.945   0.573 -0.3748  0.0887  0.7316
 4274SOL    HW114064   4.377   2.990   0.608 -0.5908 -0.1684  1.5370
 4274SOL    HW214065   4.316   2.852   0.593 -0.5449 -0.0558  0.2257
 4275SOL     OW14066   2.352   5.200   0.050 -0.0855  0.1550  0.2986
 4275SOL    HW114067   2.379   5.232   0.136  0.9259 -1.8690  0.7608
 4275SOL    HW214068   2.363   5.275  -0.008 -1.0973  1.6561  1.9733
 4276SOL     OW14069   6.709   5.738   5.685  0.1361 -0.1322  0.3203
 4276SOL    HW114070   6.740   5.825   5.662  1.1882  0.6402  4.3988
 4276SOL    HW214071   6.789   5.685   5.690 -0.3588 -0.9916 -0.5837
 4277SOL     OW14072   4.120   3.775   2.379 -0.0132 -0.5562 -0.3855
 4277SOL    HW114073   4.176   3.846   2.412  0.4856 -1.9567  1.8392
 4277SOL    HW214074   4.181   3.705   2.356 -0.5544 -0.5015 -2.0357
 4278SOL     OW14075   4.544   2.916   1.808 -1.1065 -0.5008  0.0434
 4278SOL    HW114076   4.598   2.919   1.730 -0.2210 -0.7298  0.6412
 4278SOL    HW214077   4.454   2.924   1.776 -0.6427  1.2786 -0.8270
 4279SOL     OW14078   2.583   6.652   0.694 -0.5089  0.1265  0.0642
 4279SOL    HW114079   2.554   6.729   0.645 -2.6961 -0.1807  0.7845
 4279SOL    HW214080   2.658   6.618   0.645 -1.5901  0.8096 -2.1224
 4280SOL     OW14081   0.819   7.628   0.289 -0.5305 -0.0271 -0.2439
 4280SOL    HW114082   0.782   7.546   0.254  0.5372 -0.1910 -1.0161
 4280SOL    HW214083   0.911   7.624   0.265 -0.6479  1.8159 -1.0525
 4281SOL     OW14084   3.395   4.321   3.901  0.3321 -0.3463  0.3265
 4281SOL    HW114085   3.394   4.269   3.821  0.6365 -0.4539  0.3886
 4281SOL    HW214086   3.321   4.288   3.952  1.9319 -2.3997  1.4000
 4282SOL     OW14087   7.338   2.274   3.336  0.2336 -0.1892  0.4240
 4282SOL    HW114088   7.400   2.292   3.407 -0.6160  0.9572  0.8911
 4282SOL    HW214089   7.262   2.236   3.380 -0.0509 -0.0611  0.0403
 4283SOL     OW14090   6.918   4.112   1.991 -0.2185 -0.1502  0.3855
 4283SOL    HW114091   6.879   4.144   1.910  0.2312  1.3633  0.7476
 4283SOL    HW214092   7.001   4.073   1.964  0.0307  0.5445  0.1179
 4284SOL     OW14093   1.196   3.641   5.646 -0.1078 -0.3088  0.2030
 4284SOL    HW114094   1.288   3.617   5.656  0.1991 -0.1175 -1.8232
 4284SOL    HW214095   1.148   3.563   5.673  0.5950 -0.0840  2.2140
 4285SOL     OW14096   1.045   2.721   3.992 -0.1123  0.0974  0.4748
 4285SOL    HW114097   0.969   2.766   3.955 -0.1907  1.4081  2.1740
 4285SOL    HW214098   1.014   2.632   4.010 -1.3210  0.6855  1.3411
 4286SOL     OW14099   1.216   1.298   0.610  0.4468  0.4784 -0.5904
 4286SOL    HW114100   1.169   1.369   0.567 -0.2297 -0.0162 -0.6673
 4286SOL    HW214101   1.278   1.342   0.668  0.6750  1.1360 -1.3278
 4287SOL     OW14102   7.349   6.446   5.535 -0.0908  0.0286  0.1599
 4287SOL    HW114103   7.303   6.530   5.542  1.3389  0.6756  2.1997
 4287SOL    HW214104   7.425   6.465   5.481  0.9429  0.4042  1.6993
 4288SOL     OW14105   7.608   0.470   5.756  0.2272  0.6549 -0.3133
 4288SOL    HW114106   7.605   0.472   5.852 -0.2287  2.5437 -0.3535
 4288SOL    HW214107   7.693   0.430   5.736 -0.2924 -1.0994  0.8688
 4289SOL     OW14108   5.285   1.682   2.326  0.1079  0.3787  0.9488
 4289SOL    HW114109   5.333   1.762   2.304 -0.0346  0.5734  1.3507
 4289SOL    HW214110   5.345   1.632   2.381  0.5162 -0.1724  0.0143
 4290SOL     OW14111   7.073   5.078   7.002 -0.2922  0.1968  0.0964
 4290SOL    HW114112   7.044   5.157   6.957  1.6902 -0.8579 -3.1862
 4290SOL    HW214113   6.991   5.032   7.024 -1.3682  2.0210  0.0103
 4291SOL     OW14114   0.412   2.372   1.907  0.2547  0.2330 -0.1382
 4291SOL    HW114115   0.485   2.322   1.870 -0.2427 -0.4563 -0.1798
 4291SOL    HW214116   0.454   2.450   1.944  0.8368  0.6389 -1.5982
 4292SOL     OW14117   4.355   4.046   6.758  0.4366  0.2334 -0.0143
 4292SOL    HW114118   4.356   4.044   6.662  2.3972 -2.1004  0.0026
 4292SOL    HW214119   4.297   3.974   6.782 -0.3715  1.0695  0.5748
 4293SOL     OW14120   0.205   0.490   0.019 -0.7220  0.2181  0.2126
 4293SOL    HW114121   0.121   0.478  -0.025 -0.1670  0.7111 -1.0116
 4293SOL    HW214122   0.185   0.545   0.095 -1.1220  2.5344 -1.4930
 4294SOL     OW14123   0.537   4.032   7.160 -0.9353 -0.2396 -0.2548
 4294SOL    HW114124   0.469   4.067   7.103 -0.5158  1.1384  0.0865
 4294SOL    HW214125   0.508   4.053   7.249  0.1333  0.7127 -0.1269
 4295SOL     OW14126   5.413   6.801   5.998 -0.1537  0.6388 -0.2996
 4295SOL    HW114127   5.424   6.731   5.933 -0.3565 -0.6652  1.0336
 4295SOL    HW214128   5.438   6.881   5.952 -0.5569 -0.2206 -2.0613
 4296SOL     OW14129   1.020   7.675   3.552  0.4873 -0.5178  0.1809
 4296SOL    HW114130   0.976   7.600   3.511 -0.2732  0.5816 -1.0553
 4296SOL    HW214131   0.962   7.701   3.623 -0.0127 -0.1628 -0.3489
 4297SOL     OW14132   5.080   2.168   3.196  0.4186  0.0291  0.3370
 4297SOL    HW114133   5.037   2.124   3.269  0.8249  1.0984  1.2423
 4297SOL    HW214134   5.170   2.136   3.198  1.0260  1.7370  1.7251
 4298SOL     OW14135   3.192   4.521   6.753  0.1269  0.5331  0.1464
 4298SOL    HW114136   3.251   4.449   6.729 -1.3780 -0.7265  0.1575
 4298SOL    HW214137   3.158   4.496   6.839  0.5578  1.8937  0.7244
 4299SOL     OW14138   0.612   6.120   5.578 -0.0644  0.1130 -0.2872
 4299SOL    HW114139   0.533   6.090   5.624  0.9349  0.4742  1.7349
 4299SOL    HW214140   0.684   6.092   5.635  1.2906 -0.3957 -2.2196
 4300SOL     OW14141   3.673   4.415   8.280 -0.5490 -0.1788 -0.2939
 4300SOL    HW114142   3.639   4.485   8.336 -1.2677  0.0118 -0.9513
 4300SOL    HW214143   3.602   4.350   8.278 -0.0170 -0.7851  0.0492
 4301SOL     OW14144   3.052   7.389   2.565 -0.3979  0.2868 -0.0934
 4301SOL    HW114145   3.022   7.462   2.511 -0.0048  0.6921  0.2347
 4301SOL    HW214146   3.064   7.317   2.504 -2.0113  0.1233 -0.2451
 4302SOL     OW14147   5.295   5.869   1.446  0.7764 -0.0745 -0.1033
 4302SOL    HW114148   5.358   5.881   1.517  0.5588 -0.7592  0.2119
 4302SOL    HW214149   5.238   5.945   1.451  1.5655  0.5373 -0.3762
 4303SOL     OW14150   4.219   1.320   8.043  0.2232 -0.1182  0.5949
 4303SOL    HW114151   4.166   1.321   8.123 -3.3379  0.0027 -1.6526
 4303SOL    HW214152   4.196   1.402   7.998  1.9340 -0.3324 -0.7353
 4304SOL     OW14153   4.232   5.632   3.833  0.2028 -0.7897 -0.0013
 4304SOL    HW114154   4.216   5.622   3.927  1.5231  0.8926  0.4330
 4304SOL    HW214155   4.328   5.625   3.825  0.1110 -0.6744 -1.1807
 4305SOL     OW14156   1.269   3.765   6.552  0.1506  0.3773 -0.1508
 4305SOL    HW114157   1.199   3.702   6.571 -1.1182  1.3186 -1.6137
 4305SOL    HW214158   1.323   3.721   6.486  0.9977 -0.3842  1.0401
 4306SOL     OW14159   3.343   2.571   2.394  0.1703 -0.6746  0.1703
 4306SOL    HW114160   3.401   2.497   2.373  1.1344  0.4632 -1.2128
 4306SOL    HW214161   3.256   2.532   2.398  0.7256 -1.9743 -0.1076
 4307SOL     OW14162   1.329   3.812   7.661  0.2483  0.2616  0.1004
 4307SOL    HW114163   1.300   3.745   7.723  1.9471  0.0705  0.7288
 4307SOL    HW214164   1.249   3.853   7.630 -0.6842 -0.4055  1.5831
 4308SOL     OW14165   6.780   2.673   1.334  0.1526 -0.1435  0.3018
 4308SOL    HW114166   6.773   2.581   1.309 -0.6247  0.5178 -1.9976
 4308SOL    HW214167   6.857   2.705   1.286 -0.5630  0.8154 -0.2220
 4309SOL     OW14168   0.337   4.941   4.167 -0.0690 -0.6893  0.3335
 4309SOL    HW114169   0.380   5.007   4.111 -1.4288 -0.7718 -0.8512
 4309SOL    HW214170   0.323   4.986   4.250  0.3087  0.0653 -0.0024
 4310SOL     OW14171   5.889   6.953   2.760 -0.7494  0.2556 -0.5784
 4310SOL    HW114172   5.952   6.882   2.773  1.6478  1.7292 -3.5291
 4310SOL    HW214173   5.914   7.019   2.825 -0.1383  0.2322 -0.7852
 4311SOL     OW14174   4.438   8.085   4.278  0.3646 -0.1817  0.6942
 4311SOL    HW114175   4.368   8.055   4.221  0.7557 -1.9412  1.1103
 4311SOL    HW214176   4.433   8.028   4.355  1.0026  0.9590  1.5983
 4312SOL     OW14177   3.404   6.099   6.399  0.3143  0.0494  0.4555
 4312SOL    HW114178   3.345   6.174   6.398 -2.1075 -1.7570 -1.7683
 4312SOL    HW214179   3.384   6.054   6.482 -0.5981  0.1260  0.2897
 4313SOL     OW14180   0.908   4.146   5.677 -0.2781  0.1340  0.5032
 4313SOL    HW114181   0.851   4.216   5.708 -0.5677 -0.3599  1.1027
 4313SOL    HW214182   0.962   4.187   5.609 -0.0245  1.0917  1.2761
 4314SOL     OW14183   4.389   0.938   0.143 -0.3813  0.4146 -0.0180
 4314SOL    HW114184   4.370   0.887   0.221  1.3650 -0.5013 -0.1634
 4314SOL    HW214185   4.431   0.876   0.083 -0.7674  1.3528 -1.2945
 4315SOL     OW14186   6.319   2.798   3.998  0.2334  0.4202  0.1485
 4315SOL    HW114187   6.225   2.789   4.016 -0.2989  1.7058 -1.7071
 4315SOL    HW214188   6.362   2.746   4.064 -1.8450 -0.7324  0.6306
 4316SOL     OW14189   0.618   6.549   0.657 -0.0866  0.2494 -0.3881
 4316SOL    HW114190   0.573   6.573   0.738 -0.7308  0.9936 -0.9637
 4316SOL    HW214191   0.577   6.602   0.589  1.3795  0.6443 -0.9977
 4317SOL     OW14192   3.801   7.376   1.931 -0.4008 -0.0658 -0.0380
 4317SOL    HW114193   3.845   7.303   1.975 -0.1136 -0.2427 -0.6003
 4317SOL    HW214194   3.843   7.454   1.965 -0.2955 -0.1945  0.1267
 4318SOL     OW14195   6.110   3.102   3.792  0.2586  0.0106 -0.0322
 4318SOL    HW114196   6.085   3.192   3.814 -0.6517 -0.0295 -0.8716
 4318SOL    HW214197   6.057   3.080   3.716  1.0677 -0.9637 -0.3261
 4319SOL     OW14198   4.974   6.128   2.336  0.0744 -0.2945  0.8502
 4319SOL    HW114199   5.012   6.095   2.417  2.3956  1.8622  0.6907
 4319SOL    HW214200   5.015   6.213   2.323 -0.0690 -0.7106 -2.7578
 4320SOL     OW14201   0.047   5.750   7.904 -0.9291 -0.2223 -0.0958
 4320SOL    HW114202   0.081   5.713   7.823 -1.6737  0.1792 -0.6011
 4320SOL    HW214203  -0.011   5.683   7.939  0.0278 -0.7291  0.5388
 4321SOL     OW14204   6.538   3.132   7.634  0.0035 -0.2403  0.5359
 4321SOL    HW114205   6.455   3.092   7.658 -0.3153 -0.7473 -1.2948
 4321SOL    HW214206   6.556   3.194   7.704 -3.2459  1.7870 -0.2930
 4322SOL     OW14207   2.148   5.322   7.303 -0.1995 -0.5101  0.2681
 4322SOL    HW114208   2.110   5.402   7.339  1.8862  1.0654 -0.9512
 4322SOL    HW214209   2.100   5.307   7.222  1.5049  1.3378 -1.1381
 4323SOL     OW14210   6.160   0.563   3.959 -0.3059 -0.5466 -0.1709
 4323SOL    HW114211   6.131   0.593   4.046  0.5171 -0.3722  0.0447
 4323SOL    HW214212   6.099   0.606   3.898  1.1549  2.0048  0.0981
 4324SOL     OW14213   5.268   0.505   3.622  0.1071  0.1682 -0.6101
 4324SOL    HW114214   5.307   0.587   3.592  0.8727 -0.4369 -1.3003
 4324SOL    HW214215   5.201   0.485   3.556  1.1191 -0.6564 -1.4043
 4325SOL     OW14216   5.686   2.309   7.461 -0.1847 -0.3050  0.1673
 4325SOL    HW114217   5.689   2.401   7.487 -2.8770  0.1766 -1.0566
 4325SOL    HW214218   5.661   2.310   7.369  0.7369 -2.2403 -0.1264
 4326SOL     OW14219   1.208   4.153   1.358 -0.1276  0.0132 -0.1128
 4326SOL    HW114220   1.250   4.184   1.438 -1.4709 -3.6099  2.1413
 4326SOL    HW214221   1.266   4.084   1.326 -1.1044 -0.6265 -0.5416
 4327SOL     OW14222   0.173   1.306   1.020  0.0186  0.5910  0.4759
 4327SOL    HW114223   0.109   1.377   1.011 -0.9396 -0.3006  0.2431
 4327SOL    HW214224   0.254   1.351   1.043 -0.5777  1.7730  0.3347
 4328SOL     OW14225   6.274   3.678   0.498  0.3689 -0.0235 -0.3093
 4328SOL    HW114226   6.367   3.695   0.513  0.0122 -0.3085  2.3897
 4328SOL    HW214227   6.268   3.583   0.487  0.2239 -0.1664  0.9491
 4329SOL     OW14228   2.548   2.288   7.837 -0.8331  0.3001  0.1373
 4329SOL    HW114229   2.470   2.245   7.802 -0.4402  0.2443 -0.6677
 4329SOL    HW214230   2.621   2.250   7.787 -0.3053  0.4708  0.7751
 4330SOL     OW14231   5.052   1.585   3.294 -0.0027 -0.3630 -0.5401
 4330SOL    HW114232   5.037   1.639   3.371 -0.1798  0.9876 -1.5169
 4330SOL    HW214233   4.973   1.531   3.286  0.5791 -1.4627  0.9838
 4331SOL     OW14234   1.958   0.598   5.052 -0.0687  0.1158  0.2965
 4331SOL    HW114235   1.997   0.570   5.135 -2.0016 -0.1104  1.1504
 4331SOL    HW214236   1.938   0.691   5.066  4.2952  1.5310 -1.7599
 4332SOL     OW14237   2.368   1.041   2.539  0.5936 -0.4033 -0.2411
 4332SOL    HW114238   2.288   1.012   2.583  1.5866 -0.5265  1.5652
 4332SOL    HW214239   2.344   1.123   2.496 -0.5750 -0.5837  0.0550
 4333SOL     OW14240   2.994   4.150   2.365 -0.5512  0.2218  0.7806
 4333SOL    HW114241   2.941   4.160   2.286  0.1736  0.3792  0.3120
 4333SOL    HW214242   2.930   4.135   2.435 -1.1563 -0.8262  0.0221
 4334SOL     OW14243   3.561   5.588   6.282 -0.1033  0.2464  0.1474
 4334SOL    HW114244   3.475   5.625   6.261 -0.4902 -1.1369 -0.7448
 4334SOL    HW214245   3.621   5.635   6.223 -0.5222 -0.1699 -0.6232
 4335SOL     OW14246   6.735   0.401   0.010  0.1165 -0.4495  0.4725
 4335SOL    HW114247   6.810   0.416  -0.047 -0.6058  1.6027  0.0339
 4335SOL    HW214248   6.773   0.365   0.091  1.4078 -0.7186 -0.2407
 4336SOL     OW14249   2.788   5.023   5.812 -0.0065 -0.0914  0.1930
 4336SOL    HW114250   2.764   4.941   5.771 -1.4201 -0.4975  1.7750
 4336SOL    HW214251   2.864   5.002   5.867 -0.1446 -0.2532  0.3191
 4337SOL     OW14252   2.458   0.142   6.942  0.4831 -0.3723  0.5784
 4337SOL    HW114253   2.424   0.103   6.862 -0.3426 -0.4273  0.9555
 4337SOL    HW214254   2.407   0.222   6.953  1.1756  0.0751  0.5966
 4338SOL     OW14255   2.830   2.800   7.999  0.2023  0.1069  0.3963
 4338SOL    HW114256   2.820   2.714   7.957 -0.4568 -0.4315  1.6184
 4338SOL    HW214257   2.839   2.861   7.926  0.6956 -1.0026 -0.4912
 4339SOL     OW14258   3.837   7.063   3.007 -0.0702  0.6622 -0.5465
 4339SOL    HW114259   3.866   6.990   2.952 -0.4928 -0.1773  0.3524
 4339SOL    HW214260   3.902   7.069   3.077 -1.5331 -0.6387  0.9560
 4340SOL     OW14261   4.475   6.582   4.423 -0.4576 -0.2104 -0.0276
 4340SOL    HW114262   4.509   6.504   4.466  0.3419  0.4746  0.5956
 4340SOL    HW214263   4.429   6.630   4.492  0.5432  0.7250 -0.0042
 4341SOL     OW14264   6.108   3.245   7.331 -0.1303 -0.0423  0.7574
 4341SOL    HW114265   6.144   3.157   7.323  2.4289  1.1030 -0.6943
 4341SOL    HW214266   6.173   3.294   7.380 -1.1454  1.2720  0.8233
 4342SOL     OW14267   7.396   4.979   4.042  0.5268  0.2586  0.2406
 4342SOL    HW114268   7.301   4.984   4.056  0.8083 -1.8196  3.4813
 4342SOL    HW214269   7.429   5.063   4.073 -0.0347 -0.0724  1.8259
 4343SOL     OW14270   5.690   2.486   1.816  0.5716 -0.3003 -0.0688
 4343SOL    HW114271   5.707   2.553   1.882  1.6156 -1.0320  0.4314
 4343SOL    HW214272   5.769   2.485   1.763  0.5441 -1.0896 -0.1020
 4344SOL     OW14273   7.265   5.174   0.858  0.4028 -0.6157 -0.3891
 4344SOL    HW114274   7.193   5.188   0.919  0.1250 -1.5521 -0.4927
 4344SOL    HW214275   7.287   5.082   0.867  1.1847 -0.4795 -0.8054
 4345SOL     OW14276   4.503   7.298   6.729 -0.1363 -0.8180 -0.0310
 4345SOL    HW114277   4.568   7.347   6.679  0.7669 -1.9721 -0.0193
 4345SOL    HW214278   4.482   7.354   6.804  0.0454  0.0224 -0.6010
 4346SOL     OW14279   3.163   6.619   7.004 -0.0711 -0.3579  0.1061
 4346SOL    HW114280   3.111   6.539   7.012  0.6463 -0.9688 -1.1802
 4346SOL    HW214281   3.243   6.601   7.053  0.1461 -0.4725 -0.2928
 4347SOL     OW14282   2.617   7.424   4.437 -0.7566 -0.6664 -0.0839
 4347SOL    HW114283   2.646   7.429   4.346  2.4141  0.9688  0.9306
 4347SOL    HW214284   2.567   7.504   4.451 -0.0082 -0.1951 -0.0351
 4348SOL     OW14285   1.134   7.382   2.737  0.6826  0.1376 -0.0414
 4348SOL    HW114286   1.044   7.354   2.723  0.0578  1.7273  0.7414
 4348SOL    HW214287   1.169   7.394   2.648 -0.2559  0.6768 -0.3486
 4349SOL     OW14288   0.534   0.731   0.766  0.3953  0.5688  0.2100
 4349SOL    HW114289   0.546   0.675   0.690 -0.1874 -0.5624  0.9288
 4349SOL    HW214290   0.472   0.798   0.737 -1.2501 -0.9211  0.2151
 4350SOL     OW14291   2.766   4.449   2.454  0.0155  0.1045 -0.2878
 4350SOL    HW114292   2.778   4.366   2.501 -1.1633 -0.2990 -0.6718
 4350SOL    HW214293   2.679   4.441   2.415  0.5067  0.9265 -1.5562
 4351SOL     OW14294   3.039   5.327   1.860 -0.1500 -0.4924 -0.1315
 4351SOL    HW114295   3.024   5.421   1.863 -0.0692 -0.5113  1.1726
 4351SOL    HW214296   2.962   5.288   1.901 -0.0795 -0.9809 -0.4532
 4352SOL     OW14297   4.837   0.126   7.472  0.3698  0.0774  0.3484
 4352SOL    HW114298   4.812   0.179   7.548  0.1454  0.5140 -0.0267
 4352SOL    HW214299   4.869   0.044   7.510  0.9687  0.5732  0.9482
 4353SOL     OW14300   7.934   3.545   2.364  0.1287 -0.2477 -0.2474
 4353SOL    HW114301   7.839   3.550   2.361  0.1233 -0.6037 -0.8142
 4353SOL    HW214302   7.959   3.509   2.278  0.6435 -2.3259  0.7477
 4354SOL     OW14303   6.759   4.825   3.262  0.6114 -0.2571 -0.3852
 4354SOL    HW114304   6.732   4.833   3.170  1.6056  1.3637 -0.5400
 4354SOL    HW214305   6.730   4.906   3.303 -0.5586 -1.3144  0.9521
 4355SOL     OW14306   7.312   2.151   7.075 -0.4729 -0.1063 -0.3259
 4355SOL    HW114307   7.402   2.172   7.054 -0.5813  0.2956 -0.3930
 4355SOL    HW214308   7.318   2.095   7.153 -0.2158  0.7797  0.3016
 4356SOL     OW14309   8.271   2.251   1.467 -0.7367 -0.1839  0.2024
 4356SOL    HW114310   8.359   2.281   1.489 -0.6548 -1.0176  1.0254
 4356SOL    HW214311   8.283   2.160   1.439 -1.2550 -0.1005 -0.2924
 4357SOL     OW14312   8.269   0.581   5.683  0.7250 -0.1405 -0.1078
 4357SOL    HW114313   8.331   0.529   5.735  0.4619 -1.5711 -1.2040
 4357SOL    HW214314   8.193   0.592   5.741  1.7322  1.0798  1.0076
 4358SOL     OW14315   3.118   6.864   1.038  0.3021 -0.0985  0.4140
 4358SOL    HW114316   3.198   6.827   1.075 -0.3157 -1.0163  0.8612
 4358SOL    HW214317   3.103   6.813   0.958  0.3455  0.3069  0.1434
 4359SOL     OW14318   3.439   5.672   5.172 -0.1510  0.3425 -0.1475
 4359SOL    HW114319   3.389   5.672   5.091 -0.9179 -2.1578  0.2766
 4359SOL    HW214320   3.518   5.621   5.152 -1.0595 -1.6019  1.0460
 4360SOL     OW14321   6.019   4.975   6.614 -0.9510 -0.2287  0.1447
 4360SOL    HW114322   5.982   4.887   6.623  0.2957 -0.8112 -0.3320
 4360SOL    HW214323   6.110   4.966   6.642 -0.6173  0.7628 -0.5930
 4361SOL     OW14324   5.648   1.486   3.535 -0.0537  0.2989  0.1667
 4361SOL    HW114325   5.728   1.476   3.483 -0.5776 -1.3171 -0.3509
 4361SOL    HW214326   5.603   1.560   3.495  0.1932 -0.0870 -0.8427
 4362SOL     OW14327   4.398   2.807   5.453 -0.0870  0.2667  0.2967
 4362SOL    HW114328   4.429   2.808   5.362 -2.3444 -1.3043 -0.5258
 4362SOL    HW214329   4.368   2.896   5.470  0.4194  0.5832 -0.4426
 4363SOL     OW14330   3.439   1.462   4.852 -0.1717  0.5990 -0.1145
 4363SOL    HW114331   3.410   1.528   4.915 -0.9637  0.5505 -0.4200
 4363SOL    HW214332   3.362   1.407   4.839 -0.3103  1.1755 -1.8593
 4364SOL     OW14333   3.975   5.883   3.988  0.4911 -0.1220  0.5856
 4364SOL    HW114334   3.980   5.976   3.963 -1.1186  0.0590  0.8967
 4364SOL    HW214335   4.002   5.836   3.909 -1.3682  0.5456 -0.4900
 4365SOL     OW14336   3.229   1.403   3.328  0.5429  0.0223  0.1860
 4365SOL    HW114337   3.257   1.345   3.257 -0.1245  0.3871 -0.3804
 4365SOL    HW214338   3.149   1.363   3.360  0.4642  0.2448  0.2634
 4366SOL     OW14339   5.957   7.502   6.814 -0.2656 -0.1981  0.2852
 4366SOL    HW114340   5.978   7.541   6.899  0.0566  0.2475  0.0055
 4366SOL    HW214341   5.892   7.561   6.776  0.5960  0.3565 -0.3564
 4367SOL     OW14342   8.165   2.398   7.780  0.0578 -0.3293  0.0032
 4367SOL    HW114343   8.094   2.438   7.830 -0.7489 -0.5422 -0.9440
 4367SOL    HW214344   8.243   2.449   7.804 -0.2148 -0.7683  1.8325
 4368SOL     OW14345   6.084   2.390   0.101 -0.1962  0.0636  0.1724
 4368SOL    HW114346   6.132   2.443   0.038  1.8652 -0.6726  1.0456
 4368SOL    HW214347   5.996   2.382   0.066  0.7428  0.2283 -2.2688
 4369SOL     OW14348   0.047   4.383   4.323 -0.2708  0.6683 -0.3611
 4369SOL    HW114349   0.065   4.309   4.380  0.9109  2.1338  1.2041
 4369SOL    HW214350  -0.009   4.347   4.254 -1.4552 -1.1989  1.5210
 4370SOL     OW14351   5.333   0.277   4.124  0.2569 -0.5202 -0.2280
 4370SOL    HW114352   5.422   0.309   4.138 -0.2770  0.7161  0.4500
 4370SOL    HW214353   5.309   0.309   4.037  0.5458 -1.0475 -0.5059
 4371SOL     OW14354   1.006   0.008   6.172 -0.1178 -0.1152 -0.8159
 4371SOL    HW114355   1.083   0.029   6.226 -0.5024  0.6974 -0.5844
 4371SOL    HW214356   1.003   0.078   6.107  0.7926 -1.4910 -2.3911
 4372SOL     OW14357   0.830   2.331   3.661 -0.2654  0.5246 -0.3111
 4372SOL    HW114358   0.760   2.270   3.640 -0.4960  0.0293  1.7217
 4372SOL    HW214359   0.793   2.388   3.729  1.0729  0.6676  0.3274
 4373SOL     OW14360   7.460   6.087   5.469  0.1158  0.2948 -0.1347
 4373SOL    HW114361   7.380   6.111   5.422 -0.7903 -1.8098  0.2489
 4373SOL    HW214362   7.438   6.005   5.514  1.4051  1.4627  2.7971
 4374SOL     OW14363   4.972   4.613   6.000 -0.7224  0.5594  0.0848
 4374SOL    HW114364   5.014   4.536   6.038 -1.2337  0.0219 -0.4267
 4374SOL    HW214365   5.033   4.643   5.933  0.0528  1.3445  1.1243
 4375SOL     OW14366   8.220   4.866   7.553  0.7060  0.2588  0.1877
 4375SOL    HW114367   8.153   4.825   7.499  1.1113 -1.5116  0.9886
 4375SOL    HW214368   8.303   4.845   7.510  0.7705  2.5913 -0.8989
 4376SOL     OW14369   6.574   1.575   3.418  0.4365  0.3269  0.4028
 4376SOL    HW114370   6.601   1.539   3.333 -0.4699 -0.5501  0.4670
 4376SOL    HW214371   6.496   1.524   3.441  0.9375  0.2441  1.9825
 4377SOL     OW14372   4.016   4.832   6.496 -0.3829 -0.0778 -0.0904
 4377SOL    HW114373   3.972   4.774   6.558 -0.3437  0.5276  0.5160
 4377SOL    HW214374   3.984   4.804   6.410 -0.7038 -0.6997  0.2265
 4378SOL     OW14375   5.066   7.712   1.439  0.0175  0.4798 -0.6822
 4378SOL    HW114376   5.035   7.661   1.513  0.9474  2.2249  0.9622
 4378SOL    HW214377   5.029   7.669   1.362 -0.0696 -2.0026  0.7067
 4379SOL     OW14378   3.031   0.296   0.214  0.3413  0.1170 -0.7139
 4379SOL    HW114379   3.068   0.239   0.282  0.0084 -0.0418 -0.6612
 4379SOL    HW214380   2.953   0.333   0.255  0.2350  0.1563 -0.9514
 4380SOL     OW14381   6.662   0.578   5.200  0.2509  0.0144 -0.2763
 4380SOL    HW114382   6.568   0.561   5.204  0.4171 -0.8356  0.2077
 4380SOL    HW214383   6.682   0.584   5.107 -0.6576  2.4239 -0.3599
 4381SOL     OW14384   6.861   4.145   6.101  0.4422  0.7800  0.1564
 4381SOL    HW114385   6.809   4.169   6.178 -1.7942  1.0185 -1.3854
 4381SOL    HW214386   6.836   4.054   6.083 -0.1176  1.1789 -1.1114
 4382SOL     OW14387   4.203   1.545   5.491 -0.0714  0.3721  0.3038
 4382SOL    HW114388   4.293   1.513   5.484  0.3043  1.1410  1.5848
 4382SOL    HW214389   4.162   1.518   5.408  1.3698  0.1528 -0.3594
 4383SOL     OW14390   5.456   3.887   1.815 -0.3385 -0.3618 -0.2451
 4383SOL    HW114391   5.438   3.957   1.751  1.5459  0.4789  0.0883
 4383SOL    HW214392   5.458   3.932   1.899  0.3662 -0.8957  0.0301
 4384SOL     OW14393   8.021   5.756   4.327 -0.5813  0.5372 -0.2674
 4384SOL    HW114394   8.091   5.705   4.368 -0.6971  1.4788  1.1363
 4384SOL    HW214395   8.065   5.811   4.262 -0.1003  0.7012  0.2023
 4385SOL     OW14396   7.015   3.369   0.782  0.1460 -0.8927 -0.1605
 4385SOL    HW114397   7.027   3.462   0.764 -0.5940 -0.8318 -0.3398
 4385SOL    HW214398   6.922   3.359   0.800 -0.2229 -1.9899 -2.4757
 4386SOL     OW14399   2.927   3.942   5.712 -0.0772 -0.7571 -0.0451
 4386SOL    HW114400   2.853   3.956   5.654  0.3762 -2.4682 -1.0565
 4386SOL    HW214401   3.003   3.935   5.654  0.7759  0.2471  0.9310
 4387SOL     OW14402   0.366   5.972   2.439  0.1116 -0.3109 -0.1985
 4387SOL    HW114403   0.406   5.892   2.407 -1.9160 -1.2329 -0.5144
 4387SOL    HW214404   0.277   5.946   2.464 -1.4202  2.3302 -2.6468
 4388SOL     OW14405   6.522   2.716   8.233  0.1321 -0.7010 -0.5427
 4388SOL    HW114406   6.547   2.676   8.316  1.1466 -0.8703 -0.9251
 4388SOL    HW214407   6.604   2.723   8.184 -0.3938 -0.2150 -1.3615
 4389SOL     OW14408   5.380   6.093   5.874 -0.1056  0.4448 -0.4391
 4389SOL    HW114409   5.285   6.102   5.862 -0.1649  0.9332  0.3614
 4389SOL    HW214410   5.411   6.052   5.793 -0.8084  1.5403 -1.2780
 4390SOL     OW14411   3.541   2.501   5.504  0.0612  0.1073  0.0216
 4390SOL    HW114412   3.513   2.584   5.541 -0.9192 -0.0374 -0.3756
 4390SOL    HW214413   3.633   2.514   5.481 -0.0763  1.0674  0.0061
 4391SOL     OW14414   0.792   5.887   5.133  0.3818 -0.1908 -0.4149
 4391SOL    HW114415   0.737   5.809   5.139  0.5065 -0.2483  0.0012
 4391SOL    HW214416   0.858   5.865   5.068 -0.1703 -0.0681 -1.0250
 4392SOL     OW14417   7.611   5.036   3.415  0.7576  0.6842 -0.0638
 4392SOL    HW114418   7.672   5.066   3.482  0.3350 -0.7736  0.9873
 4392SOL    HW214419   7.530   5.083   3.435  1.4048  2.3211 -1.2231
 4393SOL     OW14420   7.595   6.065   6.299  0.0588  0.1992  0.2022
 4393SOL    HW114421   7.657   6.006   6.257 -0.2484 -1.9377  2.6567
 4393SOL    HW214422   7.509   6.034   6.270 -0.0252  0.6392 -0.0191
 4394SOL     OW14423   5.145   5.645   5.254  0.0425  0.3081  0.8205
 4394SOL    HW114424   5.113   5.685   5.334 -1.7114  0.2252  0.1723
 4394SOL    HW214425   5.192   5.715   5.209 -0.1437  0.7207  1.2647
 4395SOL     OW14426   1.731   4.035   7.897 -0.4781 -1.1298 -0.7365
 4395SOL    HW114427   1.644   4.026   7.859 -0.7726  2.4854 -1.0938
 4395SOL    HW214428   1.718   4.024   7.991 -1.1802 -1.4335 -0.8715
 4396SOL     OW14429   7.393   2.740   5.543 -0.4970 -0.7651  0.0126
 4396SOL    HW114430   7.399   2.820   5.490 -3.2693 -1.1501 -0.9653
 4396SOL    HW214431   7.480   2.730   5.581  0.6655  1.2598 -1.9842
 4397SOL     OW14432   4.182   5.238   5.594 -0.4543 -0.1931  0.1031
 4397SOL    HW114433   4.272   5.267   5.607 -0.0473 -1.2687 -0.2552
 4397SOL    HW214434   4.140   5.250   5.679 -0.4062  1.7730 -0.1303
 4398SOL     OW14435   2.214   2.999   2.139 -0.1450  0.3936 -0.4506
 4398SOL    HW114436   2.195   3.029   2.228 -0.7473  0.5449 -0.6304
 4398SOL    HW214437   2.185   3.070   2.083 -0.0501  0.1667 -0.7870
 4399SOL     OW14438   7.545   3.470   1.414  0.0513 -0.5964  0.2293
 4399SOL    HW114439   7.577   3.557   1.434  2.7013 -1.0815 -1.6693
 4399SOL    HW214440   7.614   3.430   1.361 -1.1280 -3.8252  1.0019
 4400SOL     OW14441   3.206   5.637   5.734  0.0990 -0.0649 -0.6938
 4400SOL    HW114442   3.280   5.577   5.719 -0.6545 -1.5489  1.3104
 4400SOL    HW214443   3.134   5.598   5.684 -0.2836 -0.6353  0.2869
 4401SOL     OW14444   6.030   1.564   0.392 -0.4445  0.2087  0.1618
 4401SOL    HW114445   5.982   1.541   0.313  1.6888 -0.3872 -1.0096
 4401SOL    HW214446   6.030   1.484   0.445  0.0721 -0.0768 -0.2682
 4402SOL     OW14447   0.618   3.908   5.396 -0.1055 -0.6986  0.2065
 4402SOL    HW114448   0.627   3.988   5.448 -0.8369 -0.8246  0.5346
 4402SOL    HW214449   0.708   3.880   5.380  0.1905  0.6894 -0.6935
 4403SOL     OW14450   7.995   4.109   2.084 -0.3503  0.3276 -0.4388
 4403SOL    HW114451   7.938   4.078   2.155 -1.1942 -0.7928 -1.5908
 4403SOL    HW214452   7.993   4.039   2.019  1.3932  0.8203 -1.0417
 4404SOL     OW14453   0.244   4.228   4.010 -0.2440  0.0843 -0.0935
 4404SOL    HW114454   0.198   4.238   3.927  1.0562 -0.0937 -0.8603
 4404SOL    HW214455   0.251   4.133   4.022  0.5053  0.0984 -0.3408
 4405SOL     OW14456   8.143   5.058   3.858  0.6894 -0.1768 -0.0197
 4405SOL    HW114457   8.110   5.068   3.768 -1.2363 -0.1569  0.6688
 4405SOL    HW214458   8.108   5.134   3.905  0.1746 -1.1375  1.1702
 4406SOL     OW14459   0.386   4.397   0.654  0.0242 -0.7112  0.1931
 4406SOL    HW114460   0.462   4.455   0.646 -0.9037  0.4245 -0.7386
 4406SOL    HW214461   0.365   4.399   0.747  0.6413 -0.3738  0.3334
 4407SOL     OW14462   7.445   1.677   5.874 -0.1763 -0.4357  0.0899
 4407SOL    HW114463   7.469   1.587   5.853 -1.4015 -0.9607  0.8708
 4407SOL    HW214464   7.508   1.731   5.826  0.2684 -1.6949 -0.7657
 4408SOL     OW14465   0.323   1.766   7.501 -0.6446 -0.5164 -0.1719
 4408SOL    HW114466   0.317   1.677   7.537  1.2838 -0.6666 -0.1700
 4408SOL    HW214467   0.371   1.815   7.568 -0.6442  0.2237 -0.7104
 4409SOL     OW14468   2.785   5.051   1.403 -0.4691  0.1424 -0.0043
 4409SOL    HW114469   2.823   5.008   1.479 -0.4503  0.3407  0.0980
 4409SOL    HW214470   2.726   5.117   1.439 -0.7437 -0.0157 -0.1622
 4410SOL     OW14471   7.721   2.964   2.679 -0.3649 -0.1697  0.3033
 4410SOL    HW114472   7.662   3.016   2.734 -2.1125 -2.9252  1.1493
 4410SOL    HW214473   7.665   2.898   2.639  1.8062 -1.5389 -0.5725
 4411SOL     OW14474   4.334   1.352   4.378  0.5639  0.3849 -0.2851
 4411SOL    HW114475   4.246   1.374   4.408  0.7042  0.6867 -0.0916
 4411SOL    HW214476   4.329   1.357   4.282  0.2260 -0.1565 -0.2960
 4412SOL     OW14477   5.674   0.876   0.005 -0.2782  0.4195 -0.3241
 4412SOL    HW114478   5.676   0.972   0.012 -0.6515  0.5080 -1.2691
 4412SOL    HW214479   5.703   0.859  -0.085  0.9335 -0.4187  0.2136
 4413SOL     OW14480   5.071   2.826   7.511 -0.3579  0.0995  0.4332
 4413SOL    HW114481   4.986   2.782   7.504 -0.7586  1.0594 -1.1202
 4413SOL    HW214482   5.130   2.772   7.458 -0.9252  1.5462 -1.7522
 4414SOL     OW14483   4.404   7.267   5.373 -0.7198  1.0947  0.2450
 4414SOL    HW114484   4.371   7.290   5.286 -0.5384  2.4563  0.5222
 4414SOL    HW214485   4.395   7.172   5.378  0.7966  0.8024 -1.9023
 4415SOL     OW14486   7.082   6.124   7.218  0.0406  0.1920 -0.5344
 4415SOL    HW114487   7.166   6.159   7.187 -0.2710  1.2961 -0.1805
 4415SOL    HW214488   7.101   6.090   7.305  0.6093 -1.6427 -1.3510
 4416SOL     OW14489   1.651   3.602   6.264  0.2449 -0.2733 -0.2114
 4416SOL    HW114490   1.576   3.545   6.283 -0.6700  1.1165  0.4679
 4416SOL    HW214491   1.626   3.649   6.185  0.1513  0.6011  0.3328
 4417SOL     OW14492   7.638   2.006   7.972 -0.3290  0.0084 -0.2204
 4417SOL    HW114493   7.716   1.951   7.968 -0.3444 -0.0175 -0.1529
 4417SOL    HW214494   7.565   1.943   7.979 -0.4443 -0.0169 -1.4907
 4418SOL     OW14495   8.141   4.606   0.781  0.1460  0.0413 -0.4129
 4418SOL    HW114496   8.081   4.532   0.777  1.0899 -0.8136  0.9293
 4418SOL    HW214497   8.087   4.679   0.813 -0.0445 -0.8877  1.4586
 4419SOL     OW14498   4.142   1.361   7.372 -0.1015  0.1594 -0.1982
 4419SOL    HW114499   4.048   1.377   7.367 -0.1688 -0.2495 -0.2677
 4419SOL    HW214500   4.150   1.266   7.386  0.2391  0.5226  2.1747
 4420SOL     OW14501   7.516   1.244   2.675 -0.3958 -0.2136 -0.1141
 4420SOL    HW114502   7.503   1.323   2.622  0.8106  1.8880  2.5919
 4420SOL    HW214503   7.429   1.204   2.680 -1.8419  2.8716  1.3000
 4421SOL     OW14504   7.587   2.629   7.049 -0.0726  0.5157  0.4939
 4421SOL    HW114505   7.676   2.658   7.066 -0.0297  0.0581  1.0753
 4421SOL    HW214506   7.542   2.638   7.133 -0.4831  0.4444  0.2836
 4422SOL     OW14507   3.270   5.777   5.347  1.0732 -0.1090  0.0722
 4422SOL    HW114508   3.195   5.727   5.316 -0.1781  1.8076 -0.0160
 4422SOL    HW214509   3.345   5.739   5.300 -0.3458  0.5553 -2.8533
 4423SOL     OW14510   0.897   6.677   2.440 -0.0991 -0.2909  0.1933
 4423SOL    HW114511   0.905   6.707   2.530  0.2227 -0.2597  0.1543
 4423SOL    HW214512   0.982   6.698   2.400 -0.1036 -0.6540 -0.0084
 4424SOL     OW14513   6.349   4.646   2.271  0.7891 -0.5340 -0.0514
 4424SOL    HW114514   6.385   4.713   2.213 -1.7266  0.8994 -0.0122
 4424SOL    HW214515   6.362   4.564   2.224 -0.6754  0.5282 -2.3835
 4425SOL     OW14516   4.108   2.979   5.755  0.1934 -0.1759  1.2080
 4425SOL    HW114517   4.179   2.922   5.785  2.6288  1.5085 -1.2440
 4425SOL    HW214518   4.056   2.923   5.697  2.1122 -0.2066 -0.5437
 4426SOL     OW14519   3.836   3.817   0.613 -0.3766 -0.0310  0.0629
 4426SOL    HW114520   3.769   3.829   0.546  1.3097  0.0600 -1.6482
 4426SOL    HW214521   3.912   3.786   0.565  1.2732  1.2927  1.7562
 4427SOL     OW14522   5.440   1.389   6.087 -0.1922  0.8707  0.3881
 4427SOL    HW114523   5.498   1.410   6.013 -0.8263  2.7316  0.3842
 4427SOL    HW214524   5.494   1.337   6.146  0.7130  0.4341 -0.7995
 4428SOL     OW14525   2.224   4.308   1.347  0.0666 -0.5919 -0.4974
 4428SOL    HW114526   2.303   4.255   1.361  0.0292 -0.5460 -0.1000
 4428SOL    HW214527   2.166   4.253   1.295 -0.0082 -0.9791 -0.0128
 4429SOL     OW14528   5.915   3.685   3.604 -0.6123  0.4583 -0.0967
 4429SOL    HW114529   5.896   3.769   3.563  0.9352  1.8509  1.8983
 4429SOL    HW214530   5.993   3.654   3.559 -2.2137 -0.7974 -2.0452
 4430SOL     OW14531   2.666   4.206   3.919 -0.2138  0.1882 -0.0446
 4430SOL    HW114532   2.574   4.221   3.941 -0.1761  1.3005 -0.5926
 4430SOL    HW214533   2.710   4.201   4.004 -0.5848  1.0001  0.2039
 4431SOL     OW14534   7.421   6.901   6.233 -0.2688 -0.2727  0.2606
 4431SOL    HW114535   7.330   6.900   6.202  0.2103 -2.1603 -1.1368
 4431SOL    HW214536   7.433   6.816   6.275  1.6062 -1.1221 -1.8888
 4432SOL     OW14537   4.863   8.007   0.963  0.4526  0.2559  0.5405
 4432SOL    HW114538   4.775   7.972   0.975  0.2919  0.9651  1.4914
 4432SOL    HW214539   4.897   8.019   1.052  1.7718 -0.6453  0.1747
 4433SOL     OW14540   7.248   5.537   6.527  0.1756  0.0362 -0.2642
 4433SOL    HW114541   7.226   5.448   6.498  1.8829  0.0649 -1.7612
 4433SOL    HW214542   7.164   5.577   6.547 -0.7283 -1.4694 -0.9235
 4434SOL     OW14543   6.673   5.579   2.243 -0.6304  0.2589 -0.3631
 4434SOL    HW114544   6.595   5.528   2.222  0.5445 -1.5087 -0.5210
 4434SOL    HW214545   6.664   5.659   2.191 -2.5416  0.2985 -0.0301
 4435SOL     OW14546   2.403   8.180   1.268  0.5941 -0.6943 -0.0586
 4435SOL    HW114547   2.443   8.099   1.236 -2.2211 -1.7650 -1.0288
 4435SOL    HW214548   2.335   8.151   1.329  0.4728  1.0038  0.6454
 4436SOL     OW14549   5.903   4.248   3.073 -0.4606 -0.0676 -0.1792
 4436SOL    HW114550   5.873   4.166   3.034 -0.1071  0.3084 -1.2543
 4436SOL    HW214551   5.826   4.283   3.117 -0.5969 -1.0057  0.3401
 4437SOL     OW14552   3.847   2.893   5.615  0.2516 -0.4951  0.5928
 4437SOL    HW114553   3.829   2.968   5.559 -0.5451 -1.6260 -0.7185
 4437SOL    HW214554   3.811   2.916   5.700 -1.6537 -0.1178 -0.2890
 4438SOL     OW14555   0.066   5.891   1.752 -0.5706  0.3658  0.1832
 4438SOL    HW114556   0.138   5.905   1.691 -1.6819  0.1830 -1.1898
 4438SOL    HW214557  -0.013   5.909   1.701 -1.5825 -1.2020  1.1535
 4439SOL     OW14558   4.247   3.046   5.477  0.0187 -0.2691 -0.3793
 4439SOL    HW114559   4.198   3.007   5.550  1.2979 -1.2365 -0.0023
 4439SOL    HW214560   4.199   3.125   5.455  0.8005  1.2285  2.9958
 4440SOL     OW14561   6.924   6.022   5.672 -0.1168  0.8881 -0.1764
 4440SOL    HW114562   6.880   5.991   5.593 -3.0017 -0.4838  1.8834
 4440SOL    HW214563   6.986   5.953   5.694 -0.7093  0.3697 -0.1391
 4441SOL     OW14564   0.531   5.030   2.270 -0.3324 -0.0744 -0.2908
 4441SOL    HW114565   0.439   5.003   2.272 -0.3018 -0.2878 -1.3161
 4441SOL    HW214566   0.580   4.950   2.290 -0.3478 -0.1343 -0.4865
 4442SOL     OW14567   6.114   0.284   7.896 -0.4415  0.1678 -0.3456
 4442SOL    HW114568   6.060   0.265   7.973 -2.7654  0.6695 -1.7717
 4442SOL    HW214569   6.130   0.199   7.856 -0.8944  0.0918 -0.3667
 4443SOL     OW14570   5.037   1.817   3.774  0.4205 -0.2003 -0.2011
 4443SOL    HW114571   4.982   1.750   3.816 -0.4921 -0.5601 -1.8988
 4443SOL    HW214572   5.084   1.769   3.705  0.5754  0.6918 -0.7221
 4444SOL     OW14573   7.053   0.927   3.004 -0.0257  0.5145  0.1061
 4444SOL    HW114574   7.094   0.853   3.049  0.1452 -0.4732 -1.6336
 4444SOL    HW214575   7.102   0.937   2.923 -2.0287  0.4787 -1.1595
 4445SOL     OW14576   3.153   3.408   2.936  0.2166 -0.2868  0.6333
 4445SOL    HW114577   3.221   3.475   2.938  0.9822 -1.0623  1.1840
 4445SOL    HW214578   3.128   3.395   3.027 -2.2734  1.5586  0.2704
 4446SOL     OW14579   3.277   1.235   2.107 -0.2682 -0.0226  0.0140
 4446SOL    HW114580   3.357   1.244   2.055 -1.0890 -2.8516 -1.8377
 4446SOL    HW214581   3.308   1.219   2.197  1.1996  1.1388 -0.2706
 4447SOL     OW14582   2.863   6.238   8.138  0.5858 -0.2913 -0.2689
 4447SOL    HW114583   2.817   6.195   8.210  1.2226 -0.5751 -0.0237
 4447SOL    HW214584   2.938   6.182   8.121  2.2157  1.4350  0.9967
 4448SOL     OW14585   4.913   3.111   6.385 -0.1431  0.3998  0.2930
 4448SOL    HW114586   4.945   3.071   6.304 -2.4663  3.0014 -2.0239
 4448SOL    HW214587   4.865   3.041   6.429  0.3610 -0.8241 -1.0339
 4449SOL     OW14588   4.741   1.626   0.354  0.0255 -0.2481  0.3041
 4449SOL    HW114589   4.691   1.544   0.362  1.0468 -0.7753  1.4694
 4449SOL    HW214590   4.674   1.694   0.360 -0.6293 -0.9550  1.3860
 4450SOL     OW14591   1.389   7.519   7.909 -0.2571 -0.0296 -0.3651
 4450SOL    HW114592   1.439   7.446   7.873 -1.6397 -1.5557  0.7696
 4450SOL    HW214593   1.343   7.556   7.834  0.3884 -0.3555 -0.9327
 4451SOL     OW14594   1.907   0.119   0.364  0.2998  0.0008 -0.1790
 4451SOL    HW114595   1.926   0.063   0.439 -1.0988 -0.1756  0.0466
 4451SOL    HW214596   1.950   0.202   0.384  1.3903 -0.5904  0.0158
 4452SOL     OW14597   6.183   7.082   7.973 -0.2946 -0.8555 -0.3912
 4452SOL    HW114598   6.201   7.064   8.066  1.0163 -0.7066 -0.6051
 4452SOL    HW214599   6.177   7.178   7.969 -0.0232 -0.8411 -0.5059
 4453SOL     OW14600   6.222   3.953   4.409  0.3375 -0.0548  0.6126
 4453SOL    HW114601   6.276   3.887   4.451 -0.0110 -1.9185 -1.7938
 4453SOL    HW214602   6.134   3.914   4.405 -0.1942  1.1304  0.4767
 4454SOL     OW14603   8.211   3.272   2.046 -0.0660  0.2408 -0.2877
 4454SOL    HW114604   8.177   3.210   1.981  1.8902 -1.8897  0.6576
 4454SOL    HW214605   8.296   3.299   2.013  0.6927 -0.4166  1.0693
 4455SOL     OW14606   0.248   2.879   6.623  0.6017 -0.7730 -0.6027
 4455SOL    HW114607   0.264   2.972   6.639 -1.1210 -0.2309 -1.8894
 4455SOL    HW214608   0.331   2.836   6.645  0.4815  0.6569  3.1565
 4456SOL     OW14609   2.546   8.270   0.432 -0.2200 -0.1522  0.2045
 4456SOL    HW114610   2.628   8.225   0.449 -1.4403 -2.1358  0.9497
 4456SOL    HW214611   2.527   8.252   0.340  0.5186  0.9195 -0.1730
 4457SOL     OW14612   2.995   4.370   1.733  0.2126  0.0627  0.0665
 4457SOL    HW114613   3.023   4.334   1.649  0.3725 -0.7339  0.4618
 4457SOL    HW214614   3.072   4.418   1.766  0.9251 -1.5684  0.8401
 4458SOL     OW14615   1.142   5.548   5.368 -0.7591 -0.8191 -0.1440
 4458SOL    HW114616   1.096   5.491   5.430 -0.5246  0.5051  1.2910
 4458SOL    HW214617   1.073   5.596   5.323 -0.8639 -0.4209  0.4393
 4459SOL     OW14618   6.052   2.516   4.997  0.4715  0.1040 -0.5585
 4459SOL    HW114619   6.117   2.481   4.936  0.6506  0.0691 -0.3512
 4459SOL    HW214620   6.101   2.578   5.051  0.3944 -0.1397 -0.2091
 4460SOL     OW14621   1.617   6.639   0.845 -0.1135 -0.1701 -0.5057
 4460SOL    HW114622   1.711   6.660   0.845 -0.1283 -0.0939 -0.0355
 4460SOL    HW214623   1.609   6.564   0.787  0.6838 -2.1501  1.8460
 4461SOL     OW14624   0.685   3.224   6.587 -0.1893 -0.3769  0.5916
 4461SOL    HW114625   0.709   3.142   6.543  1.4468  1.1000 -1.3845
 4461SOL    HW214626   0.590   3.229   6.577 -0.3324 -2.0568  0.8280
 4462SOL     OW14627   5.497   8.113   2.398 -0.1396 -0.1505 -0.2803
 4462SOL    HW114628   5.540   8.191   2.434  0.3020 -0.3296 -0.4152
 4462SOL    HW214629   5.506   8.122   2.303  1.8697 -1.4492 -0.2442
 4463SOL     OW14630   0.376   3.508   4.227 -0.1930 -0.6438  0.6184
 4463SOL    HW114631   0.426   3.459   4.162  0.9276 -1.3497  1.9863
 4463SOL    HW214632   0.426   3.589   4.239 -1.0333  0.0146 -0.2503
 4464SOL     OW14633   4.939   4.709   5.265  0.3768  0.1085 -0.0586
 4464SOL    HW114634   4.886   4.655   5.206 -0.5625  2.0435 -1.0097
 4464SOL    HW214635   4.922   4.799   5.237  3.7974  0.8057 -0.0578
 4465SOL     OW14636   3.742   5.928   2.856 -0.3542 -0.2143 -0.7916
 4465SOL    HW114637   3.812   5.981   2.817  0.5542 -0.1944  0.7965
 4465SOL    HW214638   3.676   5.992   2.881  0.1020  0.0264 -0.1837
 4466SOL     OW14639   4.602   7.319   7.626 -0.1102 -0.3837 -0.0174
 4466SOL    HW114640   4.583   7.227   7.643  0.8459 -0.6856 -0.5424
 4466SOL    HW214641   4.563   7.366   7.700  3.1790 -1.6075  2.5822
 4467SOL     OW14642   7.183   0.293   0.050 -0.3213  0.1673  0.1439
 4467SOL    HW114643   7.271   0.291   0.087 -0.7521 -2.0055  1.1529
 4467SOL    HW214644   7.167   0.385   0.030  2.4084  0.5114 -0.6394
 4468SOL     OW14645   4.727   3.457   7.474 -0.6102  0.1860 -0.2513
 4468SOL    HW114646   4.717   3.427   7.565 -1.3848  1.5487  0.1264
 4468SOL    HW214647   4.638   3.482   7.448 -0.2077  0.8050 -1.0300
 4469SOL     OW14648   7.789   0.029   4.200  0.2312  0.6013 -0.0105
 4469SOL    HW114649   7.860  -0.029   4.226  0.8074  0.7856 -1.1152
 4469SOL    HW214650   7.722   0.017   4.267  0.8275 -0.4446  0.4156
 4470SOL     OW14651   5.228   7.196   3.409  0.3366 -0.1793 -0.7858
 4470SOL    HW114652   5.287   7.124   3.389  1.4994  0.9857 -1.5928
 4470SOL    HW214653   5.244   7.215   3.502  0.6532 -0.3873 -0.7955
 4471SOL     OW14654   3.625   3.179   8.274  0.3031  0.0636 -0.0095
 4471SOL    HW114655   3.573   3.258   8.279 -0.8308 -0.5305 -1.7926
 4471SOL    HW214656   3.566   3.114   8.235  1.1348 -1.7179  1.6192
 4472SOL     OW14657   6.989   2.577   2.024 -0.4498  0.1927  0.5896
 4472SOL    HW114658   6.993   2.671   2.042 -2.1935  0.0930  1.5351
 4472SOL    HW214659   6.932   2.569   1.948 -0.3348 -0.1200  0.5325
 4473SOL     OW14660   0.083   0.757   5.906 -0.1523  0.0819  0.1576
 4473SOL    HW114661   0.047   0.843   5.924  0.7688  0.3877  0.5355
 4473SOL    HW214662   0.069   0.745   5.812  1.5568  1.5103 -0.3025
 4474SOL     OW14663   5.135   4.036   4.768 -0.3325  0.0470  0.4324
 4474SOL    HW114664   5.042   4.015   4.768 -0.3146 -0.0314  0.0039
 4474SOL    HW214665   5.176   3.967   4.820 -0.6569  0.7090  1.5873
 4475SOL     OW14666   4.158   7.828   5.779 -0.6450  0.1455 -0.7298
 4475SOL    HW114667   4.069   7.793   5.769 -1.2679  2.0810 -2.3085
 4475SOL    HW214668   4.212   7.773   5.723 -0.9096 -0.8316 -0.0265
 4476SOL     OW14669   4.113   5.084   1.427 -0.1949  0.1005 -0.1692
 4476SOL    HW114670   4.078   4.999   1.402 -1.3591  0.1794  1.1106
 4476SOL    HW214671   4.036   5.142   1.427  0.4442  0.9506 -0.2120
 4477SOL     OW14672   8.281   4.879   3.032  0.6617  0.0224 -0.1038
 4477SOL    HW114673   8.248   4.801   2.987  0.9941  0.9798 -2.0810
 4477SOL    HW214674   8.357   4.847   3.082  0.2170 -1.0940 -0.1284
 4478SOL     OW14675   0.763   6.641   6.445  0.5126 -0.1187  0.2892
 4478SOL    HW114676   0.700   6.624   6.515 -0.9214  0.7164 -0.7753
 4478SOL    HW214677   0.741   6.578   6.376  1.5739 -0.5757  0.3460
 4479SOL     OW14678   0.270   7.085   1.697  0.4040 -0.0879 -0.2771
 4479SOL    HW114679   0.246   6.993   1.708 -1.3742 -0.0225 -3.0923
 4479SOL    HW214680   0.365   7.085   1.702  0.3548 -1.8469  1.2586
 4480SOL     OW14681   7.050   2.041   5.918 -0.0984  0.0609  0.8788
 4480SOL    HW114682   7.076   2.119   5.868 -0.8472 -0.7353 -0.7783
 4480SOL    HW214683   7.129   1.988   5.923 -0.0646  0.0629  0.3790
 4481SOL     OW14684   5.530   3.262   4.729  0.1722  0.0892  0.5225
 4481SOL    HW114685   5.574   3.203   4.791  0.7288 -0.0527 -0.0007
 4481SOL    HW214686   5.589   3.337   4.722  1.3448 -1.0020 -1.7288
 4482SOL     OW14687   5.366   0.754   5.945  0.1906 -0.2871  0.0176
 4482SOL    HW114688   5.418   0.800   6.011  0.9735  0.4036 -1.0613
 4482SOL    HW214689   5.407   0.668   5.937  0.0019 -0.4242  0.5426
 4483SOL     OW14690   5.966   3.790   2.507 -0.6489 -0.0375  0.2868
 4483SOL    HW114691   5.939   3.882   2.511  2.0965  0.8402 -0.5666
 4483SOL    HW214692   6.043   3.785   2.564 -1.1886 -1.9998  0.8972
 4484SOL     OW14693   0.435   8.197   3.830  0.1910 -0.7840  0.0715
 4484SOL    HW114694   0.439   8.291   3.847 -0.5060 -0.6703 -0.3461
 4484SOL    HW214695   0.463   8.156   3.912 -0.0651 -0.2135  0.4443
 4485SOL     OW14696   7.954   3.692   5.377 -0.6675  0.5913 -0.4816
 4485SOL    HW114697   7.931   3.784   5.366 -0.7869  1.2040  4.0032
 4485SOL    HW214698   8.040   3.684   5.334 -0.8602  2.6340 -1.3387
 4486SOL     OW14699   3.284   1.232   7.295 -0.1380 -0.1773 -0.5908
 4486SOL    HW114700   3.318   1.258   7.381 -1.0193  0.4813 -0.4445
 4486SOL    HW214701   3.292   1.311   7.241 -0.3386 -0.3605 -0.8887
 4487SOL     OW14702   6.821   3.396   5.111 -0.5923  0.3317 -0.0880
 4487SOL    HW114703   6.828   3.421   5.018 -1.6774 -0.2025 -0.3186
 4487SOL    HW214704   6.858   3.470   5.158 -0.8639  1.0073 -0.9144
 4488SOL     OW14705   5.415   3.804   0.615 -0.4902  0.7028 -0.1391
 4488SOL    HW114706   5.374   3.889   0.598 -2.4232  0.4474  2.8419
 4488SOL    HW214707   5.491   3.825   0.670  1.3259  0.8122 -2.5988
 4489SOL     OW14708   4.066   2.384   6.242  0.0720 -0.8278 -0.3617
 4489SOL    HW114709   4.087   2.312   6.302  0.6559 -1.1854 -0.9875
 4489SOL    HW214710   4.122   2.456   6.271 -0.5924 -0.5825  0.3350
 4490SOL     OW14711   5.552   5.540   5.918 -0.6256 -0.2315  0.0650
 4490SOL    HW114712   5.589   5.479   5.854 -1.0195  0.2493 -0.6319
 4490SOL    HW214713   5.625   5.563   5.974  0.6107  2.0899 -2.3867
 4491SOL     OW14714   4.363   1.714   1.378  0.4127  0.3673  0.2812
 4491SOL    HW114715   4.315   1.781   1.329 -3.3418  0.1134  3.3954
 4491SOL    HW214716   4.303   1.640   1.383  2.3333 -1.1558  1.7293
 4492SOL     OW14717   3.137   4.013   1.388  0.2130  0.7763  0.1734
 4492SOL    HW114718   3.074   4.081   1.410 -2.3820 -0.9170 -1.8200
 4492SOL    HW214719   3.126   3.998   1.294  0.0595 -3.0100  0.7003
 4493SOL     OW14720   4.263   3.231   3.176  0.1414  0.3850  0.0239
 4493SOL    HW114721   4.352   3.197   3.167 -0.3297 -1.3487  1.5022
 4493SOL    HW214722   4.207   3.162   3.141 -0.6882  0.9396  0.2285
 4494SOL     OW14723   4.326   7.235   4.457 -0.7184  0.6255  0.5531
 4494SOL    HW114724   4.374   7.152   4.465 -0.2415  0.9277  0.8269
 4494SOL    HW214725   4.394   7.302   4.453 -1.1287  1.1342  1.8694
 4495SOL     OW14726   3.815   3.267   1.379 -0.2945  0.1127  0.3890
 4495SOL    HW114727   3.873   3.290   1.452  2.3966  5.6390 -3.1606
 4495SOL    HW214728   3.730   3.302   1.404  0.5197  1.6973  1.0177
 4496SOL     OW14729   1.408   2.646   3.148 -0.1336  0.1483  1.0465
 4496SOL    HW114730   1.413   2.741   3.153 -0.4799  0.2629 -0.5027
 4496SOL    HW214731   1.407   2.627   3.054 -1.4311 -1.2957  1.3285
 4497SOL     OW14732   6.950   5.141   3.726  0.6746  0.6242 -0.7266
 4497SOL    HW114733   6.879   5.200   3.703  2.4548  3.2208  0.2456
 4497SOL    HW214734   6.970   5.095   3.644 -0.1370  2.0232 -1.7356
 4498SOL     OW14735   5.793   1.232   2.381 -0.5405 -0.5252  0.1170
 4498SOL    HW114736   5.807   1.166   2.313 -2.2139 -0.6918 -0.0966
 4498SOL    HW214737   5.880   1.250   2.415 -0.0485 -2.9239  0.2460
 4499SOL     OW14738   3.818   1.678   7.027  0.5791 -0.4498  0.1824
 4499SOL    HW114739   3.830   1.771   7.049 -1.1855 -0.1147 -0.1640
 4499SOL    HW214740   3.816   1.677   6.932  0.7149 -0.8560  0.1869
 4500SOL     OW14741   3.015   1.220   2.134  0.0652 -0.1190  0.0910
 4500SOL    HW114742   3.111   1.226   2.131  0.0089  0.1818 -1.1322
 4500SOL    HW214743   2.987   1.226   2.043 -1.2461  1.7326  0.5840
 4501SOL     OW14744   2.018   6.321   4.743  0.2637  0.6213  0.3202
 4501SOL    HW114745   2.015   6.235   4.703  0.0833  0.9797 -0.4344
 4501SOL    HW214746   2.061   6.377   4.678  0.4027  1.0981  0.8117
 4502SOL     OW14747   4.236   1.026   5.531 -0.8341 -0.0535 -0.0239
 4502SOL    HW114748   4.143   1.015   5.512 -0.7111 -1.3537  0.0407
 4502SOL    HW214749   4.263   0.940   5.565 -0.1126  0.9717  2.0531
 4503SOL     OW14750   7.484   1.834   5.094  0.1535  0.6124  0.4761
 4503SOL    HW114751   7.441   1.920   5.103 -2.0889 -0.3880 -0.3153
 4503SOL    HW214752   7.444   1.781   5.163 -2.0943 -1.1729 -2.0791
 4504SOL     OW14753   2.679   2.653   1.000 -0.3115  0.1401  0.2388
 4504SOL    HW114754   2.656   2.561   0.990 -1.4223  0.4871 -0.4934
 4504SOL    HW214755   2.769   2.658   0.969 -1.0258 -0.2872 -2.0091
 4505SOL     OW14756   5.230   5.891   5.108 -0.0232  0.5121 -0.3672
 4505SOL    HW114757   5.207   5.956   5.041  1.3057  0.8464 -0.5167
 4505SOL    HW214758   5.312   5.924   5.145 -0.8613  0.4596  1.5939
 4506SOL     OW14759   1.720   4.883   2.886 -0.3820 -0.1920  0.2958
 4506SOL    HW114760   1.646   4.825   2.902  1.2890 -2.4493  0.1821
 4506SOL    HW214761   1.764   4.845   2.809  1.5365  0.4169  1.0632
 4507SOL     OW14762   5.826   2.650   4.920  0.1672  0.1257  0.3235
 4507SOL    HW114763   5.910   2.605   4.933  0.1959  0.2324  0.5014
 4507SOL    HW214764   5.795   2.670   5.008  0.0742  0.3086  0.2505
 4508SOL     OW14765   2.338   6.512   0.511  0.3575  0.3133  0.3881
 4508SOL    HW114766   2.249   6.492   0.539  0.5578  2.3667  2.6839
 4508SOL    HW214767   2.389   6.434   0.534 -0.9934 -1.2949 -1.9147
 4509SOL     OW14768   2.285   0.718   4.995 -0.2517 -0.6832 -0.1148
 4509SOL    HW114769   2.356   0.661   4.966  0.7525 -0.2535  1.4041
 4509SOL    HW214770   2.217   0.710   4.928  0.3438 -2.7650 -0.4740
 4510SOL     OW14771   1.566   7.959   1.468 -0.5386  0.0763  0.2014
 4510SOL    HW114772   1.501   7.898   1.502 -0.1015 -1.4406 -1.5791
 4510SOL    HW214773   1.648   7.932   1.510 -0.2413 -0.9569 -1.0084
 4511SOL     OW14774   7.079   3.215   5.353  0.7631  0.6373 -0.1407
 4511SOL    HW114775   6.984   3.224   5.340  0.7451  0.5474 -0.0623
 4511SOL    HW214776   7.098   3.125   5.326  1.3195  1.6054 -3.2362
 4512SOL     OW14777   1.400   1.367   4.082 -0.4595  0.9903  0.3332
 4512SOL    HW114778   1.313   1.369   4.122 -0.4721  0.7976  0.3164
 4512SOL    HW214779   1.430   1.458   4.084 -2.7307  1.9787 -4.1626
 4513SOL     OW14780   3.741   5.290   7.191 -0.3896 -0.2150 -0.1700
 4513SOL    HW114781   3.831   5.314   7.171  0.2261 -1.4869  0.9850
 4513SOL    HW214782   3.713   5.354   7.257 -0.8843  1.1572 -1.6854
 4514SOL     OW14783   2.660   2.455   4.354  0.3386 -0.0599 -0.1341
 4514SOL    HW114784   2.660   2.544   4.390 -2.3592 -0.7830  1.7827
 4514SOL    HW214785   2.607   2.462   4.274  1.7227  0.4112 -1.0325
 4515SOL     OW14786   2.365   4.638   0.280 -0.3671 -0.5185  0.1419
 4515SOL    HW114787   2.272   4.615   0.271 -0.1037 -0.8925 -1.8767
 4515SOL    HW214788   2.367   4.733   0.283 -0.7899 -0.4975 -0.2426
 4516SOL     OW14789   6.991   5.024   5.453  0.3790  0.6565 -0.4435
 4516SOL    HW114790   7.044   4.944   5.461  0.9815  0.9292 -1.6231
 4516SOL    HW214791   6.911   4.995   5.409  0.5174  0.6614 -0.7007
 4517SOL     OW14792   7.136   3.639   5.688 -0.0079 -0.0280 -0.4243
 4517SOL    HW114793   7.227   3.640   5.720 -0.2300 -0.2687  0.2120
 4517SOL    HW214794   7.140   3.586   5.608  0.1175 -1.4449  0.5085
 4518SOL     OW14795   2.381   5.740   8.081  0.1368  0.3994  0.0292
 4518SOL    HW114796   2.475   5.726   8.093  0.3817  3.0461  1.4821
 4518SOL    HW214797   2.366   5.721   7.988  2.2523  0.7013 -0.4035
 4519SOL     OW14798   6.220   5.487   3.664  0.4086  0.3260 -0.0028
 4519SOL    HW114799   6.196   5.434   3.741  0.5952 -0.7929 -0.7030
 4519SOL    HW214800   6.197   5.432   3.589 -0.0948  1.5573 -0.7592
 4520SOL     OW14801   1.998   5.469   5.399  0.2573  0.1023  0.7399
 4520SOL    HW114802   1.975   5.539   5.460  0.7633  1.1862 -0.2960
 4520SOL    HW214803   2.075   5.427   5.437  0.5705  0.7790  0.8576
 4521SOL     OW14804   2.529   2.506   5.192 -0.5937  0.3001 -0.0844
 4521SOL    HW114805   2.437   2.480   5.202 -0.5899  0.0741 -0.6117
 4521SOL    HW214806   2.548   2.493   5.099 -0.3567  1.4630 -0.2009
 4522SOL     OW14807   8.022   4.597   1.884  0.2189 -0.5611 -0.0503
 4522SOL    HW114808   8.110   4.609   1.849 -0.6571 -0.9181 -2.5129
 4522SOL    HW214809   8.021   4.508   1.918  0.1049 -1.4628 -2.3205
 4523SOL     OW14810   2.244   4.997   7.697 -0.8316  0.0257  0.3155
 4523SOL    HW114811   2.200   4.958   7.622 -0.3003 -0.5243  0.2871
 4523SOL    HW214812   2.233   5.091   7.685 -1.2237 -0.0778 -0.1594
 4524SOL     OW14813   6.497   3.234   5.430  0.6128  0.3266 -0.1694
 4524SOL    HW114814   6.562   3.188   5.378  0.4750  0.2815 -0.3025
 4524SOL    HW214815   6.418   3.232   5.376  0.3298 -0.1677  0.2691
 4525SOL     OW14816   5.708   6.345   5.628 -0.4550 -0.6491 -0.3893
 4525SOL    HW114817   5.726   6.320   5.719  0.1342  1.3164  0.0432
 4525SOL    HW214818   5.771   6.414   5.609 -1.6059  0.0382 -1.8043
 4526SOL     OW14819   4.832   1.433   1.776  0.2641  0.2176 -0.1809
 4526SOL    HW114820   4.782   1.496   1.827 -0.4403 -0.5638  0.0965
 4526SOL    HW214821   4.799   1.347   1.803  0.5579 -0.2440 -1.2357
 4527SOL     OW14822   5.656   4.043   4.908  0.1299  0.2787  0.5656
 4527SOL    HW114823   5.595   4.076   4.843  2.5934  0.6696 -1.6196
 4527SOL    HW214824   5.657   3.948   4.895 -0.0568  0.2657  0.6454
 4528SOL     OW14825   1.647   7.860   2.937  0.2328  0.7642  0.2650
 4528SOL    HW114826   1.560   7.888   2.909  0.1502  0.2014 -0.0488
 4528SOL    HW214827   1.707   7.925   2.898 -0.0168  0.9535  0.1964
 4529SOL     OW14828   8.233   1.572   3.836 -0.0706  0.2392 -0.0740
 4529SOL    HW114829   8.148   1.574   3.792 -0.1694 -1.2323  0.0187
 4529SOL    HW214830   8.262   1.663   3.837 -0.5924  0.4615 -2.1784
 4530SOL     OW14831   3.231   2.644   7.968  0.3270 -0.2623  0.6518
 4530SOL    HW114832   3.197   2.606   7.887 -0.0115 -0.0732  0.7060
 4530SOL    HW214833   3.241   2.738   7.949  2.9514 -0.6416 -0.1102
 4531SOL     OW14834   4.520   5.292   0.562 -0.3158 -0.1608  0.1578
 4531SOL    HW114835   4.431   5.270   0.589  0.0791 -0.6399  1.0821
 4531SOL    HW214836   4.509   5.333   0.476 -1.5414  0.9435  0.8084
 4532SOL     OW14837   4.902   0.707   3.400  0.1363 -0.2891  0.3773
 4532SOL    HW114838   4.908   0.783   3.459 -0.9397 -0.3573  0.5770
 4532SOL    HW214839   4.901   0.746   3.313 -1.5803  0.0093  0.5137
 4533SOL     OW14840   7.132   2.082   4.902 -0.1752 -0.2949  0.1253
 4533SOL    HW114841   7.049   2.112   4.939 -0.4747 -1.5795  0.5087
 4533SOL    HW214842   7.164   2.156   4.850 -1.9141 -0.0480 -0.6088
 4534SOL     OW14843   6.553   0.571   2.781 -0.2279 -0.1942 -0.3101
 4534SOL    HW114844   6.500   0.602   2.854 -0.2687  0.9519 -0.8025
 4534SOL    HW214845   6.503   0.594   2.703  1.1050  1.1967 -0.7965
 4535SOL     OW14846   4.455   7.921   3.964  0.0163  0.1349  0.6241
 4535SOL    HW114847   4.376   7.932   4.016 -0.8212  0.6317 -0.7428
 4535SOL    HW214848   4.424   7.893   3.878  1.2567  1.2201 -0.1937
 4536SOL     OW14849   5.928   3.980   0.363  0.4437  0.7488 -0.1700
 4536SOL    HW114850   5.901   4.070   0.347 -0.5392  0.4595 -0.2099
 4536SOL    HW214851   5.851   3.939   0.404  0.9873  0.0188  0.1360
 4537SOL     OW14852   6.758   5.757   3.153 -1.4514 -0.3359  0.7002
 4537SOL    HW114853   6.703   5.735   3.078 -0.2971  0.3958 -0.3751
 4537SOL    HW214854   6.748   5.852   3.164 -1.7375 -0.4614  1.5700
 4538SOL     OW14855   1.096   5.289   8.240  0.6346 -0.0392  0.0388
 4538SOL    HW114856   1.053   5.268   8.157  0.5993  1.5377 -0.3422
 4538SOL    HW214857   1.188   5.269   8.224  0.9998  2.4168 -1.1400
 4539SOL     OW14858   0.078   5.792   4.899 -0.3076  0.4183  0.2401
 4539SOL    HW114859   0.023   5.869   4.886  0.1184  0.4429 -1.5898
 4539SOL    HW214860   0.143   5.819   4.964  0.9251  2.1936 -1.6816
 4540SOL     OW14861   4.618   6.449   6.407  0.0521  0.2290  0.1391
 4540SOL    HW114862   4.604   6.450   6.501 -1.0413  1.4363 -0.0273
 4540SOL    HW214863   4.706   6.484   6.395 -0.4064  1.5543  0.6163
 4541SOL     OW14864   5.796   6.364   1.681  0.3007  0.0545  0.0176
 4541SOL    HW114865   5.872   6.417   1.704  0.3481 -0.3885  0.9000
 4541SOL    HW214866   5.774   6.390   1.592 -0.3967  2.4623  0.8489
 4542SOL     OW14867   5.710   8.290   0.520 -0.5517 -0.1313  0.8544
 4542SOL    HW114868   5.758   8.355   0.571 -0.7204 -0.2907  1.2166
 4542SOL    HW214869   5.749   8.206   0.543  1.4401  0.0582 -1.5856
 4543SOL     OW14870   2.966   6.212   5.234 -0.1024 -0.2761  0.8201
 4543SOL    HW114871   2.970   6.140   5.171 -0.0560  0.2071  0.2755
 4543SOL    HW214872   3.044   6.199   5.289  1.4899  1.0052 -1.0554
 4544SOL     OW14873   7.684   6.073   7.908 -0.3589 -0.1863 -0.0051
 4544SOL    HW114874   7.747   6.100   7.975  0.5238  0.3039 -1.0167
 4544SOL    HW214875   7.671   5.979   7.923  0.4137 -0.2299  0.3841
 4545SOL     OW14876   7.470   6.333   7.279 -0.6832 -0.4796  0.1960
 4545SOL    HW114877   7.431   6.402   7.334 -0.2719 -0.7642  0.8482
 4545SOL    HW214878   7.554   6.314   7.320  0.0415 -0.0500 -1.0651
 4546SOL     OW14879   2.749   4.104   3.235 -0.5188 -0.5541 -0.2978
 4546SOL    HW114880   2.841   4.085   3.222 -0.6262 -2.1680  1.0712
 4546SOL    HW214881   2.740   4.115   3.330 -1.1426  2.9476 -0.6942
 4547SOL     OW14882   4.840   2.435   7.419 -0.4451 -0.0750  0.0843
 4547SOL    HW114883   4.827   2.395   7.333  0.9338 -0.2837 -0.0405
 4547SOL    HW214884   4.835   2.361   7.481 -0.5236 -0.0502  0.1084
 4548SOL     OW14885   7.481   1.309   4.102 -0.2073  0.1416  0.4926
 4548SOL    HW114886   7.404   1.254   4.119 -0.8114  1.1275  0.9828
 4548SOL    HW214887   7.488   1.311   4.006 -0.5742 -0.2411  0.4531
 4549SOL     OW14888   0.898   3.854   0.294 -0.2873  0.2406  0.6615
 4549SOL    HW114889   0.851   3.935   0.271 -1.2966  0.3323  2.9101
 4549SOL    HW214890   0.838   3.808   0.354  1.1165 -1.2285  0.9609
 4550SOL     OW14891   0.656   6.031   5.930  0.7615  0.4011  0.0371
 4550SOL    HW114892   0.729   5.988   5.975  0.2821  0.2356  0.6728
 4550SOL    HW214893   0.695   6.072   5.854  1.1890 -1.4760 -0.7914
 4551SOL     OW14894   3.463   0.830   2.406  0.2255  0.0460  0.2856
 4551SOL    HW114895   3.403   0.874   2.346  0.2353 -0.1827  0.1067
 4551SOL    HW214896   3.408   0.801   2.479  0.1153 -0.1943  0.1052
 4552SOL     OW14897   3.042   6.046   5.035  0.2216  0.5469  0.4518
 4552SOL    HW114898   3.067   5.961   5.000  1.5534  1.0071  0.2623
 4552SOL    HW214899   3.082   6.110   4.976  0.0373  1.3080  1.1241
 4553SOL     OW14900   2.670   6.125   6.633  0.0227  0.1709  0.3889
 4553SOL    HW114901   2.750   6.074   6.618 -0.5212 -1.0233  1.5038
 4553SOL    HW214902   2.627   6.128   6.548 -0.1141 -1.5369  0.3936
 4554SOL     OW14903   2.966   0.819   6.860  0.0595 -0.1317  0.2365
 4554SOL    HW114904   2.882   0.864   6.846 -1.2313 -2.1690  1.2271
 4554SOL    HW214905   2.949   0.728   6.835  2.5395 -0.1826 -1.4267
 4555SOL     OW14906   7.593   1.862   7.598 -0.2108 -0.0599 -0.0140
 4555SOL    HW114907   7.575   1.843   7.506  0.7700  1.8343 -0.6174
 4555SOL    HW214908   7.686   1.840   7.609  0.2372  1.7173 -0.0479
 4556SOL     OW14909   6.109   1.472   6.900 -0.1752  0.1811 -0.3656
 4556SOL    HW114910   6.105   1.530   6.824  1.3050  0.9665  0.1344
 4556SOL    HW214911   6.019   1.469   6.933 -0.0621  3.1000  0.2664
 4557SOL     OW14912   7.155   6.248   7.954 -0.4522  0.1651 -0.4647
 4557SOL    HW114913   7.062   6.245   7.977 -0.8602 -1.0797 -2.1885
 4557SOL    HW214914   7.194   6.174   8.001 -0.2699  0.8494  0.4746
 4558SOL     OW14915   1.161   6.637   6.967  0.1637  0.4056  0.6032
 4558SOL    HW114916   1.120   6.629   6.881 -0.8476  0.2725  1.0917
 4558SOL    HW214917   1.210   6.719   6.962 -0.0196  0.4806 -0.0442
 4559SOL     OW14918   2.448   2.928   2.655 -0.2168 -0.3510 -0.7126
 4559SOL    HW114919   2.408   2.898   2.573 -0.1827 -0.2696 -0.7594
 4559SOL    HW214920   2.542   2.930   2.636 -0.2285 -0.1158 -0.7416
 4560SOL     OW14921   2.827   5.732   1.042 -0.1622  0.9583  0.1206
 4560SOL    HW114922   2.755   5.730   0.979  1.0638 -0.9215 -1.2540
 4560SOL    HW214923   2.832   5.643   1.076  2.0443  0.8685 -0.4010
 4561SOL     OW14924   3.953   5.189   5.086  0.5723 -0.8708 -0.0272
 4561SOL    HW114925   3.924   5.182   4.995 -0.7616  0.3633  0.2804
 4561SOL    HW214926   3.979   5.100   5.110 -4.5122 -2.4751  0.1498
 4562SOL     OW14927   7.612   4.205   1.868 -0.1711  0.2631  0.0395
 4562SOL    HW114928   7.613   4.132   1.930 -0.2115  0.9363  0.8414
 4562SOL    HW214929   7.633   4.165   1.784  1.4764 -0.4166  0.7503
 4563SOL     OW14930   3.381   0.705   1.806 -0.4068 -0.3163  0.3122
 4563SOL    HW114931   3.352   0.773   1.867  1.6059  0.0562  0.8712
 4563SOL    HW214932   3.452   0.661   1.851  1.9546  0.7487 -2.2121
 4564SOL     OW14933   3.255   3.562   6.193 -0.4033  0.0711  0.7413
 4564SOL    HW114934   3.339   3.526   6.164  0.0303  3.0095 -2.0117
 4564SOL    HW214935   3.197   3.487   6.197  2.0116 -1.8282  1.4114
 4565SOL     OW14936   2.440   1.338   0.421 -0.1043 -0.4849 -0.4358
 4565SOL    HW114937   2.394   1.275   0.366  1.7758 -1.2197 -1.2012
 4565SOL    HW214938   2.513   1.289   0.458 -1.8179 -0.2928  3.5157
 4566SOL     OW14939   7.272   2.018   0.483 -0.1138 -0.1568 -0.2176
 4566SOL    HW114940   7.214   1.946   0.457 -0.3322  0.3147 -1.0527
 4566SOL    HW214941   7.340   2.020   0.416  0.1400  0.1298  0.0464
 4567SOL     OW14942   1.961   6.373   6.502 -0.0615 -0.0470 -0.7759
 4567SOL    HW114943   2.056   6.360   6.493 -0.3734 -2.0992 -1.3746
 4567SOL    HW214944   1.936   6.316   6.575 -1.0623 -0.7506 -1.6516
 4568SOL     OW14945   1.757   5.497   0.680 -0.1015 -0.1441 -0.0539
 4568SOL    HW114946   1.835   5.465   0.634 -0.1637  0.6277 -0.7080
 4568SOL    HW214947   1.739   5.582   0.641 -0.8449  0.0118  0.6070
 4569SOL     OW14948   1.328   0.653   0.245 -0.0159 -0.5498 -0.6389
 4569SOL    HW114949   1.248   0.616   0.283 -0.3819  0.7502 -0.1112
 4569SOL    HW214950   1.386   0.666   0.320  0.1718 -0.2229 -0.8392
 4570SOL     OW14951   2.979   2.620   1.028  0.5448 -0.2091  0.8750
 4570SOL    HW114952   2.989   2.604   1.122 -1.6816  1.4301  1.4036
 4570SOL    HW214953   3.018   2.543   0.987 -0.3125 -1.9237  3.1838
 4571SOL     OW14954   5.076   7.183   6.324  0.2790  0.0698  0.2703
 4571SOL    HW114955   5.045   7.220   6.407  2.4236  1.7050  0.3853
 4571SOL    HW214956   5.036   7.238   6.257  1.7525  1.2686  0.3676
 4572SOL     OW14957   2.589   2.220   0.577  0.6073 -0.0371  0.2349
 4572SOL    HW114958   2.675   2.178   0.573  0.6998  0.1889 -0.1152
 4572SOL    HW214959   2.601   2.305   0.534  0.3242  0.1888  0.5953
 4573SOL     OW14960   7.379   7.699   7.556 -0.0060 -0.2453  0.5768
 4573SOL    HW114961   7.424   7.631   7.507  1.5130  0.6202  0.7180
 4573SOL    HW214962   7.445   7.732   7.618 -0.7485  1.2273  0.6146
 4574SOL     OW14963   2.572   1.611   6.723  0.8399 -0.2630  0.1540
 4574SOL    HW114964   2.492   1.650   6.687  1.5051  1.5290  0.6049
 4574SOL    HW214965   2.540   1.538   6.776 -0.3852 -0.6026 -1.0243
 4575SOL     OW14966   5.018   5.852   1.327  0.4851 -0.2037  0.4555
 4575SOL    HW114967   5.103   5.809   1.339  0.7686  0.2761  0.1888
 4575SOL    HW214968   5.000   5.894   1.411 -0.7923 -2.5788  1.4246
 4576SOL     OW14969   6.847   0.336   6.160 -0.4121  0.1441 -0.8878
 4576SOL    HW114970   6.898   0.257   6.141  1.5834  1.3807 -0.8832
 4576SOL    HW214971   6.757   0.305   6.169  0.2641 -2.0597 -1.3163
 4577SOL     OW14972   1.552   2.136   5.678  0.4638  0.0502 -0.0174
 4577SOL    HW114973   1.609   2.213   5.686 -1.5859  1.6381 -0.1301
 4577SOL    HW214974   1.483   2.164   5.617 -0.7839 -1.5811  0.6232
 4578SOL     OW14975   0.924   7.464   8.060  0.1955  0.0969  0.0129
 4578SOL    HW114976   0.936   7.450   7.966  0.7178 -2.5533  0.4320
 4578SOL    HW214977   1.013   7.455   8.096 -0.1604  0.0536  0.8786
 4579SOL     OW14978   4.133   6.284   4.546  0.5497 -0.5910  0.3617
 4579SOL    HW114979   4.138   6.329   4.630  0.2820 -0.5306  0.3476
 4579SOL    HW214980   4.044   6.249   4.543  0.2911  0.0771 -0.2333
 4580SOL     OW14981   3.534   0.139   3.854  0.0902  0.1987  0.3658
 4580SOL    HW114982   3.592   0.197   3.803  1.2469 -1.2030  0.0623
 4580SOL    HW214983   3.551   0.052   3.818 -1.2708 -0.3925  1.1721
 4581SOL     OW14984   5.683   0.762   7.589  0.2025  0.2314 -0.1059
 4581SOL    HW114985   5.669   0.841   7.535  0.1080  1.9833  2.3831
 4581SOL    HW214986   5.605   0.759   7.645  0.9365 -0.7918  0.8558
 4582SOL     OW14987   7.777   4.833   6.845 -0.1959  0.6183  0.3081
 4582SOL    HW114988   7.818   4.787   6.772 -0.1741 -0.4341  0.9806
 4582SOL    HW214989   7.838   4.904   6.865  0.0425  0.6073 -0.3616
 4583SOL     OW14990   7.055   4.492   7.811  0.2564  0.1264 -0.7250
 4583SOL    HW114991   7.122   4.454   7.754 -0.4663  1.0213 -2.2030
 4583SOL    HW214992   7.088   4.580   7.830  0.7242 -0.3232  0.6710
 4584SOL     OW14993   1.673   2.737   5.636  0.3286  0.1373 -0.0747
 4584SOL    HW114994   1.611   2.712   5.704  0.3267  1.3419  0.3738
 4584SOL    HW214995   1.621   2.735   5.555  0.1580 -0.6127  0.0554
 4585SOL     OW14996   8.180   6.229   0.664 -0.3881  0.2708 -0.0861
 4585SOL    HW114997   8.145   6.206   0.751 -0.6503 -1.2544 -0.5706
 4585SOL    HW214998   8.275   6.228   0.676 -0.3838 -1.1791 -0.0860
 4586SOL     OW14999   7.850   4.103   6.816  0.5277  0.4710 -0.1055
 4586SOL    HW115000   7.912   4.153   6.869  0.5255  1.5961 -1.1543
 4586SOL    HW215001   7.772   4.159   6.811 -0.0620 -0.3170  0.0098
 4587SOL     OW15002   4.356   6.841   3.022 -0.7172 -0.2078  0.3002
 4587SOL    HW115003   4.308   6.839   2.940 -0.3296  0.9425  0.0410
 4587SOL    HW215004   4.322   6.918   3.069 -1.8251 -1.5510  1.7575
 4588SOL     OW15005   7.471   1.818   7.038 -0.0857 -0.8565 -0.7143
 4588SOL    HW115006   7.433   1.827   7.125  1.0833 -0.3501 -0.2461
 4588SOL    HW215007   7.539   1.886   7.034 -0.3196 -0.6798 -2.1211
 4589SOL     OW15008   2.056   3.316   3.343 -0.1410 -0.2777 -0.2418
 4589SOL    HW115009   2.036   3.351   3.430 -0.5050 -0.9711 -0.0405
 4589SOL    HW215010   2.150   3.301   3.344  0.0572  0.8975 -0.4105
 4590SOL     OW15011   4.808   2.472   3.416 -0.0048 -0.2459 -0.4555
 4590SOL    HW115012   4.806   2.560   3.453 -1.0103 -0.6372  0.4549
 4590SOL    HW215013   4.723   2.434   3.440 -0.0782 -1.0323 -1.8982
 4591SOL     OW15014   7.384   4.480   7.559 -0.1378 -0.2641 -0.4261
 4591SOL    HW115015   7.301   4.512   7.596 -0.0619 -3.4211  2.6971
 4591SOL    HW215016   7.358   4.412   7.497  0.0665 -0.2049 -0.5769
 4592SOL     OW15017   7.719   2.850   7.309  0.4194  0.1690  0.0128
 4592SOL    HW115018   7.781   2.811   7.248 -0.6447  0.5709 -1.3544
 4592SOL    HW215019   7.648   2.882   7.254  0.9399  3.4497  1.1393
 4593SOL     OW15020   1.839   2.654   1.837  0.1579 -0.0148 -0.2412
 4593SOL    HW115021   1.837   2.682   1.745  0.5325  1.0614  0.0706
 4593SOL    HW215022   1.839   2.735   1.886  0.2656 -0.5922  0.7148
 4594SOL     OW15023   8.214   0.584   7.667  0.2177 -0.1716  0.0508
 4594SOL    HW115024   8.250   0.496   7.678  1.3489  0.3767  0.8161
 4594SOL    HW215025   8.217   0.599   7.572  0.4772 -0.7647 -0.0385
 4595SOL     OW15026   0.189   1.218   7.181 -0.2276 -0.1634  0.1237
 4595SOL    HW115027   0.174   1.309   7.204 -0.4793 -0.2274  0.2211
 4595SOL    HW215028   0.136   1.168   7.243  1.6882 -0.4621  1.5458
 4596SOL     OW15029   2.679   0.015   0.819 -0.6210 -0.4078 -0.5623
 4596SOL    HW115030   2.743   0.034   0.751  0.2913  0.2362  0.4655
 4596SOL    HW215031   2.715   0.055   0.898 -1.8182 -0.8789  0.2362
 4597SOL     OW15032   6.037   0.571   7.030  0.2892 -0.2952  0.1941
 4597SOL    HW115033   6.121   0.542   6.994  0.5180 -0.9431  1.2349
 4597SOL    HW215034   6.060   0.622   7.108 -0.1740  1.7130 -0.9482
 4598SOL     OW15035   4.494   0.520   3.590  0.1757  0.4529  0.5565
 4598SOL    HW115036   4.551   0.548   3.518 -1.4642  1.3275 -0.4377
 4598SOL    HW215037   4.411   0.565   3.574 -1.4044 -2.1993  0.9164
 4599SOL     OW15038   5.563   7.336   7.108 -0.1574  0.2155 -0.2902
 4599SOL    HW115039   5.657   7.352   7.117 -0.3457  0.8194  0.6788
 4599SOL    HW215040   5.532   7.321   7.197 -1.2349  1.4736 -0.4259
 4600SOL     OW15041   6.364   8.275   6.526 -0.1742 -0.1451 -0.0731
 4600SOL    HW115042   6.306   8.350   6.541 -0.9348 -1.2832  3.1147
 4600SOL    HW215043   6.445   8.313   6.493 -1.3335  1.8580 -0.6969
 4601SOL     OW15044   3.773   4.860   8.110 -0.3874 -0.0181  0.2552
 4601SOL    HW115045   3.851   4.886   8.062 -0.7321  0.7245  0.0757
 4601SOL    HW215046   3.711   4.832   8.043 -1.0301  1.4567  0.2135
 4602SOL     OW15047   0.291   4.220   7.042 -0.1271 -0.0714  0.8380
 4602SOL    HW115048   0.307   4.154   6.975 -0.6297  0.5276  0.1210
 4602SOL    HW215049   0.196   4.234   7.040  0.0748  1.3258  0.3553
 4603SOL     OW15050   4.692   4.081   5.297  0.0725 -0.5367  0.1302
 4603SOL    HW115051   4.783   4.102   5.319  0.3881 -1.8954  0.1946
 4603SOL    HW215052   4.679   4.122   5.211  0.7706 -0.3763  0.0916
 4604SOL     OW15053   3.834   6.090   1.991  0.3219 -0.7224  0.6648
 4604SOL    HW115054   3.796   6.002   1.984  0.3171 -0.6028 -1.0608
 4604SOL    HW215055   3.928   6.076   1.977  0.4153 -0.5393  1.1031
 4605SOL     OW15056   7.321   3.387   6.229  0.0471  0.4423 -0.2843
 4605SOL    HW115057   7.376   3.460   6.200 -2.2038  1.9211 -0.8795
 4605SOL    HW215058   7.247   3.428   6.273 -1.2501 -1.4786 -0.6306
 4606SOL     OW15059   4.393   1.050   6.246  0.0640 -0.0927 -0.0762
 4606SOL    HW115060   4.442   1.131   6.258 -0.4285 -0.0488  1.8702
 4606SOL    HW215061   4.302   1.073   6.264 -0.0113 -1.1532  1.0021
 4607SOL     OW15062   6.411   0.850   0.529 -0.0217  0.0025  0.6198
 4607SOL    HW115063   6.390   0.775   0.584 -0.5819 -1.5326 -1.6369
 4607SOL    HW215064   6.443   0.812   0.447 -1.7498  2.1893 -1.1322
 4608SOL     OW15065   3.740   0.035   5.724 -0.1510 -0.0392  0.2874
 4608SOL    HW115066   3.795   0.110   5.748 -0.0521  0.4282 -1.3663
 4608SOL    HW215067   3.794  -0.041   5.744  1.1005  0.4098 -1.2600
 4609SOL     OW15068   7.282   0.306   7.140 -0.2368  0.5191 -0.1259
 4609SOL    HW115069   7.282   0.364   7.216  0.6389  2.0061 -1.2333
 4609SOL    HW215070   7.371   0.271   7.137 -0.8019 -1.0480  0.6292
 4610SOL     OW15071   2.958   7.522   3.316 -0.2294  0.4750 -0.3008
 4610SOL    HW115072   3.009   7.448   3.284 -1.3383  0.1917 -1.4318
 4610SOL    HW215073   3.023   7.579   3.358  0.6724 -0.9624  0.2855
 4611SOL     OW15074   1.769   1.861   4.802  0.0158  0.0098 -0.0644
 4611SOL    HW115075   1.706   1.919   4.845 -0.2678 -0.1969 -0.1953
 4611SOL    HW215076   1.772   1.893   4.712  0.7219  0.5363  0.1437
 4612SOL     OW15077   2.379   3.450   7.576 -0.5859  0.0150  0.1110
 4612SOL    HW115078   2.310   3.401   7.622  0.6349 -2.1602 -0.3517
 4612SOL    HW215079   2.459   3.429   7.624 -0.0388  1.6274 -0.0651
 4613SOL     OW15080   0.098   5.679   3.575 -0.3178  0.5625 -0.0199
 4613SOL    HW115081   0.064   5.658   3.662  2.1555 -2.5362  0.2658
 4613SOL    HW215082   0.093   5.596   3.527  1.6656  1.3800 -1.6804
 4614SOL     OW15083   3.076   2.806   7.590  0.8739 -0.3895  0.0282
 4614SOL    HW115084   3.009   2.820   7.523  1.0772  0.5621  0.0152
 4614SOL    HW215085   3.146   2.867   7.567  1.5783 -1.0918  0.2756
 4615SOL     OW15086   2.872   3.035   2.753  0.4428  0.0113  0.5299
 4615SOL    HW115087   2.886   3.125   2.783  0.6240  0.2500 -0.2610
 4615SOL    HW215088   2.777   3.026   2.748  0.4465  0.5250 -0.4848
 4616SOL     OW15089   7.982   6.641   7.941 -0.3855  0.0798  0.7035
 4616SOL    HW115090   7.893   6.608   7.946 -0.0462 -0.7685  1.1684
 4616SOL    HW215091   8.011   6.647   8.032  0.5980 -1.1981  0.4861
 4617SOL     OW15092   6.430   3.358   7.874  0.5033  0.0956 -0.3437
 4617SOL    HW115093   6.523   3.343   7.857  1.0092  0.8896  1.5977
 4617SOL    HW215094   6.410   3.438   7.824  1.3333  0.9440  0.6359
 4618SOL     OW15095   1.792   2.565   2.907 -0.0755 -0.1203  0.7146
 4618SOL    HW115096   1.732   2.638   2.890  0.4624 -0.1894 -1.7170
 4618SOL    HW215097   1.735   2.490   2.921 -0.6128  0.4584  1.6435
 4619SOL     OW15098   1.233   1.287   1.351 -0.8175  0.0940  0.4156
 4619SOL    HW115099   1.274   1.357   1.298 -0.6067 -0.5590 -0.2953
 4619SOL    HW215100   1.149   1.324   1.378 -1.7131 -0.1841 -1.8412
 4620SOL     OW15101   1.383   2.263   1.753  1.1351  0.3876 -0.5072
 4620SOL    HW115102   1.445   2.332   1.775  1.8856 -0.0369 -1.2815
 4620SOL    HW215103   1.420   2.184   1.792  0.8486  0.2122 -0.5874
 4621SOL     OW15104   2.458   4.849   3.834  0.1804 -0.5177 -0.1839
 4621SOL    HW115105   2.408   4.822   3.911  0.9498 -0.7375  0.2467
 4621SOL    HW215106   2.392   4.868   3.768 -0.4814 -0.5102  0.4717
 4622SOL     OW15107   4.668   7.976   4.111  0.4030 -0.0360 -0.2489
 4622SOL    HW115108   4.584   7.961   4.069  0.4017  3.0535 -1.5068
 4622SOL    HW215109   4.733   7.955   4.044  0.5682 -0.3604  0.0120
 4623SOL     OW15110   7.824   4.232   7.445 -0.2831  0.1969 -0.0487
 4623SOL    HW115111   7.765   4.299   7.477  1.5706  1.5307  0.6837
 4623SOL    HW215112   7.823   4.164   7.513  1.3498  1.6447  1.4958
 4624SOL     OW15113   1.852   7.494   1.787 -0.0459 -0.4077 -0.5517
 4624SOL    HW115114   1.914   7.429   1.821 -0.3433 -0.2302  0.3233
 4624SOL    HW215115   1.905   7.551   1.731  0.4707 -0.5966 -0.2562
 4625SOL     OW15116   0.120   2.338   2.276 -0.1805 -0.1578  0.2044
 4625SOL    HW115117   0.029   2.311   2.264 -0.3405  0.3215  0.3052
 4625SOL    HW215118   0.170   2.280   2.219 -0.4804 -0.8693  0.6627
 4626SOL     OW15119   5.108   0.144   8.101 -0.2604 -0.3499 -0.2659
 4626SOL    HW115120   5.057   0.175   8.026 -0.3363 -2.9534 -1.3588
 4626SOL    HW215121   5.078   0.054   8.114  2.8626 -1.3887  0.0923
 4627SOL     OW15122   0.016   6.188   2.461  0.5202  0.0611  0.0937
 4627SOL    HW115123   0.092   6.227   2.505 -0.8185  0.9256  1.7243
 4627SOL    HW215124   0.002   6.243   2.384  1.4802 -0.0412 -0.1555
 4628SOL     OW15125   0.250   8.142   6.703 -0.3509  0.0446  0.7551
 4628SOL    HW115126   0.312   8.100   6.762  1.1951 -0.2665 -1.0478
 4628SOL    HW215127   0.210   8.069   6.655 -0.7528  0.3615  0.6121
 4629SOL     OW15128   1.076   4.163   3.061 -0.5422 -0.1664 -0.3948
 4629SOL    HW115129   1.018   4.107   3.009  0.4005 -0.7283 -0.8594
 4629SOL    HW215130   1.145   4.104   3.092 -0.1456  0.5152  0.0419
 4630SOL     OW15131   1.572   1.891   6.321  0.6670  0.2963 -0.5263
 4630SOL    HW115132   1.483   1.855   6.320 -0.5284  3.1318 -0.0288
 4630SOL    HW215133   1.611   1.856   6.401 -0.9160  1.0932  0.6286
 4631SOL     OW15134   3.267   6.958   2.323  0.5076  0.2640  0.6249
 4631SOL    HW115135   3.334   7.014   2.363  1.8783 -0.6949 -0.3125
 4631SOL    HW215136   3.272   6.977   2.230  0.5005 -0.9215  0.3808
 4632SOL     OW15137   7.760   5.789   6.226  0.7152 -0.4301 -0.0280
 4632SOL    HW115138   7.803   5.813   6.309  0.4752 -1.1091  0.2953
 4632SOL    HW215139   7.830   5.789   6.162  1.1822 -1.4212  0.4767
 4633SOL     OW15140   1.157   0.679   5.813 -0.0387 -0.1902  0.3606
 4633SOL    HW115141   1.138   0.590   5.843  0.7189 -0.6318 -0.4676
 4633SOL    HW215142   1.210   0.667   5.735 -2.1894  0.9588 -1.3118
 4634SOL     OW15143   1.446   4.322   3.382  0.3821  0.0700  0.0554
 4634SOL    HW115144   1.452   4.379   3.459 -1.0842  0.5604 -0.1761
 4634SOL    HW215145   1.499   4.245   3.405  1.0688  0.8045  1.0069
 4635SOL     OW15146   2.537   1.188   7.102  0.4355 -0.6588 -0.0955
 4635SOL    HW115147   2.613   1.131   7.110 -0.1391 -1.2862  0.9558
 4635SOL    HW215148   2.551   1.234   7.019  2.2777 -0.3047  0.3685
 4636SOL     OW15149   7.898   1.721   2.069 -0.2351  0.1278  0.9588
 4636SOL    HW115150   7.845   1.734   1.990 -0.3287  0.2108  1.0352
 4636SOL    HW215151   7.983   1.757   2.047  0.1302 -1.0026  0.4427
 4637SOL     OW15152   7.891   4.789   8.030 -0.6038  0.5870  0.2691
 4637SOL    HW115153   7.904   4.883   8.045 -0.8172  0.5905  0.4438
 4637SOL    HW215154   7.955   4.747   8.087  0.1921  0.6426 -0.5707
 4638SOL     OW15155   3.132   1.876   0.913  0.2672 -0.1543 -0.1722
 4638SOL    HW115156   3.110   1.791   0.953 -1.2064  1.5337  2.7606
 4638SOL    HW215157   3.049   1.907   0.877 -0.0353  1.5790  1.8881
 4639SOL     OW15158   2.756   2.147   3.714  0.3179  0.3136  0.5879
 4639SOL    HW115159   2.792   2.156   3.802  0.9731  0.1224  0.3379
 4639SOL    HW215160   2.768   2.055   3.693 -2.1063 -0.1993  1.2818
 4640SOL     OW15161   6.349   3.327   3.464 -0.2583 -0.0247  0.1902
 4640SOL    HW115162   6.414   3.256   3.463  0.4811  0.6556 -0.8247
 4640SOL    HW215163   6.313   3.327   3.375 -1.5182 -0.2604  0.6871
 4641SOL     OW15164   3.560   6.220   7.197 -1.0945  0.3500 -0.2869
 4641SOL    HW115165   3.471   6.236   7.167 -1.0521 -1.8445 -1.6752
 4641SOL    HW215166   3.579   6.130   7.170  1.4196  0.6735  0.2745
 4642SOL     OW15167   2.120   2.567   8.081 -0.2678  0.3088 -0.2690
 4642SOL    HW115168   2.134   2.472   8.086 -0.4613  0.1808 -1.7822
 4642SOL    HW215169   2.195   2.605   8.126  0.3115 -0.5412 -0.5078
 4643SOL     OW15170   0.014   4.682   1.184  0.3428 -0.2970 -0.1690
 4643SOL    HW115171   0.066   4.715   1.111  2.8410  2.9301  2.9469
 4643SOL    HW215172   0.063   4.607   1.217 -0.0603 -0.8817 -0.8789
 4644SOL     OW15173   0.959   0.437   0.598 -0.7626 -0.1996 -0.1719
 4644SOL    HW115174   1.050   0.457   0.622 -0.7447 -0.3869 -0.0823
 4644SOL    HW215175   0.911   0.443   0.681 -0.6609 -1.0724 -0.0450
 4645SOL     OW15176   4.038   0.931   3.933 -0.9727  0.2030  0.5584
 4645SOL    HW115177   4.128   0.938   3.965 -0.3300  0.0367 -1.1850
 4645SOL    HW215178   3.997   0.868   3.993  0.5232 -0.9378  0.4265
 4646SOL     OW15179   6.762   0.443   2.644  0.0758 -0.9430  0.9504
 4646SOL    HW115180   6.696   0.506   2.674 -0.4667 -1.5475  1.0339
 4646SOL    HW215181   6.748   0.366   2.699  2.0382 -0.4398  2.2132
 4647SOL     OW15182   2.585   5.940   1.881 -0.1285  0.0237 -0.5688
 4647SOL    HW115183   2.655   5.915   1.941  0.5393 -1.5875 -1.9963
 4647SOL    HW215184   2.514   5.971   1.938  1.1973  0.3258  0.9441
 4648SOL     OW15185   0.380   4.035   5.721  0.2371  0.0325  0.1097
 4648SOL    HW115186   0.306   3.980   5.697 -0.0285 -0.9607  3.1098
 4648SOL    HW215187   0.341   4.111   5.763  0.8685  0.1305  0.5215
 4649SOL     OW15188   4.865   3.803   0.820 -0.1527 -0.4152 -0.0985
 4649SOL    HW115189   4.928   3.746   0.865  0.1078  0.7592  1.0454
 4649SOL    HW215190   4.882   3.787   0.727  3.1351  1.1981  0.1337
 4650SOL     OW15191   6.150   5.123   5.413 -0.1048 -0.4074  0.4273
 4650SOL    HW115192   6.217   5.155   5.353 -1.2658 -2.8164 -2.2706
 4650SOL    HW215193   6.189   5.044   5.451 -0.1238  0.0595  1.4346
 4651SOL     OW15194   5.092   8.223   8.230  0.0212 -0.0220  0.0548
 4651SOL    HW115195   5.054   8.188   8.311 -0.9827 -0.0103 -0.3963
 4651SOL    HW215196   5.183   8.194   8.231 -0.1951 -0.6871  0.8087
 4652SOL     OW15197   6.608   3.529   7.201 -0.6952 -0.1559 -0.1787
 4652SOL    HW115198   6.697   3.496   7.188 -1.5567 -1.7348 -2.3910
 4652SOL    HW215199   6.568   3.466   7.261 -1.3898 -1.5314 -2.0146
 4653SOL     OW15200   5.059   6.307   3.332 -0.1878 -0.1847  0.3054
 4653SOL    HW115201   4.976   6.339   3.367 -0.6296 -1.8582  0.8496
 4653SOL    HW215202   5.100   6.384   3.294 -2.7238  0.3994 -1.4235
 4654SOL     OW15203   6.980   1.681   7.020  0.2922 -0.3730 -0.0037
 4654SOL    HW115204   6.916   1.681   6.949 -0.3439  2.0345  0.5293
 4654SOL    HW215205   6.945   1.617   7.083 -1.1190  0.2518 -0.1358
 4655SOL     OW15206   3.677   0.903   1.664 -0.2765  0.0152  0.2521
 4655SOL    HW115207   3.605   0.841   1.653 -0.8840  0.5357  1.2338
 4655SOL    HW215208   3.639   0.988   1.643 -0.1615  0.3905  1.5228
 4656SOL     OW15209   7.618   5.509   1.864  0.0052  0.6656 -0.1773
 4656SOL    HW115210   7.645   5.437   1.807  0.2875 -1.7695  2.8605
 4656SOL    HW215211   7.523   5.497   1.875  0.1375  0.3858  0.7649
 4657SOL     OW15212   6.944   0.325   5.026  0.3022 -0.4313 -0.6509
 4657SOL    HW115213   6.870   0.355   4.974  1.6278  2.8556 -0.7963
 4657SOL    HW215214   7.021   0.350   4.974  1.5561 -2.9957 -0.1205
 4658SOL     OW15215   3.428   6.819   0.249  0.7127 -0.1259  0.5194
 4658SOL    HW115216   3.397   6.779   0.167  1.9395 -0.6226  0.2957
 4658SOL    HW215217   3.426   6.913   0.232 -1.8988 -0.0455  0.9422
 4659SOL     OW15218   4.400   4.014   0.226 -0.0109 -0.5002 -0.6661
 4659SOL    HW115219   4.368   3.924   0.225  1.0726 -0.9103  0.2845
 4659SOL    HW215220   4.353   4.056   0.298 -0.6379 -0.2493 -1.2136
 4660SOL     OW15221   3.367   3.535   3.653 -0.0565 -0.4179  0.5809
 4660SOL    HW115222   3.422   3.590   3.708  0.2271 -1.6154  1.5268
 4660SOL    HW215223   3.323   3.596   3.593 -1.1066  1.0108  2.7545
 4661SOL     OW15224   2.400   6.379   7.306  0.0173 -0.3892  0.1727
 4661SOL    HW115225   2.375   6.288   7.290  2.3779 -1.0179 -0.1925
 4661SOL    HW215226   2.379   6.424   7.224 -0.0515 -0.8731 -0.0801
 4662SOL     OW15227   6.156   7.551   0.302  0.3371  0.1918 -0.5818
 4662SOL    HW115228   6.148   7.631   0.251 -2.6224  1.3816  1.5769
 4662SOL    HW215229   6.176   7.483   0.238  0.0422  2.1887 -2.8497
 4663SOL     OW15230   7.981   3.573   6.383  0.1438  0.2718  0.7973
 4663SOL    HW115231   7.974   3.649   6.325  0.7851  0.6333  1.1808
 4663SOL    HW215232   7.980   3.611   6.471 -0.6680 -0.2588  1.0126
 4664SOL     OW15233   0.562   3.932   4.750  0.2610  0.2246  0.5244
 4664SOL    HW115234   0.655   3.938   4.727  0.4643  1.7506  1.6525
 4664SOL    HW215235   0.539   3.840   4.734  1.7826 -0.0071 -0.4183
 4665SOL     OW15236   6.295   2.672   1.572  0.5093  0.1074 -0.5802
 4665SOL    HW115237   6.336   2.753   1.603  0.2229 -0.1395  0.4784
 4665SOL    HW215238   6.327   2.604   1.631 -1.1019 -0.1490  0.0369
 4666SOL     OW15239   5.988   7.155   0.103 -0.5638 -0.3042  0.1648
 4666SOL    HW115240   6.043   7.233   0.110 -0.5366 -0.3204  0.1295
 4666SOL    HW215241   5.948   7.145   0.189  0.8775 -1.3267  0.7514
 4667SOL     OW15242   6.002   6.004   6.200 -0.3873  0.1131  0.5689
 4667SOL    HW115243   5.980   6.083   6.249 -1.0229  0.3720 -0.1253
 4667SOL    HW215244   6.069   6.032   6.138 -2.6216  0.7889 -1.6230
 4668SOL     OW15245   0.315   1.626   7.088  0.1400  0.5234  0.0750
 4668SOL    HW115246   0.288   1.705   7.042 -0.6855  0.3675  0.2915
 4668SOL    HW215247   0.390   1.654   7.141  0.9584  0.7456 -1.1847
 4669SOL     OW15248   5.157   3.411   6.927 -0.3438  0.3272 -0.4136
 4669SOL    HW115249   5.157   3.413   7.023 -0.6066  0.9508 -0.4268
 4669SOL    HW215250   5.243   3.377   6.904 -0.1148  0.5994  0.0332
 4670SOL     OW15251   3.892   7.591   4.762 -0.6458 -0.2236  0.1905
 4670SOL    HW115252   3.932   7.610   4.847  0.5021 -0.9289 -0.1772
 4670SOL    HW215253   3.961   7.547   4.712 -1.0315  0.9453 -1.4178
 4671SOL     OW15254   1.558   0.109   0.604  0.3351 -0.5777  0.2201
 4671SOL    HW115255   1.634   0.138   0.654  1.0266  0.1803 -1.2099
 4671SOL    HW215256   1.595   0.066   0.527 -0.6999 -1.6455  0.3034
 4672SOL     OW15257   5.661   3.334   3.228 -0.2425 -0.0596 -0.0143
 4672SOL    HW115258   5.678   3.249   3.269 -0.0139 -0.3262 -0.6614
 4672SOL    HW215259   5.569   3.351   3.248  0.0773  0.1846  1.2846
 4673SOL     OW15260   8.176   2.765   6.444  0.2029  0.7428 -0.5571
 4673SOL    HW115261   8.175   2.740   6.536  1.1729  2.0747 -0.1549
 4673SOL    HW215262   8.106   2.830   6.436  0.5283  1.0896 -0.6127
 4674SOL     OW15263   3.917   2.826   3.849 -0.2876 -0.1889  0.0781
 4674SOL    HW115264   3.940   2.855   3.937 -0.3921 -0.2349  0.1205
 4674SOL    HW215265   3.893   2.906   3.803 -0.1293 -0.1523  0.0599
 4675SOL     OW15266   6.885   4.075   2.611 -0.5583 -0.2128 -0.6324
 4675SOL    HW115267   6.867   3.989   2.572 -0.4034 -0.2123 -0.7088
 4675SOL    HW215268   6.949   4.057   2.680 -1.4819 -0.3326  0.2032
 4676SOL     OW15269   1.970   2.239   2.152 -0.4645  0.0639  0.4974
 4676SOL    HW115270   2.008   2.155   2.178 -2.2057 -1.7678 -2.5077
 4676SOL    HW215271   2.017   2.262   2.072 -1.8398  0.5985 -0.1648
 4677SOL     OW15272   0.892   6.503   1.911 -0.3692  0.4349 -0.3080
 4677SOL    HW115273   0.838   6.580   1.929  0.5873  1.0676 -0.1469
 4677SOL    HW215274   0.976   6.522   1.952  0.1696 -0.3028 -1.0597
 4678SOL     OW15275   4.614   7.601   0.670 -0.7845 -0.3411 -0.4960
 4678SOL    HW115276   4.610   7.691   0.635  0.6476 -0.2634 -0.5005
 4678SOL    HW215277   4.603   7.545   0.593 -2.6426 -0.1709 -0.3567
 4679SOL     OW15278   1.575   1.676   8.123  0.2311 -0.5160  0.2302
 4679SOL    HW115279   1.663   1.685   8.158  0.1235 -0.5053  0.4938
 4679SOL    HW215280   1.518   1.715   8.189 -0.0140 -0.9463  0.2754
 4680SOL     OW15281   4.631   4.675   3.384 -0.2326  0.1112  0.0385
 4680SOL    HW115282   4.609   4.652   3.474  1.3892 -0.7129  0.2429
 4680SOL    HW215283   4.601   4.601   3.331 -1.2493  0.6265 -0.1104
 4681SOL     OW15284   5.909   6.858   6.033 -0.0026 -0.2027 -0.5236
 4681SOL    HW115285   5.915   6.864   6.128  2.5538 -0.7899 -0.6108
 4681SOL    HW215286   5.850   6.930   6.009 -1.1997 -0.4472  1.5306
 4682SOL     OW15287   3.429   3.009   7.154 -0.2573  0.3585 -0.7106
 4682SOL    HW115288   3.344   2.975   7.127  0.0529  0.9647 -2.4931
 4682SOL    HW215289   3.409   3.083   7.211 -0.9158 -0.7321  0.4961
 4683SOL     OW15290   0.632   6.119   1.136 -0.5017  0.1296 -0.0357
 4683SOL    HW115291   0.602   6.028   1.140 -0.1850  0.0873  1.6791
 4683SOL    HW215292   0.724   6.113   1.111 -0.0445 -0.1266  1.6414
 4684SOL     OW15293   5.432   2.719   0.410  0.4969 -0.0343  0.1731
 4684SOL    HW115294   5.524   2.729   0.385  0.1702 -0.6940 -1.3461
 4684SOL    HW215295   5.433   2.651   0.477  1.1572  0.1914  0.3984
 4685SOL     OW15296   0.705   0.656   5.214 -0.5283 -0.1348  0.4828
 4685SOL    HW115297   0.630   0.606   5.247 -1.9390  1.7231  0.1597
 4685SOL    HW215298   0.692   0.744   5.248  0.3547  0.7359 -1.3798
 4686SOL     OW15299   0.896   6.353   5.854  0.1507  0.5343 -0.0794
 4686SOL    HW115300   0.812   6.341   5.899  0.1860  0.0314 -0.1539
 4686SOL    HW215301   0.916   6.446   5.867  0.2240  0.3652  1.0669
 4687SOL     OW15302   8.297   6.255   4.133 -0.1006 -0.5579  0.0451
 4687SOL    HW115303   8.273   6.342   4.102  1.9790 -0.2670 -0.8155
 4687SOL    HW215304   8.322   6.207   4.053  0.6320 -1.3287  0.7271
 4688SOL     OW15305   2.731   1.734   1.700  0.4568  0.2336  0.2005
 4688SOL    HW115306   2.641   1.767   1.707  0.7454  1.4066 -1.1612
 4688SOL    HW215307   2.726   1.643   1.727 -1.1070  0.3519  0.3526
 4689SOL     OW15308   0.918   5.962   6.123  0.2808 -0.4740 -0.0980
 4689SOL    HW115309   1.005   5.934   6.096  0.2431  0.1645 -0.8999
 4689SOL    HW215310   0.933   6.044   6.171  0.4640 -2.1646  2.8269
 4690SOL     OW15311   5.214   6.066   7.049 -0.6936  0.2648  0.5525
 4690SOL    HW115312   5.144   6.009   7.080 -0.8028  1.1779  2.0123
 4690SOL    HW215313   5.171   6.148   7.026 -0.5963 -0.3474 -1.9560
 4691SOL     OW15314   8.149   7.163   7.387 -0.0777 -0.7030 -0.0141
 4691SOL    HW115315   8.191   7.121   7.462  0.2164  2.1278  1.4816
 4691SOL    HW215316   8.072   7.207   7.424  0.9826  2.1297 -1.0401
 4692SOL     OW15317   4.621   3.970   1.134  0.2210 -0.3936 -0.4316
 4692SOL    HW115318   4.707   3.959   1.175  0.5777 -1.5820 -1.4837
 4692SOL    HW215319   4.638   4.019   1.054 -0.3165  0.8732  0.2214
 4693SOL     OW15320   4.969   2.920   3.239  0.3464  0.2959 -0.6883
 4693SOL    HW115321   4.906   2.848   3.233  0.0198  0.7685 -3.8005
 4693SOL    HW215322   5.037   2.887   3.298 -0.9741 -1.6268 -0.1808
 4694SOL     OW15323   3.382   7.197   1.154 -0.2754 -0.6255 -0.1701
 4694SOL    HW115324   3.369   7.104   1.171  3.0572 -1.3318 -1.0515
 4694SOL    HW215325   3.335   7.213   1.072  0.7829 -2.0292 -1.0770
 4695SOL     OW15326   4.856   1.580   2.943 -0.0701 -0.1216 -0.4390
 4695SOL    HW115327   4.884   1.664   2.978 -0.6242  0.3776 -1.1846
 4695SOL    HW215328   4.767   1.595   2.911  0.2164 -0.7079 -1.5468
 4696SOL     OW15329   1.439   1.969   0.261 -0.6140  0.2919 -0.2633
 4696SOL    HW115330   1.480   2.054   0.276  1.7691 -1.1237  1.5934
 4696SOL    HW215331   1.471   1.942   0.175  0.2836  0.3756  0.0389
 4697SOL     OW15332   7.986   7.325   5.578 -0.2656 -0.0426 -0.9071
 4697SOL    HW115333   7.898   7.360   5.564  0.0392  0.5463 -1.4025
 4697SOL    HW215334   7.987   7.298   5.670 -0.3130  1.8788 -0.3223
 4698SOL     OW15335   8.128   7.544   6.157 -0.0005 -0.0062  0.2802
 4698SOL    HW115336   8.150   7.534   6.065 -0.3439  0.7193  0.1205
 4698SOL    HW215337   8.109   7.455   6.187  3.4036 -0.7281  0.5028
 4699SOL     OW15338   7.433   7.004   4.203 -0.1295  0.0512  1.1915
 4699SOL    HW115339   7.458   6.986   4.294 -2.1415 -0.7307  1.6163
 4699SOL    HW215340   7.406   6.919   4.168 -1.4780  0.7453  0.5381
 4700SOL     OW15341   3.774   1.910   0.834  0.3850  0.4160 -0.1345
 4700SOL    HW115342   3.705   1.853   0.801  1.2676 -0.9380  0.3035
 4700SOL    HW215343   3.844   1.904   0.769  1.1027 -0.2498  0.6759
 4701SOL     OW15344   0.978   0.373   6.146  0.6380 -0.5257  0.3313
 4701SOL    HW115345   0.959   0.326   6.227  0.3305 -1.1377 -0.0888
 4701SOL    HW215346   0.934   0.458   6.157  0.4041 -0.6925  0.7115
 4702SOL     OW15347   4.509   1.444   5.471  1.4102 -0.1084 -0.2446
 4702SOL    HW115348   4.482   1.354   5.489 -0.4439  0.7725  1.7210
 4702SOL    HW215349   4.577   1.462   5.535  1.5651 -0.0173 -0.4349
 4703SOL     OW15350   0.616   3.527   5.840  0.2397 -0.3128 -0.4402
 4703SOL    HW115351   0.527   3.514   5.872  0.1531 -2.1376 -1.3220
 4703SOL    HW215352   0.657   3.441   5.848  1.3228  0.0467 -1.8331
 4704SOL     OW15353   5.811   6.096   2.201  0.1827  0.6916 -0.2139
 4704SOL    HW115354   5.805   6.191   2.213 -1.4417  0.6718 -0.7529
 4704SOL    HW215355   5.897   6.083   2.160  0.4530  1.9211 -0.0682
 4705SOL     OW15356   5.679   1.023   1.049  0.3224  0.4239  0.3146
 4705SOL    HW115357   5.592   1.008   1.011  0.4440 -1.1120  0.6084
 4705SOL    HW215358   5.686   1.118   1.056 -0.9689  0.6012 -0.5683
 4706SOL     OW15359   4.790   4.194   2.374  0.7533  0.8340 -0.0751
 4706SOL    HW115360   4.696   4.192   2.358  0.2193  1.1641  2.6472
 4706SOL    HW215361   4.823   4.111   2.340 -0.9643 -0.4476  1.2755
 4707SOL     OW15362   1.607   5.700   7.117 -0.2550  0.6446  0.0615
 4707SOL    HW115363   1.577   5.637   7.183  1.0324  0.9929  1.0020
 4707SOL    HW215364   1.632   5.646   7.042  1.2540 -0.0276  1.0142
 4708SOL     OW15365   3.134   5.154   3.812 -0.0164 -0.0660 -0.2218
 4708SOL    HW115366   3.082   5.182   3.888 -1.8189 -0.5402 -1.2563
 4708SOL    HW215367   3.072   5.106   3.757  1.0519  0.9684 -2.3903
 4709SOL     OW15368   5.921   8.257   0.297  0.1727 -0.1323  0.2018
 4709SOL    HW115369   5.938   8.349   0.320 -0.8077 -0.2482  1.3997
 4709SOL    HW215370   5.871   8.223   0.370 -0.9068 -1.1806 -1.0139
 4710SOL     OW15371   8.133   2.024   3.175  0.5473 -0.1579  0.3034
 4710SOL    HW115372   8.086   1.941   3.166 -0.3599  0.5716 -1.9161
 4710SOL    HW215373   8.220   2.006   3.141  0.8505 -0.6116  1.3033
 4711SOL     OW15374   3.462   6.036   2.000 -0.3488 -0.1483  0.8228
 4711SOL    HW115375   3.435   5.963   1.944 -2.1675  0.2068  1.2114
 4711SOL    HW215376   3.515   6.091   1.943 -0.2161 -0.9988  0.1074
 4712SOL     OW15377   4.203   2.068   2.402  0.3953 -0.0073  0.8202
 4712SOL    HW115378   4.214   2.068   2.307 -1.0498  0.7144  0.6448
 4712SOL    HW215379   4.288   2.041   2.436  1.0074  0.0198 -0.6693
 4713SOL     OW15380   6.101   5.624   3.226 -0.4402  0.2405  0.1703
 4713SOL    HW115381   6.043   5.647   3.153 -1.1695  3.3893  1.6723
 4713SOL    HW215382   6.042   5.610   3.300  0.4380 -1.1007  0.6456
 4714SOL     OW15383   2.241   3.153   8.141  0.2204 -0.5845 -0.7010
 4714SOL    HW115384   2.159   3.200   8.156  1.1385  0.3723  1.5559
 4714SOL    HW215385   2.228   3.068   8.183  0.4235 -0.3669 -0.1875
 4715SOL     OW15386   4.052   7.107   2.504 -0.1175  0.3353 -0.1986
 4715SOL    HW115387   4.110   7.035   2.528 -0.0819  0.0125 -1.2062
 4715SOL    HW215388   4.034   7.152   2.586 -0.1316 -0.8178  0.4418
 4716SOL     OW15389   3.047   0.721   6.489  0.2259  0.2255 -0.2423
 4716SOL    HW115390   3.041   0.654   6.421  1.2807  0.3899 -0.5046
 4716SOL    HW215391   3.140   0.730   6.506  0.0336  0.9385  0.4847
 4717SOL     OW15392   6.413   3.021   4.898 -0.2968 -0.3074 -0.1084
 4717SOL    HW115393   6.409   3.112   4.930 -1.7629  0.0139 -1.1449
 4717SOL    HW215394   6.327   2.985   4.920  0.0537 -1.2448 -0.2776
 4718SOL     OW15395   7.976   7.132   3.560  0.2359  0.0118 -0.1147
 4718SOL    HW115396   7.978   7.156   3.652 -0.1932  0.4130 -0.2068
 4718SOL    HW215397   7.979   7.037   3.559 -0.9218 -0.0296  0.3454
 4719SOL     OW15398   4.471   2.950   4.163 -0.0161 -0.1056  0.0845
 4719SOL    HW115399   4.462   3.026   4.220  2.3105  0.5782 -0.4128
 4719SOL    HW215400   4.518   2.886   4.216  0.5628 -0.1282 -0.4512
 4720SOL     OW15401   7.314   3.652   2.028  0.8658 -0.0615 -0.1370
 4720SOL    HW115402   7.321   3.735   2.075  0.3226 -0.7054  1.0891
 4720SOL    HW215403   7.229   3.618   2.052  0.8811 -0.7429 -1.0441
 4721SOL     OW15404   3.559   0.143   5.566  0.7181  0.0333  0.4944
 4721SOL    HW115405   3.531   0.225   5.606 -0.7979 -0.2810  0.1198
 4721SOL    HW215406   3.620   0.105   5.628  3.2097  2.5201 -0.3406
 4722SOL     OW15407   4.664   1.544   7.079 -0.1033 -0.0648  0.2410
 4722SOL    HW115408   4.720   1.578   7.009 -0.7333 -0.9738 -0.7054
 4722SOL    HW215409   4.716   1.476   7.121  0.0511  0.0840  0.2925
 4723SOL     OW15410   6.090   2.261   2.598  0.1877  0.2351  0.1499
 4723SOL    HW115411   6.119   2.352   2.593  1.9638 -0.2322  1.4590
 4723SOL    HW215412   6.057   2.251   2.687 -1.6792  0.0573 -0.5372
 4724SOL     OW15413   1.217   4.546   2.155  0.5190  0.6049 -0.2166
 4724SOL    HW115414   1.306   4.520   2.177  0.6315 -1.2387 -2.6422
 4724SOL    HW215415   1.168   4.532   2.236  2.1024  0.0543  0.6732
 4725SOL     OW15416   3.159   5.301   6.869 -0.2528 -1.0060  0.2091
 4725SOL    HW115417   3.087   5.284   6.809 -0.4704 -1.0056  0.4715
 4725SOL    HW215418   3.173   5.218   6.914  0.3283 -1.1857 -0.2895
 4726SOL     OW15419   5.073   3.833   4.378 -0.1112  0.0060  0.4981
 4726SOL    HW115420   5.157   3.805   4.414  0.1504  0.4741  0.2624
 4726SOL    HW215421   5.088   3.839   4.284  0.4047  2.7110  0.7045
 4727SOL     OW15422   6.476   0.308   8.249 -0.4363  0.1105  0.4703
 4727SOL    HW115423   6.488   0.221   8.209  1.4152  1.5724 -2.3336
 4727SOL    HW215424   6.563   0.329   8.285 -0.5928  1.2557  0.1831
 4728SOL     OW15425   7.683   5.193   4.361 -0.1040 -0.0926 -0.1652
 4728SOL    HW115426   7.777   5.175   4.366  0.0344  0.6328 -0.1896
 4728SOL    HW215427   7.669   5.267   4.420 -0.6130 -0.0131 -0.3809
 4729SOL     OW15428   6.694   7.683   1.498  0.1361 -0.2732  0.2542
 4729SOL    HW115429   6.746   7.607   1.524  1.2218  0.3348 -0.1420
 4729SOL    HW215430   6.662   7.719   1.581 -1.2734 -1.7593  0.3973
 4730SOL     OW15431   2.338   1.554   5.362 -0.4468  0.1852  0.5502
 4730SOL    HW115432   2.380   1.489   5.306  0.6701  1.6203 -0.3149
 4730SOL    HW215433   2.341   1.635   5.312 -3.9313  0.4470  0.6587
 4731SOL     OW15434   0.442   2.511   4.497  0.3055  0.1621  0.0527
 4731SOL    HW115435   0.382   2.585   4.492  1.7514  1.3405 -0.1981
 4731SOL    HW215436   0.481   2.517   4.584  2.4021  1.3077 -0.9111
 4732SOL     OW15437   6.934   2.784   0.335  0.0974  0.2613 -0.4466
 4732SOL    HW115438   6.850   2.828   0.346 -1.2915 -2.5238  0.6045
 4732SOL    HW215439   6.961   2.805   0.246 -1.9968  0.7401 -0.9942
 4733SOL     OW15440   1.295   7.083   6.172  0.7267  0.2283 -0.1753
 4733SOL    HW115441   1.367   7.139   6.145 -0.4044  2.0314  0.4456
 4733SOL    HW215442   1.306   7.072   6.266 -0.0317  0.8868  0.0024
 4734SOL     OW15443   4.342   7.714   7.119  0.1201  0.1192  0.3151
 4734SOL    HW115444   4.263   7.765   7.134 -0.2425 -0.1891 -0.5650
 4734SOL    HW215445   4.411   7.764   7.165 -0.2382  1.3574 -0.4628
 4735SOL     OW15446   5.901   7.189   2.880 -0.1278  0.4459  0.0429
 4735SOL    HW115447   5.842   7.204   2.807 -1.8574 -2.5987  0.7202
 4735SOL    HW215448   5.857   7.229   2.955  0.0373  0.6304  0.0426
 4736SOL     OW15449   3.726   7.727   8.273  0.7625 -0.2746 -0.0356
 4736SOL    HW115450   3.729   7.656   8.337 -2.0071  0.6637  1.2123
 4736SOL    HW215451   3.783   7.795   8.310 -1.4159  0.5691  1.8774
 4737SOL     OW15452   4.704   1.625   1.390 -0.0619  0.1283 -0.2595
 4737SOL    HW115453   4.661   1.711   1.394  0.2705  0.2899 -0.0864
 4737SOL    HW215454   4.633   1.563   1.376  0.0926  0.7821 -4.5574
 4738SOL     OW15455   3.834   6.958   1.288 -0.2694  0.9321  0.7790
 4738SOL    HW115456   3.921   6.920   1.296 -1.5570 -2.1313  0.7583
 4738SOL    HW215457   3.831   6.993   1.199  0.7178  0.5455  0.5859
 4739SOL     OW15458   4.421   5.922   7.430 -0.4428 -0.2124  0.0132
 4739SOL    HW115459   4.436   5.840   7.477 -0.6905 -0.2723 -0.0130
 4739SOL    HW215460   4.456   5.906   7.342 -0.3219 -0.2262  0.0636
 4740SOL     OW15461   5.520   6.625   1.610 -0.4861 -0.2737  0.1536
 4740SOL    HW115462   5.494   6.640   1.701 -0.9198 -0.9293  0.1370
 4740SOL    HW215463   5.447   6.658   1.558 -0.7362 -0.9495  0.0743
 4741SOL     OW15464   7.676   3.175   5.034  0.2885  0.4810  0.4220
 4741SOL    HW115465   7.598   3.230   5.042  0.0060  0.0630  0.5361
 4741SOL    HW215466   7.735   3.207   5.103 -0.0151  0.4128  0.7149
 4742SOL     OW15467   2.002   3.001   2.761 -0.6104 -0.4193  0.5052
 4742SOL    HW115468   1.988   3.096   2.768  0.4909 -0.3368  1.7898
 4742SOL    HW215469   1.962   2.965   2.839  0.3443 -0.8466  0.8018
 4743SOL     OW15470   6.418   2.585   7.704  0.0093 -0.0045  0.4030
 4743SOL    HW115471   6.363   2.645   7.655  1.7636  1.7617  0.5281
 4743SOL    HW215472   6.414   2.617   7.795  0.8514 -0.1436  0.4957
 4744SOL     OW15473   4.554   7.028   2.052  0.3885 -0.2123 -0.4421
 4744SOL    HW115474   4.608   6.949   2.043  0.3805 -0.3654  0.7361
 4744SOL    HW215475   4.602   7.095   2.003  0.8639 -0.7265 -0.6869
 4745SOL     OW15476   6.853   6.337   5.994  0.2522 -0.6405  0.0300
 4745SOL    HW115477   6.811   6.423   5.994  0.5259 -0.5045  0.1967
 4745SOL    HW215478   6.884   6.326   5.904  1.4491  0.0486  0.3438
 4746SOL     OW15479   8.224   2.990   4.836 -0.2681  0.3006  0.4757
 4746SOL    HW115480   8.177   2.926   4.783 -0.9054  0.3101  1.0177
 4746SOL    HW215481   8.304   3.008   4.787 -1.4557  1.3342 -1.1426
 4747SOL     OW15482   0.848   1.177   6.077  0.8698 -0.1657 -0.0089
 4747SOL    HW115483   0.799   1.167   6.159 -1.6060 -0.0611 -1.4272
 4747SOL    HW215484   0.885   1.266   6.082 -0.5356  0.4154  0.3382
 4748SOL     OW15485   8.144   6.916   2.312 -0.3205 -0.6342  0.1200
 4748SOL    HW115486   8.218   6.887   2.260  0.3222  0.7255  0.2631
 4748SOL    HW215487   8.146   7.012   2.306 -2.3249 -0.5956 -0.2494
 4749SOL     OW15488   3.991   7.377   3.307 -0.1860 -0.1526  0.1509
 4749SOL    HW115489   4.018   7.399   3.397  1.8846 -2.9489  0.2903
 4749SOL    HW215490   4.043   7.436   3.252  1.7863 -1.3309  0.6771
 4750SOL     OW15491   5.211   3.189   0.003 -0.5899 -0.2946  0.0234
 4750SOL    HW115492   5.199   3.252   0.074 -1.6854 -1.0761  0.5390
 4750SOL    HW215493   5.153   3.220  -0.066 -1.5918 -1.0929  0.5118
 4751SOL     OW15494   4.748   1.146   5.144  0.4234 -0.5955 -0.3142
 4751SOL    HW115495   4.695   1.085   5.196 -0.2638  0.2578  0.0087
 4751SOL    HW215496   4.826   1.097   5.121  0.1007 -1.4370  0.3653
 4752SOL     OW15497   6.150   2.116   1.137  0.0175  0.4894 -0.3038
 4752SOL    HW115498   6.245   2.108   1.125 -0.0589 -0.8591 -0.0863
 4752SOL    HW215499   6.126   2.192   1.085  1.4024  1.5827  0.6127
 4753SOL     OW15500   5.822   4.238   6.728  0.0245 -0.4534 -0.1330
 4753SOL    HW115501   5.866   4.164   6.769 -0.8490 -0.7268  0.3143
 4753SOL    HW215502   5.742   4.201   6.691 -1.3057  0.5862  1.6404
 4754SOL     OW15503   2.566   4.681   3.665  0.3053 -0.2236 -0.1328
 4754SOL    HW115504   2.542   4.734   3.741 -1.0844  1.1301 -1.4737
 4754SOL    HW215505   2.660   4.666   3.674  0.2251  0.2500  1.6303
 4755SOL     OW15506   0.015   1.845   4.189  0.3734 -0.5223 -0.0978
 4755SOL    HW115507   0.053   1.930   4.212  0.1248 -0.6715  0.8624
 4755SOL    HW215508  -0.071   1.867   4.151  1.4356 -0.1761 -2.4250
 4756SOL     OW15509   6.874   2.094   0.364  0.0016 -0.1866  0.0001
 4756SOL    HW115510   6.786   2.132   0.368 -0.3528 -1.1037  1.4903
 4756SOL    HW215511   6.897   2.096   0.271 -0.9838  1.4122 -0.2356
 4757SOL     OW15512   7.406   3.882   4.893  0.1879 -0.0311  0.0691
 4757SOL    HW115513   7.437   3.972   4.897  1.2638 -0.3550 -0.8249
 4757SOL    HW215514   7.424   3.846   4.980  0.7327  0.2897  0.0881
 4758SOL     OW15515   0.174   4.175   2.954  0.1549 -0.2468 -0.1555
 4758SOL    HW115516   0.183   4.107   3.021  0.6205 -1.0849 -1.0538
 4758SOL    HW215517   0.264   4.199   2.931  0.0150  1.8076  1.2622
 4759SOL     OW15518   2.199   0.973   8.128 -0.2574  0.2683  0.0064
 4759SOL    HW115519   2.110   0.938   8.123 -0.6825  1.5124 -2.5497
 4759SOL    HW215520   2.239   0.947   8.045  2.6988 -2.5194  2.2001
 4760SOL     OW15521   6.548   4.211   2.670  0.1584  0.0333  0.5583
 4760SOL    HW115522   6.540   4.305   2.657  2.4821  0.0515 -1.2203
 4760SOL    HW215523   6.527   4.197   2.762 -1.5199  2.1016  0.5207
 4761SOL     OW15524   7.930   3.620   1.799  0.5735 -0.4569 -0.2615
 4761SOL    HW115525   7.928   3.637   1.705 -1.8975 -0.5436 -0.2493
 4761SOL    HW215526   7.879   3.540   1.810 -0.4467  0.3915  1.3101
 4762SOL     OW15527   4.601   3.151   6.562  0.9709 -0.1937  0.8487
 4762SOL    HW115528   4.563   3.212   6.625  2.2839  1.3352  0.2087
 4762SOL    HW215529   4.597   3.197   6.478  1.2450 -1.3134  0.2068
 4763SOL     OW15530   3.637   4.722   4.014  0.2529  0.4110  0.3695
 4763SOL    HW115531   3.657   4.802   4.062  0.7739 -0.0105  0.8696
 4763SOL    HW215532   3.597   4.751   3.933 -1.4223  1.1185  1.4214
 4764SOL     OW15533   3.144   7.201   0.443 -0.1449  0.6149 -0.3433
 4764SOL    HW115534   3.095   7.209   0.524 -0.4196  2.4513 -0.6617
 4764SOL    HW215535   3.141   7.108   0.422  0.0302  0.0993  1.7958
 4765SOL     OW15536   4.715   6.705   1.772 -0.0942 -0.2003 -0.7782
 4765SOL    HW115537   4.731   6.687   1.680 -0.6240  0.1887 -0.9468
 4765SOL    HW215538   4.639   6.763   1.773  0.7840  0.9730 -0.1867
 4766SOL     OW15539   7.366   8.208   7.015  0.3336  0.3273 -0.1545
 4766SOL    HW115540   7.461   8.201   7.011  0.5034  1.6174  1.1676
 4766SOL    HW215541   7.334   8.152   6.944  2.0804  0.0768 -0.7492
 4767SOL     OW15542   5.334   4.703   5.498  0.6268  0.1445 -0.3032
 4767SOL    HW115543   5.254   4.756   5.496  1.2937  1.2797  1.4682
 4767SOL    HW215544   5.394   4.753   5.553  2.4128 -0.9182 -1.2367
 4768SOL     OW15545   1.850   2.847   5.282 -0.3355  0.0812  0.1912
 4768SOL    HW115546   1.840   2.930   5.327 -1.7390 -0.5843  1.1277
 4768SOL    HW215547   1.797   2.856   5.203 -4.1430 -1.4476  2.4346
 4769SOL     OW15548   3.562   6.816   3.492  0.0611 -0.1270 -0.4950
 4769SOL    HW115549   3.591   6.769   3.570 -0.2701 -1.0037 -0.8969
 4769SOL    HW215550   3.511   6.889   3.526 -1.0055 -1.1279  0.0846
 4770SOL     OW15551   1.608   7.617   1.679 -0.4711  0.4512  0.2414
 4770SOL    HW115552   1.652   7.702   1.683 -0.1793  0.3304 -0.4567
 4770SOL    HW215553   1.678   7.553   1.689 -0.8341  0.3030  1.9904
 4771SOL     OW15554   1.413   3.221   3.285 -0.1293  0.0894 -0.3148
 4771SOL    HW115555   1.480   3.285   3.309 -0.6717  1.5933 -2.6399
 4771SOL    HW215556   1.462   3.149   3.246  0.4790 -0.9297  2.2376
 4772SOL     OW15557   6.157   5.958   0.257 -0.3692  0.2142  0.2487
 4772SOL    HW115558   6.182   5.871   0.289 -1.1912 -0.1338 -0.0471
 4772SOL    HW215559   6.231   5.986   0.202  0.2047  0.0069  0.9121
 4773SOL     OW15560   1.481   2.667   2.144 -0.1025 -0.0968  0.0197
 4773SOL    HW115561   1.497   2.727   2.071 -0.7110  0.0061 -0.0287
 4773SOL    HW215562   1.562   2.668   2.194  0.2708 -0.0523 -0.5757
 4774SOL     OW15563   1.834   0.310   7.506  0.6565 -0.0020 -0.0426
 4774SOL    HW115564   1.834   0.381   7.570  0.0417  1.0094 -1.1572
 4774SOL    HW215565   1.760   0.329   7.449  1.3394 -0.7661 -1.2002
 4775SOL     OW15566   8.191   5.738   4.735 -0.1105  0.3457 -0.1519
 4775SOL    HW115567   8.278   5.755   4.771 -0.5878  2.5747  0.0589
 4775SOL    HW215568   8.190   5.783   4.651 -0.6626 -0.6768 -0.7005
 4776SOL     OW15569   0.633   6.930   7.712 -0.4972  0.1802 -0.8638
 4776SOL    HW115570   0.655   7.013   7.670 -0.0724 -0.1336 -1.2696
 4776SOL    HW215571   0.692   6.867   7.672 -0.6642 -0.2782 -0.3934
 4777SOL     OW15572   5.513   5.010   6.057 -0.2441  0.5798 -0.2757
 4777SOL    HW115573   5.440   5.006   5.995 -0.6197 -0.5761  0.2171
 4777SOL    HW215574   5.591   4.996   6.003 -0.6171 -1.0550 -0.4333
 4778SOL     OW15575   0.780   2.019   6.174 -0.2830  0.7056 -0.1032
 4778SOL    HW115576   0.763   2.047   6.264  1.6607  0.5433  0.3350
 4778SOL    HW215577   0.815   2.098   6.131  1.6792 -0.0016  0.1319
 4779SOL     OW15578   0.335   6.171   1.985  0.4746 -0.1793  0.2141
 4779SOL    HW115579   0.383   6.160   2.067  0.3769  3.4494  0.8280
 4779SOL    HW215580   0.273   6.241   2.003 -0.0546  0.1610 -2.7560
 4780SOL     OW15581   1.713   0.484   4.453 -0.3801  0.1081 -1.0288
 4780SOL    HW115582   1.704   0.580   4.454 -1.0361  0.0622 -1.8629
 4780SOL    HW215583   1.704   0.459   4.545  0.3495  0.8939 -0.7348
 4781SOL     OW15584   7.736   4.726   2.458 -0.0775  0.1515 -0.0069
 4781SOL    HW115585   7.684   4.649   2.481 -0.0276  0.3624  0.7973
 4781SOL    HW215586   7.813   4.721   2.514 -0.6776  1.4683  0.9395
 4782SOL     OW15587   7.268   7.517   0.637 -0.1463 -0.1828 -0.0331
 4782SOL    HW115588   7.334   7.583   0.616 -0.2779  0.0257  0.2105
 4782SOL    HW215589   7.262   7.518   0.733  0.1177 -0.8077 -0.0072
 4783SOL     OW15590   5.222   0.787   8.011  0.3125  0.4512 -0.1767
 4783SOL    HW115591   5.133   0.820   7.997 -0.0443 -0.1058  0.7321
 4783SOL    HW215592   5.223   0.702   7.966  1.0959  1.4683 -2.1388
 4784SOL     OW15593   5.703   4.174   2.287 -0.2212  0.0952  0.3959
 4784SOL    HW115594   5.774   4.227   2.324 -0.4818  0.2945  0.6107
 4784SOL    HW215595   5.702   4.095   2.340  0.4146 -0.2961 -0.1606
 4785SOL     OW15596   7.861   4.150   6.312  0.6970  0.0319  0.1086
 4785SOL    HW115597   7.893   4.190   6.231 -0.4738  0.1933 -0.2871
 4785SOL    HW215598   7.838   4.224   6.368 -0.1609 -0.0785 -0.0916
 4786SOL     OW15599   4.652   3.456   3.546  0.2320 -0.4865  0.2018
 4786SOL    HW115600   4.618   3.545   3.555  1.9679  0.3012 -0.7209
 4786SOL    HW215601   4.711   3.460   3.470 -1.1595 -2.8988 -1.0566
 4787SOL     OW15602   6.963   0.592   0.919  0.1173 -0.2596  0.4119
 4787SOL    HW115603   6.978   0.628   1.006  0.5490 -1.3856  0.8092
 4787SOL    HW215604   7.029   0.523   0.909  0.8111  0.6113 -1.2490
 4788SOL     OW15605   4.899   7.098   1.920 -0.3052 -0.1483  0.0665
 4788SOL    HW115606   4.897   7.049   2.002 -2.7272 -1.6517 -0.8217
 4788SOL    HW215607   4.827   7.161   1.928  0.4195  0.7333 -0.2945
 4789SOL     OW15608   0.745   4.856   2.939 -0.0158  0.0093  0.6932
 4789SOL    HW115609   0.680   4.790   2.962  1.1048 -1.1383  0.5815
 4789SOL    HW215610   0.801   4.814   2.875  0.7520  1.0450  0.6675
 4790SOL     OW15611   0.946   7.487   7.118 -0.0644 -0.3086 -0.0700
 4790SOL    HW115612   0.989   7.557   7.069 -1.5807  0.8577  0.2266
 4790SOL    HW215613   0.932   7.418   7.053 -0.6162  0.5872 -0.9217
 4791SOL     OW15614   4.411   4.173   3.736 -0.1171 -0.1250  0.2800
 4791SOL    HW115615   4.324   4.133   3.746 -0.5443  0.6197 -0.4422
 4791SOL    HW215616   4.400   4.238   3.667  0.5411  1.3891  1.5857
 4792SOL     OW15617   1.612   5.971   0.723  0.5098 -0.6203 -0.0572
 4792SOL    HW115618   1.604   6.013   0.809  2.4052 -0.6081  0.1347
 4792SOL    HW215619   1.522   5.950   0.699 -0.3628  2.1902  0.5206
 4793SOL     OW15620   7.693   4.499   4.527 -0.0946 -0.0170  0.1261
 4793SOL    HW115621   7.748   4.577   4.522  0.7063 -0.7128 -2.8346
 4793SOL    HW215622   7.608   4.531   4.556  0.8501  1.6045  1.1816
 4794SOL     OW15623   7.712   6.333   5.332  0.2352 -0.2864  0.0726
 4794SOL    HW115624   7.740   6.420   5.361  0.5312 -0.2954 -0.1827
 4794SOL    HW215625   7.621   6.325   5.363  0.4852 -0.2241  0.8388
 4795SOL     OW15626   7.292   4.632   3.651  1.0266  0.3249 -0.1885
 4795SOL    HW115627   7.239   4.572   3.599 -1.9487  0.0780  2.9384
 4795SOL    HW215628   7.320   4.580   3.726  1.4917  1.8656  0.7237
 4796SOL     OW15629   0.750   7.986   8.081 -0.9537 -0.4850  0.3403
 4796SOL    HW115630   0.753   7.891   8.070  0.8447 -0.4147  0.1827
 4796SOL    HW215631   0.831   8.018   8.043 -0.1636  0.8444  2.9940
 4797SOL     OW15632   1.652   3.906   6.418 -0.6941  0.0080  0.6607
 4797SOL    HW115633   1.691   3.821   6.397  0.3947  1.0035 -1.4819
 4797SOL    HW215634   1.667   3.917   6.512  2.9674 -0.2727  0.1856
 4798SOL     OW15635   6.214   0.496   4.374  0.0540  0.4591  0.2969
 4798SOL    HW115636   6.197   0.405   4.396 -2.2442  0.7189 -0.2700
 4798SOL    HW215637   6.301   0.496   4.335  0.2991 -1.3981  0.8258
 4799SOL     OW15638   2.589   5.248   0.915  0.5250 -0.1397 -0.7066
 4799SOL    HW115639   2.528   5.222   0.846 -0.8493 -0.7722  0.6965
 4799SOL    HW215640   2.554   5.206   0.994  1.1731  1.8519  0.6685
 4800SOL     OW15641   7.946   7.640   5.796  0.0979  0.0460 -0.4169
 4800SOL    HW115642   7.984   7.719   5.758 -1.1618  1.6726  1.6715
 4800SOL    HW215643   7.853   7.645   5.775 -0.2526 -0.0828  1.0849
 4801SOL     OW15644   1.592   8.298   5.794 -0.5390  0.5250  0.1052
 4801SOL    HW115645   1.587   8.324   5.703  3.4240  1.4979  0.0747
 4801SOL    HW215646   1.503   8.268   5.816 -1.4910  0.0146 -4.0809
 4802SOL     OW15647   1.133   5.276   0.737  0.1931 -0.3847 -0.6854
 4802SOL    HW115648   1.055   5.245   0.783  0.4243  0.2398  0.1412
 4802SOL    HW215649   1.099   5.313   0.656 -0.5362  1.2312  0.3337
 4803SOL     OW15650   0.881   3.614   1.902 -0.3941  0.3767 -0.3521
 4803SOL    HW115651   0.856   3.572   1.819  1.4439  0.2491 -0.8496
 4803SOL    HW215652   0.931   3.691   1.875  0.2676  0.2969  0.6456
 4804SOL     OW15653   5.344   3.217   1.890 -0.3169  0.3171 -0.2724
 4804SOL    HW115654   5.261   3.211   1.937 -0.0190 -1.2287  0.0684
 4804SOL    HW215655   5.410   3.222   1.959  0.0007 -0.2543 -0.5324
 4805SOL     OW15656   6.031   2.571   1.006  0.7306  0.4650 -0.2580
 4805SOL    HW115657   6.094   2.644   1.006 -0.4092  1.4776 -0.8783
 4805SOL    HW215658   5.994   2.572   1.094  1.1739  0.2183 -0.0652
 4806SOL     OW15659   3.196   6.972   3.811  0.0242  0.3669 -0.1694
 4806SOL    HW115660   3.182   7.066   3.816 -1.6564  0.0726  1.5828
 4806SOL    HW215661   3.110   6.934   3.832  1.1762 -1.5345  1.3354
 4807SOL     OW15662   1.157   4.579   2.952 -0.1152  0.3800 -0.1385
 4807SOL    HW115663   1.117   4.650   3.001 -3.4136 -2.2566  1.1786
 4807SOL    HW215664   1.214   4.535   3.015 -0.5558 -0.0505 -0.0363
 4808SOL     OW15665   4.527   3.450   4.456 -0.1707 -0.0313  0.6419
 4808SOL    HW115666   4.600   3.425   4.513 -0.0935  1.3025  1.1496
 4808SOL    HW215667   4.450   3.412   4.498 -0.1587  1.2347  1.8392
 4809SOL     OW15668   1.725   2.599   3.424 -0.3899 -0.0255 -0.0656
 4809SOL    HW115669   1.733   2.693   3.413  0.4922 -0.0412  0.4729
 4809SOL    HW215670   1.642   2.588   3.471  0.0067  0.5337  0.7616
 4810SOL     OW15671   7.935   0.341   1.569  0.2968  1.0947 -0.4551
 4810SOL    HW115672   7.919   0.252   1.600  0.4100  1.6918  1.4059
 4810SOL    HW215673   7.853   0.367   1.526  0.3156  0.0526 -1.1326
 4811SOL     OW15674   2.641   4.300   0.072 -0.1725  0.1062  0.4240
 4811SOL    HW115675   2.709   4.325   0.136 -0.5250  1.0727  0.4299
 4811SOL    HW215676   2.646   4.368   0.005 -0.1501 -0.6316 -0.3257
 4812SOL     OW15677   7.017   4.383   0.279 -0.4815 -0.0467  0.0765
 4812SOL    HW115678   7.064   4.403   0.198 -0.6161  1.6452  0.3952
 4812SOL    HW215679   7.086   4.353   0.339 -0.0506  0.8406  0.0292
 4813SOL     OW15680   2.637   0.259   8.298 -0.2130 -0.2297  0.2429
 4813SOL    HW115681   2.602   0.264   8.210  1.1852  0.0394 -0.3160
 4813SOL    HW215682   2.687   0.178   8.300 -1.2808 -0.8708  1.1865
 4814SOL     OW15683   3.917   2.360   0.755  0.5307  0.4965 -0.2533
 4814SOL    HW115684   3.848   2.296   0.774  1.5201 -0.2825  0.8067
 4814SOL    HW215685   3.889   2.440   0.800  1.4514 -0.5036  2.1846
 4815SOL     OW15686   1.783   1.539   6.680  0.8691 -0.1482  0.1065
 4815SOL    HW115687   1.707   1.532   6.621 -0.0034  1.3903  0.9925
 4815SOL    HW215688   1.817   1.450   6.687 -0.9112 -0.8757 -0.2540
 4816SOL     OW15689   1.651   1.211   0.440 -0.0739 -0.0308  0.3175
 4816SOL    HW115690   1.613   1.285   0.489 -0.5933  1.0357 -1.6429
 4816SOL    HW215691   1.739   1.201   0.477  0.3861  2.2443 -0.0719
 4817SOL     OW15692   6.991   5.058   6.691  0.6711 -0.0821 -0.4884
 4817SOL    HW115693   7.065   5.026   6.741  1.5765  0.3496 -1.5379
 4817SOL    HW215694   6.994   5.010   6.608 -1.4232 -1.5516  0.2531
 4818SOL     OW15695   4.778   4.584   4.648 -0.1797 -0.4774 -0.1476
 4818SOL    HW115696   4.692   4.595   4.607  0.1014 -0.5773 -0.7765
 4818SOL    HW215697   4.800   4.670   4.683  0.6865  0.2491 -2.3993
 4819SOL     OW15698   5.956   5.414   0.235 -0.0494  0.1248  0.2595
 4819SOL    HW115699   6.031   5.358   0.256 -0.8667 -1.6876 -1.5125
 4819SOL    HW215700   5.937   5.460   0.317  1.8247 -0.7730  1.2369
 4820SOL     OW15701   2.389   2.133   2.310  0.4523 -0.1735 -0.1430
 4820SOL    HW115702   2.400   2.220   2.347 -1.1842 -0.8755  2.1012
 4820SOL    HW215703   2.402   2.074   2.384 -2.6804 -1.6224 -0.6541
 4821SOL     OW15704   2.803   2.902   5.518  0.1882  0.3704 -0.1355
 4821SOL    HW115705   2.834   2.865   5.436 -0.9916 -0.5729 -0.1700
 4821SOL    HW215706   2.708   2.905   5.509  0.1454  1.6616  0.6112
 4822SOL     OW15707   3.881   7.534   4.428  0.1253 -0.7818  0.1513
 4822SOL    HW115708   3.947   7.529   4.358  0.2879 -0.0046  0.2415
 4822SOL    HW215709   3.932   7.531   4.509  0.0255 -0.5874  0.2232
 4823SOL     OW15710   1.243   0.184   1.164 -0.1024 -0.0029 -0.5453
 4823SOL    HW115711   1.281   0.099   1.141  0.2743 -0.1332  0.5116
 4823SOL    HW215712   1.268   0.242   1.092  0.2968 -0.6096 -0.8988
 4824SOL     OW15713   5.119   3.199   7.961 -0.2319 -0.0600  0.5943
 4824SOL    HW115714   5.098   3.106   7.973  0.5198 -0.3990 -0.5438
 4824SOL    HW215715   5.215   3.202   7.967 -0.2066  0.5211 -0.0582
 4825SOL     OW15716   4.740   5.279   4.638  0.3021  0.2095 -0.3990
 4825SOL    HW115717   4.754   5.336   4.714  0.4836  0.1832 -0.4130
 4825SOL    HW215718   4.790   5.200   4.658 -0.2899 -0.1120 -0.1894
 4826SOL     OW15719   4.112   2.121   3.885  1.0690 -0.1977 -0.0114
 4826SOL    HW115720   4.122   2.193   3.947 -1.3317  0.8875 -0.8117
 4826SOL    HW215721   4.109   2.164   3.799  0.0089 -1.2738 -0.5234
 4827SOL     OW15722   3.436   5.102   3.466  0.2808 -0.1423  0.1180
 4827SOL    HW115723   3.450   5.172   3.530 -1.0812 -1.1798  1.6116
 4827SOL    HW215724   3.347   5.116   3.435  0.8107  0.1343 -1.3041
 4828SOL     OW15725   1.229   0.801   1.934  0.1488 -0.1520 -0.6763
 4828SOL    HW115726   1.252   0.894   1.931 -0.9746  0.1439 -0.4127
 4828SOL    HW215727   1.144   0.796   1.890  0.5511 -1.1651 -1.3411
 4829SOL     OW15728   7.620   8.075   4.855 -0.3761 -0.0603 -0.0208
 4829SOL    HW115729   7.570   7.997   4.828  0.7248 -0.3011 -1.4444
 4829SOL    HW215730   7.670   8.046   4.931  0.2578 -0.8515 -0.7211
 4830SOL     OW15731   4.638   6.654   4.147 -0.0035 -0.1036  0.3911
 4830SOL    HW115732   4.646   6.597   4.070 -0.1206 -0.7221  0.8387
 4830SOL    HW215733   4.632   6.594   4.221  2.5842  0.5129  1.1304
 4831SOL     OW15734   2.274   2.352   4.842  0.4382  0.3183  0.0828
 4831SOL    HW115735   2.273   2.404   4.761  4.0278  2.8601  1.5604
 4831SOL    HW215736   2.348   2.292   4.831 -1.8282 -2.5528 -0.3207
 4832SOL     OW15737   4.635   1.020   5.777 -0.4834 -0.0437  0.1548
 4832SOL    HW115738   4.560   1.079   5.773 -0.2603  0.2098 -0.2640
 4832SOL    HW215739   4.682   1.047   5.856  0.3814  1.2500 -0.7930
 4833SOL     OW15740   3.556   1.843   4.201  0.2251  0.1995  0.4002
 4833SOL    HW115741   3.497   1.768   4.198  0.4266  0.0812 -0.5424
 4833SOL    HW215742   3.591   1.842   4.291  0.9754 -1.4050  0.1033
 4834SOL     OW15743   6.225   2.255   8.158 -0.2659  0.2347 -0.3309
 4834SOL    HW115744   6.267   2.172   8.136 -1.4264 -0.4396 -0.0697
 4834SOL    HW215745   6.240   2.266   8.251  1.4933  1.2618 -0.7164
 4835SOL     OW15746   2.322   8.036   7.421 -0.3124  0.2963 -0.0233
 4835SOL    HW115747   2.374   8.048   7.501 -1.9915 -0.4173  1.2258
 4835SOL    HW215748   2.380   8.061   7.350  0.7463  2.3983  1.5371
 4836SOL     OW15749   2.825   2.688   3.362 -0.6732  0.1275  0.3375
 4836SOL    HW115750   2.737   2.714   3.388  0.0488  0.6024  2.4100
 4836SOL    HW215751   2.874   2.770   3.358 -0.3238 -0.1236 -0.8715
 4837SOL     OW15752   5.903   2.314   5.113 -0.1859 -0.6265 -0.5040
 4837SOL    HW115753   5.984   2.353   5.078  0.0774  0.3522  1.1346
 4837SOL    HW215754   5.924   2.295   5.205 -1.0778 -2.5015 -0.6780
 4838SOL     OW15755   2.983   4.102   5.397 -0.0572 -0.0948 -0.0175
 4838SOL    HW115756   2.906   4.063   5.437 -0.5311  0.5917 -0.2479
 4838SOL    HW215757   3.006   4.174   5.454  1.1947 -1.0868  0.7487
 4839SOL     OW15758   2.022   6.509   1.775 -0.3813 -0.5344  0.2707
 4839SOL    HW115759   2.002   6.416   1.775 -2.6827 -0.0646 -0.4333
 4839SOL    HW215760   2.017   6.534   1.868 -0.6268 -0.9356  0.3666
 4840SOL     OW15761   7.760   7.082   0.201 -0.2617 -0.2045 -0.2616
 4840SOL    HW115762   7.742   7.006   0.257 -1.7315 -0.2183 -0.7154
 4840SOL    HW215763   7.673   7.118   0.181  0.3723  1.1022 -0.7301
 4841SOL     OW15764   4.284   1.305   1.171 -0.2695 -0.9521 -0.1338
 4841SOL    HW115765   4.301   1.386   1.122  1.2496 -1.2241 -0.0875
 4841SOL    HW215766   4.257   1.242   1.104 -0.3703 -0.7048 -0.3242
 4842SOL     OW15767   6.154   1.003   5.204 -0.0631  0.3683 -0.0343
 4842SOL    HW115768   6.148   1.035   5.114  0.4067  2.0632  0.5044
 4842SOL    HW215769   6.220   0.934   5.202  0.0632  0.5186 -0.9568
 4843SOL     OW15770   4.940   6.306   8.211 -0.8398  0.1896  0.4081
 4843SOL    HW115771   4.996   6.382   8.225 -0.1908 -0.3299  0.6679
 4843SOL    HW215772   4.917   6.310   8.118 -0.3366  0.3823  0.2924
 4844SOL     OW15773   4.975   4.559   6.297 -0.1347 -0.0577  0.2611
 4844SOL    HW115774   4.990   4.591   6.209 -0.8795  1.7679  0.7820
 4844SOL    HW215775   4.888   4.517   6.294  0.3049 -0.9557 -0.1171
 4845SOL     OW15776   2.123   2.293   3.208 -0.3701  0.3364  0.5291
 4845SOL    HW115777   2.036   2.256   3.220  0.8085 -2.5569  0.5467
 4845SOL    HW215778   2.136   2.292   3.113 -0.4565  1.0628  0.5046
 4846SOL     OW15779   1.402   1.355   2.124  0.0863  0.1691 -0.3840
 4846SOL    HW115780   1.451   1.435   2.105 -1.0517  0.8357 -0.6102
 4846SOL    HW215781   1.380   1.319   2.038 -1.2747  0.8080 -0.3216
 4847SOL     OW15782   6.851   0.141   5.808 -0.2095 -0.2726  0.4572
 4847SOL    HW115783   6.906   0.103   5.877  1.2706 -1.1301 -1.1325
 4847SOL    HW215784   6.785   0.074   5.790  1.6562 -1.6636 -1.4884
 4848SOL     OW15785   2.270   5.261   4.331 -0.2660 -0.6388  0.3586
 4848SOL    HW115786   2.310   5.277   4.416  1.0779 -1.2229 -0.1528
 4848SOL    HW215787   2.267   5.346   4.289 -1.1291 -0.3106  1.0642
 4849SOL     OW15788   3.621   5.291   1.895  0.1492  0.1478  0.1099
 4849SOL    HW115789   3.676   5.233   1.842 -1.4073  0.7218 -2.2270
 4849SOL    HW215790   3.587   5.234   1.964  2.2172 -0.6215  0.5577
 4850SOL     OW15791   1.595   1.342   7.755  0.3443  0.2558 -0.6314
 4850SOL    HW115792   1.565   1.266   7.705  0.1272  0.3154 -0.5943
 4850SOL    HW215793   1.535   1.347   7.829  0.1585  0.6532 -0.8067
 4851SOL     OW15794   0.548   0.165   5.647 -0.4373 -0.1689  0.1755
 4851SOL    HW115795   0.457   0.177   5.620 -0.6101 -0.7216  0.4866
 4851SOL    HW215796   0.545   0.166   5.743 -0.3231 -1.5237  0.2114
 4852SOL     OW15797   4.266   6.646   4.011  0.7070 -0.5602  0.1866
 4852SOL    HW115798   4.217   6.718   3.970  1.8109  1.2720  2.0090
 4852SOL    HW215799   4.355   6.655   3.977  0.4526 -2.1952 -0.9687
 4853SOL     OW15800   3.899   7.597   7.758  0.4574  0.5164  0.5572
 4853SOL    HW115801   3.838   7.555   7.698  1.2019 -1.9721  1.4658
 4853SOL    HW215802   3.888   7.691   7.743 -1.6863  0.0187 -1.1286
 4854SOL     OW15803   0.958   2.786   0.696 -0.1179  0.4204  0.0036
 4854SOL    HW115804   0.942   2.707   0.746 -0.9274  1.0026  0.6791
 4854SOL    HW215805   1.051   2.783   0.674 -0.2845 -1.0215 -0.5158
 4855SOL     OW15806   8.297   1.736   7.886 -0.8411  0.3605 -0.3120
 4855SOL    HW115807   8.283   1.767   7.975  1.4816  0.5516  0.0172
 4855SOL    HW215808   8.320   1.815   7.837 -1.4983  0.1592 -0.9495
 4856SOL     OW15809   1.824   3.499   1.762 -0.1338 -0.0675 -0.0866
 4856SOL    HW115810   1.805   3.486   1.669  0.3099  1.5584 -0.4229
 4856SOL    HW215811   1.920   3.505   1.766 -0.2521  2.0656  0.1411
 4857SOL     OW15812   6.473   0.871   7.292 -0.3955 -0.4910 -0.1700
 4857SOL    HW115813   6.553   0.828   7.321 -1.3858 -0.3560  2.9262
 4857SOL    HW215814   6.484   0.962   7.320 -0.8213 -0.0264 -1.4758
 4858SOL     OW15815   6.648   0.944   0.634  0.7446 -0.3001 -0.2039
 4858SOL    HW115816   6.688   0.857   0.642  0.8088 -0.3000 -0.5068
 4858SOL    HW215817   6.562   0.926   0.595  1.0482 -0.1628 -0.9528
 4859SOL     OW15818   8.139   7.355   0.027  0.8513  0.1224 -0.0465
 4859SOL    HW115819   8.181   7.298  -0.037 -0.1118  0.5580 -1.0625
 4859SOL    HW215820   8.050   7.321   0.036  0.9353  0.1391  0.9734
 4860SOL     OW15821   2.341   4.660   1.752  0.0245 -0.1404  0.3203
 4860SOL    HW115822   2.253   4.659   1.789 -0.2226  0.2212 -0.2382
 4860SOL    HW215823   2.326   4.661   1.657  0.6184  1.1530  0.2329
 4861SOL     OW15824   2.579   6.582   1.709 -0.2391 -0.3740 -0.6131
 4861SOL    HW115825   2.657   6.531   1.687  1.0377  0.6964  1.3812
 4861SOL    HW215826   2.579   6.654   1.646 -1.3079 -2.0394 -2.5666
 4862SOL     OW15827   5.418   7.782   4.188 -0.2105  0.2903 -0.4043
 4862SOL    HW115828   5.481   7.792   4.259 -2.0649  2.4614  0.9908
 4862SOL    HW215829   5.361   7.858   4.194 -2.1989 -0.9430 -2.4327
 4863SOL     OW15830   3.091   4.386   0.030 -0.3901  0.1293 -0.0942
 4863SOL    HW115831   3.175   4.399  -0.014  1.4814 -1.5973  2.8156
 4863SOL    HW215832   3.034   4.349  -0.038  1.5151  0.2413 -1.8069
 4864SOL     OW15833   1.588   6.859   5.519  0.2576 -0.5137  0.1779
 4864SOL    HW115834   1.661   6.825   5.572  0.3576 -2.5065 -1.1946
 4864SOL    HW215835   1.606   6.953   5.512  0.9497 -0.4296  2.5509
 4865SOL     OW15836   5.909   5.549   4.980  0.0973  0.1935  0.1045
 4865SOL    HW115837   5.989   5.520   5.024 -0.0131 -0.4222 -0.0976
 4865SOL    HW215838   5.927   5.538   4.887  0.6591  2.3661 -0.0584
 4866SOL     OW15839   4.529   2.749   0.767 -0.1630  0.0568  0.7590
 4866SOL    HW115840   4.611   2.699   0.774 -0.1878  0.0899  1.3083
 4866SOL    HW215841   4.490   2.719   0.685  0.0128 -0.5389  0.8915
 4867SOL     OW15842   6.953   7.244   0.438 -0.0518 -0.1931 -0.3459
 4867SOL    HW115843   6.942   7.263   0.345  0.4456 -0.4380 -0.4554
 4867SOL    HW215844   6.872   7.274   0.478 -0.6935 -1.0327 -0.9951
 4868SOL     OW15845   5.494   5.629   0.172 -0.3341  0.0375  0.3982
 4868SOL    HW115846   5.401   5.640   0.193 -1.3341  0.2037 -3.7733
 4868SOL    HW215847   5.502   5.539   0.143  0.5064  0.4713 -0.7567
 4869SOL     OW15848   6.490   6.839   8.098  0.6773  0.0390  0.1609
 4869SOL    HW115849   6.548   6.891   8.154  1.3103 -1.6114  1.0556
 4869SOL    HW215850   6.489   6.886   8.014  0.9925  1.6538  1.0497
 4870SOL     OW15851   0.934   5.915   3.901 -0.5879  0.1250  0.4001
 4870SOL    HW115852   0.889   5.841   3.860 -1.1681  1.2632 -1.0231
 4870SOL    HW215853   0.916   5.990   3.845  1.7967  0.9422  0.6392
 4871SOL     OW15854   0.221   1.374   6.431 -0.0588  0.0758  0.3272
 4871SOL    HW115855   0.284   1.363   6.502 -0.7988  0.1442  1.0057
 4871SOL    HW215856   0.147   1.318   6.456 -0.3671  0.1814 -0.3353
 4872SOL     OW15857   5.941   0.290   8.263  0.3453  0.1073  0.2401
 4872SOL    HW115858   5.945   0.216   8.202  1.6275 -1.2676  1.9350
 4872SOL    HW215859   6.029   0.327   8.261  0.1815  0.5281  0.6986
 4873SOL     OW15860   3.743   1.672   2.068  0.0180 -0.0964  0.4637
 4873SOL    HW115861   3.763   1.736   2.136  1.2441  1.9088 -1.7085
 4873SOL    HW215862   3.666   1.708   2.024  0.7812 -0.0624 -0.8457
 4874SOL     OW15863   1.499   2.786   0.591 -0.1356 -0.1866 -0.6960
 4874SOL    HW115864   1.430   2.771   0.656  0.2127 -0.5503 -0.4130
 4874SOL    HW215865   1.452   2.789   0.508 -0.7823  1.7471 -0.3026
 4875SOL     OW15866   1.522   0.969   2.707  0.1571  0.2135  0.4288
 4875SOL    HW115867   1.449   1.027   2.686 -1.7939 -1.8063  1.4157
 4875SOL    HW215868   1.583   1.023   2.757 -1.7605  1.3497  1.5707
 4876SOL     OW15869   0.887   5.328   4.706 -0.1848  0.3941  0.3243
 4876SOL    HW115870   0.969   5.323   4.656  0.6010 -1.0320  1.6703
 4876SOL    HW215871   0.915   5.323   4.798 -1.7614  0.3076  0.8187
 4877SOL     OW15872   1.239   2.171   8.234 -0.7497 -0.5088 -0.5905
 4877SOL    HW115873   1.322   2.206   8.266 -1.6716  0.0711  1.2552
 4877SOL    HW215874   1.257   2.080   8.212  0.7975  0.1033 -1.8964
 4878SOL     OW15875   1.185   2.016   6.332  0.2400  0.0709 -0.6238
 4878SOL    HW115876   1.260   2.076   6.336  0.5947 -0.4743  1.3622
 4878SOL    HW215877   1.171   2.002   6.238  1.3132  1.8035 -1.0760
 4879SOL     OW15878   2.015   5.078   3.387 -0.2127 -0.7725 -0.2589
 4879SOL    HW115879   1.937   5.131   3.403  0.7237  0.4638  0.2916
 4879SOL    HW215880   2.012   5.010   3.454  0.6436  0.9513  1.5895
 4880SOL     OW15881   3.059   0.010   1.007  0.1132  0.1869  0.2474
 4880SOL    HW115882   3.036   0.044   0.920  0.6142  2.1391  0.8666
 4880SOL    HW215883   3.123  -0.059   0.990  1.2445  1.4871 -0.8582
 4881SOL     OW15884   4.638   3.318   5.607  0.7633 -0.2692  0.6729
 4881SOL    HW115885   4.707   3.339   5.670 -0.5980  1.4783  1.6255
 4881SOL    HW215886   4.585   3.252   5.651  2.5417 -2.6259 -0.5942
 4882SOL     OW15887   5.415   7.651   7.852  0.3708 -0.2704  0.1341
 4882SOL    HW115888   5.322   7.628   7.851  0.5474 -1.1013  1.4008
 4882SOL    HW215889   5.457   7.577   7.896  1.7605 -0.3586 -1.3246
 4883SOL     OW15890   2.524   6.817   7.169 -0.6762  0.3698  0.4034
 4883SOL    HW115891   2.497   6.899   7.211 -0.0325  0.4634  0.6479
 4883SOL    HW215892   2.507   6.750   7.235 -1.3910  0.2814  0.1281
 4884SOL     OW15893   6.940   2.478   7.664 -0.1744 -0.2549 -0.5107
 4884SOL    HW115894   6.893   2.552   7.702  1.0400 -0.0374  0.5946
 4884SOL    HW215895   6.896   2.462   7.581 -0.8297  1.3280 -0.4838
 4885SOL     OW15896   2.270   0.904   4.660  0.0379  0.3124  0.4743
 4885SOL    HW115897   2.361   0.905   4.689 -0.4042  0.5441  1.9365
 4885SOL    HW215898   2.229   0.834   4.710 -0.4034 -0.3377 -0.7870
 4886SOL     OW15899   0.398   6.568   3.788 -0.1943  0.2742 -0.4360
 4886SOL    HW115900   0.392   6.485   3.834  0.2618  0.1152 -0.6653
 4886SOL    HW215901   0.491   6.590   3.788 -0.4792  1.5627  1.0047
 4887SOL     OW15902   3.082   8.152   3.633  0.1006 -0.2952  0.1619
 4887SOL    HW115903   3.010   8.158   3.571  0.1970  0.4125  0.1238
 4887SOL    HW215904   3.073   8.064   3.671  0.0676 -0.7481 -0.8786
 4888SOL     OW15905   2.037   6.026   3.574  0.2934 -0.7830 -0.8469
 4888SOL    HW115906   1.983   6.100   3.602  3.2822  0.9477  0.6043
 4888SOL    HW215907   2.018   5.957   3.637 -0.3662 -0.2598 -0.4655
 4889SOL     OW15908   6.773   4.121   1.681  0.4023 -0.7310  0.5016
 4889SOL    HW115909   6.770   4.076   1.597  0.5010  1.2041 -0.5863
 4889SOL    HW215910   6.865   4.145   1.692  0.1100  0.5150  0.3194
 4890SOL     OW15911   6.482   6.657   1.572  0.4302 -0.1411 -0.0828
 4890SOL    HW115912   6.400   6.630   1.613  0.2953 -0.1899 -0.3809
 4890SOL    HW215913   6.548   6.598   1.609  0.4769  0.4748  0.8192
 4891SOL     OW15914   7.819   3.334   2.528 -0.4466  0.3267  0.7851
 4891SOL    HW115915   7.827   3.240   2.539 -0.9630  0.0674 -0.9360
 4891SOL    HW215916   7.901   3.360   2.486  0.1819  0.8279  2.2890
 4892SOL     OW15917   3.277   4.625   5.100 -0.5454 -0.2075 -0.6500
 4892SOL    HW115918   3.285   4.541   5.145  0.2074 -0.4486 -1.2067
 4892SOL    HW215919   3.237   4.684   5.164 -0.8748 -0.9368 -0.1869
 4893SOL     OW15920   0.749   3.978   4.981 -0.9747  0.1655  0.1648
 4893SOL    HW115921   0.682   3.916   5.011 -0.9215 -0.0375 -0.1351
 4893SOL    HW215922   0.722   4.000   4.892 -1.4126  1.1496  0.5245
 4894SOL     OW15923   6.460   4.152   0.771 -0.5457 -0.0080 -0.1250
 4894SOL    HW115924   6.413   4.221   0.725  0.4141 -1.5448 -3.5602
 4894SOL    HW215925   6.391   4.102   0.815 -1.4195  1.8234  0.6372
 4895SOL     OW15926   2.641   1.655   0.796 -0.4123  0.2382  0.5569
 4895SOL    HW115927   2.575   1.640   0.727 -0.1644 -0.2446  0.4194
 4895SOL    HW215928   2.630   1.747   0.820 -0.7847  0.3002  0.1644
 4896SOL     OW15929   8.119   5.723   1.238 -0.1693 -0.7250  0.3120
 4896SOL    HW115930   8.032   5.760   1.252  0.1981  0.3927 -0.3038
 4896SOL    HW215931   8.113   5.633   1.272 -1.2466 -0.3098  1.2433
 4897SOL     OW15932   4.154   7.712   6.421  0.1973 -0.2572  0.5158
 4897SOL    HW115933   4.210   7.634   6.429  0.4374 -0.1063  0.2985
 4897SOL    HW215934   4.215   7.783   6.402  0.0580  0.1182  1.4594
 4898SOL     OW15935   3.984   3.605   1.976  0.9375 -0.1588 -0.3291
 4898SOL    HW115936   4.015   3.515   1.969  1.1010 -0.0905 -0.4964
 4898SOL    HW215937   4.015   3.647   1.895 -2.7378 -1.0558 -2.3290
 4899SOL     OW15938   8.035   7.797   0.859 -0.1047 -0.3099  0.1082
 4899SOL    HW115939   7.952   7.792   0.812 -1.5633  1.7963  2.2624
 4899SOL    HW215940   8.099   7.823   0.793 -1.1814 -1.8089 -1.5650
 4900SOL     OW15941   6.079   1.051   0.469 -0.4818  0.0192  0.0392
 4900SOL    HW115942   6.059   1.015   0.555 -0.7308 -2.2386 -0.9144
 4900SOL    HW215943   6.165   1.091   0.478  0.8634 -2.9081  0.5870
 4901SOL     OW15944   3.879   6.302   7.339  0.3286 -0.1290  0.3963
 4901SOL    HW115945   3.820   6.340   7.274 -0.5542  0.0572  1.2922
 4901SOL    HW215946   3.843   6.215   7.357  2.4456 -1.5216 -1.7798
 4902SOL     OW15947   2.815   0.960   2.582  0.2168 -0.2061 -0.0931
 4902SOL    HW115948   2.760   1.014   2.638 -0.5843  0.2238 -1.2797
 4902SOL    HW215949   2.762   0.942   2.505  0.8342 -1.8769 -0.1601
 4903SOL     OW15950   4.086   0.689   5.296  0.3450  0.2193 -0.1482
 4903SOL    HW115951   4.049   0.748   5.361  0.4265 -0.1312  0.2139
 4903SOL    HW215952   4.013   0.634   5.268  0.7188 -0.8959  1.0264
 4904SOL     OW15953   3.117   1.402   3.810 -0.0773  0.6065 -0.5651
 4904SOL    HW115954   3.122   1.497   3.808  0.4077  0.5905  0.0339
 4904SOL    HW215955   3.177   1.375   3.879 -0.6089 -0.1080 -0.3677
 4905SOL     OW15956   0.521   1.628   6.221  0.5188 -0.1808 -0.0334
 4905SOL    HW115957   0.452   1.581   6.174  0.8032 -0.2307 -0.4031
 4905SOL    HW215958   0.602   1.603   6.176  0.5837  1.3110 -0.7602
 4906SOL     OW15959   5.593   5.229   1.486 -0.8574 -0.2234 -0.3331
 4906SOL    HW115960   5.586   5.317   1.447 -0.6687 -0.5217 -1.0458
 4906SOL    HW215961   5.533   5.175   1.434  0.5437 -0.9609 -1.2034
 4907SOL     OW15962   2.878   1.017   8.293  0.1303  0.8045  0.6066
 4907SOL    HW115963   2.840   1.091   8.246  1.4674  0.9859 -0.1996
 4907SOL    HW215964   2.840   0.940   8.250  0.7098  0.9818 -0.2283
 4908SOL     OW15965   4.276   3.161   6.540 -0.0957 -0.0127  0.6475
 4908SOL    HW115966   4.280   3.106   6.462  1.7914 -0.6825  1.1823
 4908SOL    HW215967   4.189   3.200   6.538 -0.6399 -1.2709 -0.9347
 4909SOL     OW15968   1.980   8.035   4.079 -0.5811 -0.1526  0.0271
 4909SOL    HW115969   2.014   8.111   4.031  2.0248 -0.2346  1.6349
 4909SOL    HW215970   1.929   8.073   4.151  1.6543  0.1650  1.5014
 4910SOL     OW15971   4.037   4.089   2.835  0.1745 -0.2316 -0.8374
 4910SOL    HW115972   4.087   4.009   2.846 -0.1185 -0.2248  0.6610
 4910SOL    HW215973   4.067   4.147   2.906 -0.5313  0.4999 -1.1203
 4911SOL     OW15974   0.701   4.263   2.934 -0.2984 -0.3696  0.3932
 4911SOL    HW115975   0.774   4.227   2.884 -0.1288 -0.0043  0.3712
 4911SOL    HW215976   0.729   4.352   2.956 -0.9138 -0.0797  0.0240
 4912SOL     OW15977   3.353   8.005   7.829  0.3036 -0.5501  0.5160
 4912SOL    HW115978   3.266   8.043   7.818 -0.7854 -2.8384  0.8247
 4912SOL    HW215979   3.365   7.999   7.924  1.3682  0.9780  0.4893
 4913SOL     OW15980   0.577   4.125   1.166  0.0050  0.1798 -0.4298
 4913SOL    HW115981   0.638   4.072   1.116  0.0069  0.1280 -0.3727
 4913SOL    HW215982   0.507   4.065   1.190  0.3846  0.0251  0.2875
 4914SOL     OW15983   7.775   1.480   5.294  0.0244 -0.5353 -0.9923
 4914SOL    HW115984   7.731   1.409   5.246  0.0785  0.2326 -2.2072
 4914SOL    HW215985   7.704   1.529   5.335  0.0344 -1.7426  0.5158
 4915SOL     OW15986   7.431   3.795   7.760 -0.4770  0.0968 -0.5085
 4915SOL    HW115987   7.381   3.850   7.821  0.2345  1.2666 -0.9587
 4915SOL    HW215988   7.489   3.744   7.817 -2.2372 -1.3386  0.0191
 4916SOL     OW15989   2.460   1.375   4.060 -0.3456  0.0680 -0.2820
 4916SOL    HW115990   2.460   1.433   3.983  0.1929  0.4175 -0.0219
 4916SOL    HW215991   2.370   1.375   4.090  0.0772  2.6661  1.1342
 4917SOL     OW15992   7.310   6.284   6.022  0.6776 -0.2242 -0.1128
 4917SOL    HW115993   7.399   6.320   6.019  0.0150  1.7480  2.2245
 4917SOL    HW215994   7.254   6.357   5.997 -0.5494 -0.1236  2.7109
 4918SOL     OW15995   7.015   0.328   0.691  0.0093  0.5952  0.3688
 4918SOL    HW115996   7.014   0.363   0.602 -3.2481  0.0506  0.1673
 4918SOL    HW215997   6.928   0.345   0.725  0.8522 -0.2469  3.0816
 4919SOL     OW15998   1.396   3.436   2.325 -0.4007 -0.0690 -0.2894
 4919SOL    HW115999   1.406   3.481   2.241  0.1038  0.3716  0.0021
 4919SOL    HW216000   1.308   3.458   2.353 -0.3386  0.3246 -0.3951
 4920SOL     OW16001   4.599   8.174   3.769 -0.0056 -0.2676  0.2851
 4920SOL    HW116002   4.664   8.164   3.839  1.0158  1.2914 -0.4336
 4920SOL    HW216003   4.534   8.234   3.806  0.1836  0.0264  0.1391
 4921SOL     OW16004   5.661   8.090   6.660 -0.1656  0.0191  0.0463
 4921SOL    HW116005   5.648   8.127   6.573  0.9417 -0.3948 -0.3073
 4921SOL    HW216006   5.719   8.015   6.645  0.1235  0.0194  1.1526
 4922SOL     OW16007   0.965   4.554   0.155 -0.1307 -0.4411  0.5423
 4922SOL    HW116008   0.908   4.536   0.080  0.3497  0.8287 -0.1277
 4922SOL    HW216009   1.053   4.555   0.119 -0.1223  3.4667  0.4807
 4923SOL     OW16010   1.786   4.231   6.432 -0.5081 -0.0677  0.3482
 4923SOL    HW116011   1.746   4.247   6.518 -0.5433 -1.0778  0.5179
 4923SOL    HW216012   1.722   4.265   6.370 -0.1178  1.4264  0.7407
 4924SOL     OW16013   1.543   4.570   4.322 -0.3739 -0.8119  0.0533
 4924SOL    HW116014   1.553   4.638   4.389  2.3798 -1.7160  0.6098
 4924SOL    HW216015   1.456   4.535   4.337 -1.2197  1.4911  0.7989
 4925SOL     OW16016   0.869   0.636   6.181  0.0016 -0.1405 -0.2053
 4925SOL    HW116017   0.817   0.699   6.231 -0.0313 -0.6290  0.3757
 4925SOL    HW216018   0.950   0.684   6.160 -1.0659  0.9543 -1.9693
 4926SOL     OW16019   0.423   2.684   1.156 -0.4071 -0.4415  0.0577
 4926SOL    HW116020   0.363   2.609   1.153  0.2727 -0.9879  0.0915
 4926SOL    HW216021   0.491   2.663   1.092 -0.0812  0.0276  0.2502
 4927SOL     OW16022   1.059   0.420   7.355 -0.2499 -0.5712  0.3770
 4927SOL    HW116023   0.973   0.385   7.377 -0.8348  0.4077 -0.2899
 4927SOL    HW216024   1.069   0.403   7.261 -1.3578  2.6337 -0.3959
 4928SOL     OW16025   0.138   0.379   3.579  0.0967  0.6981 -0.4988
 4928SOL    HW116026   0.110   0.450   3.637 -1.0053  1.0431 -1.4420
 4928SOL    HW216027   0.177   0.315   3.638 -1.8815  0.6162  0.7705
 4929SOL     OW16028   3.083   3.212   7.289  0.1000 -0.4578  0.3919
 4929SOL    HW116029   3.137   3.136   7.266  1.3758  0.4355  0.4074
 4929SOL    HW216030   3.008   3.207   7.229  0.6490 -1.2022 -0.2387
 4930SOL     OW16031   2.013   1.730   4.819 -0.0122 -0.3244 -0.1815
 4930SOL    HW116032   1.931   1.756   4.860 -0.2218 -1.6262  0.2573
 4930SOL    HW216033   1.999   1.639   4.793  0.2219  0.3409 -2.8813
 4931SOL     OW16034   1.866   1.392   1.624 -0.8354 -0.2129 -0.1249
 4931SOL    HW116035   1.805   1.460   1.654  0.2285  0.4301  0.5901
 4931SOL    HW216036   1.839   1.314   1.672 -1.1119  0.0607  0.1698
 4932SOL     OW16037   5.245   5.880   4.588 -0.2947 -0.0254 -0.1077
 4932SOL    HW116038   5.166   5.846   4.546  0.2610 -0.8102 -0.5510
 4932SOL    HW216039   5.214   5.927   4.665 -1.1618 -0.6796 -0.0538
 4933SOL     OW16040   2.152   4.992   4.295  0.2483 -0.2327 -0.2650
 4933SOL    HW116041   2.203   5.073   4.297  0.2048 -0.1975 -0.6516
 4933SOL    HW216042   2.067   5.017   4.262 -0.2367 -0.1784  0.9957
 4934SOL     OW16043   7.477   4.032   4.527  0.0592  0.1944  0.4659
 4934SOL    HW116044   7.435   3.980   4.596  0.5991 -0.4130  0.3354
 4934SOL    HW216045   7.568   4.040   4.554 -0.1276  1.4982  0.7349
 4935SOL     OW16046   3.966   4.478   4.234  0.0102 -0.2322 -0.4340
 4935SOL    HW116047   3.884   4.429   4.245 -1.1642  1.7407 -0.0637
 4935SOL    HW216048   3.979   4.482   4.139 -0.0586 -0.9777 -0.4774
 4936SOL     OW16049   7.325   6.939   7.350 -0.0168 -0.0608 -0.1246
 4936SOL    HW116050   7.405   6.908   7.307  0.3488  0.1007  0.4370
 4936SOL    HW216051   7.270   6.971   7.279  0.3116 -0.4123 -0.5392
 4937SOL     OW16052   4.936   7.578   2.038 -0.1807  0.1750 -0.4827
 4937SOL    HW116053   4.848   7.611   2.059 -1.1764 -1.3449 -2.1057
 4937SOL    HW216054   4.951   7.604   1.947  0.9698  0.2402 -0.2837
 4938SOL     OW16055   0.692   3.347   1.116  0.5362 -0.5870  0.0267
 4938SOL    HW116056   0.726   3.258   1.122  1.7994 -0.3183 -2.4865
 4938SOL    HW216057   0.768   3.403   1.134  0.5665 -0.0104 -1.7956
 4939SOL     OW16058   6.169   3.778   6.767  0.4044 -0.3273  0.2021
 4939SOL    HW116059   6.177   3.868   6.799 -2.2288  0.0043  0.0075
 4939SOL    HW216060   6.121   3.786   6.684  1.6492 -1.7653 -0.6860
 4940SOL     OW16061   4.005   4.161   1.694 -0.1784  0.0151 -0.6521
 4940SOL    HW116062   4.068   4.131   1.628 -0.2242 -0.9125 -0.2829
 4940SOL    HW216063   4.045   4.239   1.732  1.2849 -1.2301  0.3821
 4941SOL     OW16064   6.604   3.040   0.847 -0.4113  0.1931 -0.0533
 4941SOL    HW116065   6.665   3.042   0.921 -3.7461 -1.4892  2.8857
 4941SOL    HW216066   6.640   2.973   0.788  0.9616 -0.2359  1.2536
 4942SOL     OW16067   1.565   0.589   3.642 -0.1360  0.8359  0.3973
 4942SOL    HW116068   1.506   0.615   3.571 -0.0948  2.7921  1.0468
 4942SOL    HW216069   1.507   0.559   3.712 -0.2168 -0.1783 -0.0990
 4943SOL     OW16070   6.879   3.026   7.142 -0.4666 -0.0525 -0.3872
 4943SOL    HW116071   6.906   2.951   7.090 -0.4520  0.6749 -1.4346
 4943SOL    HW216072   6.871   2.992   7.231 -0.9842 -1.4155 -0.9467
 4944SOL     OW16073   7.240   6.975   7.949 -0.1238  0.1011 -0.4510
 4944SOL    HW116074   7.259   6.951   7.859  0.6388  2.5378 -0.9576
 4944SOL    HW216075   7.184   7.052   7.942  1.0085  1.0878  1.1628
 4945SOL     OW16076   7.725   2.088   5.850 -0.5007  0.8677  0.0126
 4945SOL    HW116077   7.749   2.147   5.778 -0.0622  0.5654 -0.0898
 4945SOL    HW216078   7.750   2.136   5.929 -0.8594  1.1428 -0.0352
 4946SOL     OW16079   2.034   7.564   7.055 -0.6265 -0.1304  0.0623
 4946SOL    HW116080   2.100   7.617   7.100 -1.3625  0.3995  0.5301
 4946SOL    HW216081   2.056   7.474   7.080  1.4386 -0.1865 -1.7991
 4947SOL     OW16082   3.537   2.386   7.905 -0.8684 -0.2169  0.3422
 4947SOL    HW116083   3.511   2.466   7.858  0.2251 -0.8464 -1.3993
 4947SOL    HW216084   3.485   2.388   7.985 -0.6973  2.3654  0.4516
 4948SOL     OW16085   2.639   5.290   3.799  0.2877  0.3108  0.3124
 4948SOL    HW116086   2.546   5.312   3.795  0.1046 -0.4112  0.4965
 4948SOL    HW216087   2.641   5.195   3.797  1.0703  0.3306 -0.6101
 4949SOL     OW16088   7.486   0.032   7.418 -0.1457 -0.7687  0.1094
 4949SOL    HW116089   7.575   0.059   7.441 -0.6142  0.7453  0.2207
 4949SOL    HW216090   7.475   0.062   7.328  0.0004 -2.3755 -0.4560
 4950SOL     OW16091   4.675   1.831   3.192 -0.1753  0.5977  0.1800
 4950SOL    HW116092   4.634   1.756   3.150  1.1423 -0.9875  1.6369
 4950SOL    HW216093   4.769   1.816   3.181  0.0914  2.3587 -0.0567
 4951SOL     OW16094   0.570   2.255   0.186  0.5939  0.0138  0.0917
 4951SOL    HW116095   0.559   2.228   0.278 -1.2974 -0.4233 -0.2449
 4951SOL    HW216096   0.541   2.346   0.184  2.2783  0.5604  0.2560
 4952SOL     OW16097   4.697   3.706   0.521  0.3605  0.0985 -0.4180
 4952SOL    HW116098   4.637   3.671   0.587  0.1998  0.3659 -0.4200
 4952SOL    HW216099   4.715   3.632   0.463 -1.4099  0.4716 -1.4747
 4953SOL     OW16100   4.027   3.773   3.720 -0.9303  0.2288  0.0861
 4953SOL    HW116101   3.955   3.763   3.783  0.0969  0.2781  1.2908
 4953SOL    HW216102   4.104   3.789   3.774  0.0388 -0.0506 -1.1841
 4954SOL     OW16103   3.267   2.758   6.828 -0.3947  0.2456  0.1001
 4954SOL    HW116104   3.239   2.828   6.769  1.5118 -0.2940 -1.5285
 4954SOL    HW216105   3.344   2.720   6.785 -0.9997 -2.4373  1.2626
 4955SOL     OW16106   0.543   1.257   0.684 -0.3316 -0.0605 -0.3344
 4955SOL    HW116107   0.485   1.332   0.699  0.3681  0.4892 -0.3514
 4955SOL    HW216108   0.542   1.209   0.766 -0.0010  0.5157  0.0092
 4956SOL     OW16109   1.182   3.385   5.740  0.0511  0.8449 -0.3004
 4956SOL    HW116110   1.237   3.309   5.759 -0.5191  0.0116 -1.9334
 4956SOL    HW216111   1.165   3.424   5.826  1.2047 -0.2575  0.4458
 4957SOL     OW16112   7.335   2.282   0.121 -0.1148 -0.6114 -0.8986
 4957SOL    HW116113   7.286   2.200   0.122  1.4250 -1.5607 -1.3442
 4957SOL    HW216114   7.315   2.321   0.036 -2.0694  0.2491 -0.0689
 4958SOL     OW16115   1.649   5.741   5.298 -0.4623 -0.0983 -0.4661
 4958SOL    HW116116   1.716   5.709   5.238  0.5718 -0.6176  0.9394
 4958SOL    HW216117   1.661   5.836   5.299 -0.1315 -0.1372 -0.6710
 4959SOL     OW16118   4.835   8.110   6.136  0.0426  0.3198 -0.6352
 4959SOL    HW116119   4.931   8.109   6.131  0.1372  0.9391  0.7181
 4959SOL    HW216120   4.815   8.191   6.183 -1.2677  1.4005 -2.9948
 4960SOL     OW16121   2.015   4.367   4.268  0.1335  0.7508  0.1040
 4960SOL    HW116122   1.962   4.439   4.234 -0.1286  1.0377  1.0806
 4960SOL    HW216123   1.964   4.289   4.249 -0.4053  0.9818  0.5692
 4961SOL     OW16124   5.240   4.709   6.489  0.8697  0.5059  0.0743
 4961SOL    HW116125   5.209   4.794   6.522 -0.6971  0.3636 -0.9784
 4961SOL    HW216126   5.238   4.652   6.566 -0.3633  0.8232  0.2970
 4962SOL     OW16127   3.186   1.550   6.132  0.7634  0.0163  0.1495
 4962SOL    HW116128   3.195   1.471   6.079  0.1744  0.8449 -1.2336
 4962SOL    HW216129   3.154   1.520   6.217 -0.0023 -1.1706 -0.5538
 4963SOL     OW16130   4.083   0.728   2.629  0.1954 -0.4349 -0.1317
 4963SOL    HW116131   4.018   0.692   2.568 -0.5522  1.0597 -0.2362
 4963SOL    HW216132   4.167   0.708   2.588 -0.2922  0.1658 -1.4590
 4964SOL     OW16133   7.771   4.788   7.569 -0.1528 -0.3314  0.1393
 4964SOL    HW116134   7.689   4.758   7.609 -1.0998 -0.0524 -1.5482
 4964SOL    HW216135   7.797   4.864   7.621 -1.1181 -0.2414  0.4901
 4965SOL     OW16136   7.770   7.925   5.239  0.6640 -0.2599  0.3375
 4965SOL    HW116137   7.715   7.884   5.306 -0.3514 -0.0861 -0.3794
 4965SOL    HW216138   7.800   8.007   5.279  0.3916 -0.3461  0.7250
 4966SOL     OW16139   5.563   5.335   4.589  0.0031  0.3840 -0.2335
 4966SOL    HW116140   5.621   5.393   4.540  0.0653  0.5629  0.0503
 4966SOL    HW216141   5.606   5.326   4.675  0.0546 -0.1690 -0.3131
 4967SOL     OW16142   1.850   5.489   7.020 -0.4977  0.2232  0.1229
 4967SOL    HW116143   1.883   5.405   6.987 -0.1523  0.9949 -1.5715
 4967SOL    HW216144   1.766   5.502   6.976 -0.2494  1.0593 -0.1238
 4968SOL     OW16145   0.672   0.030   7.903  0.0752 -0.6754  0.0811
 4968SOL    HW116146   0.594   0.019   7.848 -0.9032  0.8341  1.1387
 4968SOL    HW216147   0.638   0.058   7.988  1.8054  0.5497  0.3926
 4969SOL     OW16148   5.551   7.142   0.703  0.1684  0.0695 -0.5304
 4969SOL    HW116149   5.621   7.183   0.752  1.7003 -2.2865 -0.6494
 4969SOL    HW216150   5.497   7.214   0.671  1.9609  1.8514  0.4265
 4970SOL     OW16151   3.836   1.010   7.249 -0.3297  0.0322 -0.0860
 4970SOL    HW116152   3.743   0.991   7.238 -0.0457 -1.7331  0.5165
 4970SOL    HW216153   3.851   1.004   7.343  0.2389  1.0680 -0.1072
 4971SOL     OW16154   7.918   4.748   1.150 -0.2911 -0.7168 -0.8715
 4971SOL    HW116155   7.851   4.728   1.215 -0.9041 -0.8714 -1.5335
 4971SOL    HW216156   7.950   4.663   1.121 -0.0296 -0.6485 -0.7839
 4972SOL     OW16157   5.008   7.319   5.411 -0.1310  0.2140  0.4568
 4972SOL    HW116158   5.046   7.251   5.467  0.5071  0.0761 -0.1337
 4972SOL    HW216159   4.932   7.278   5.370  1.7489 -1.0100 -1.9221
 4973SOL     OW16160   6.678   6.129   0.279 -0.3489 -0.2087 -0.1449
 4973SOL    HW116161   6.752   6.074   0.256 -0.9422 -1.4075  0.7658
 4973SOL    HW216162   6.717   6.212   0.307  0.7010 -1.1154  1.1262
 4974SOL     OW16163   6.175   6.387   4.774 -0.2938 -0.1000  0.1965
 4974SOL    HW116164   6.250   6.332   4.752 -0.6947  0.3714 -2.4964
 4974SOL    HW216165   6.210   6.476   4.779 -0.3306 -0.1187  0.8007
 4975SOL     OW16166   5.318   5.192   2.868 -0.3150  0.1712  0.2866
 4975SOL    HW116167   5.284   5.121   2.814 -0.4817 -0.5163  1.2934
 4975SOL    HW216168   5.240   5.230   2.910  0.1068 -1.3327  2.5123
 4976SOL     OW16169   7.594   4.304   6.395  0.0815 -0.2879 -0.5279
 4976SOL    HW116170   7.553   4.220   6.372 -1.6794 -0.6850  3.4507
 4976SOL    HW216171   7.526   4.369   6.377  0.6044  0.0097 -1.4220
 4977SOL     OW16172   2.225   1.695   2.680 -0.4599  0.0426  0.3177
 4977SOL    HW116173   2.156   1.707   2.615  0.1006 -0.4476 -0.3833
 4977SOL    HW216174   2.285   1.633   2.639  0.9627  1.3080  0.4512
 4978SOL     OW16175   8.231   4.373   1.152 -0.7705 -0.1863 -0.5282
 4978SOL    HW116176   8.295   4.399   1.218  0.6783 -0.0894 -1.9469
 4978SOL    HW216177   8.160   4.437   1.161  0.0479  0.6577  0.0117
 4979SOL     OW16178   4.126   5.677   2.403 -0.4239 -0.2460  0.2055
 4979SOL    HW116179   4.189   5.744   2.428  0.3736 -0.9701  0.1817
 4979SOL    HW216180   4.125   5.679   2.307 -0.5112 -0.1732  0.2076
 4980SOL     OW16181   0.151   6.530   5.101 -0.1882 -0.2880 -0.2507
 4980SOL    HW116182   0.216   6.490   5.159 -1.5058 -1.5404  0.3860
 4980SOL    HW216183   0.175   6.623   5.100  0.9738 -0.5551  0.8102
 4981SOL     OW16184   5.115   2.939   2.497 -0.3354  0.1596  0.4330
 4981SOL    HW116185   5.079   2.904   2.416 -1.3925 -0.0858  1.0051
 4981SOL    HW216186   5.128   3.032   2.480  0.2810 -0.0551 -0.3076
 4982SOL     OW16187   7.463   0.514   2.212 -0.1687  0.2134  0.4327
 4982SOL    HW116188   7.494   0.602   2.191  2.4869 -0.0352  2.9428
 4982SOL    HW216189   7.370   0.525   2.228 -0.4042  2.0487 -1.8921
 4983SOL     OW16190   6.941   3.148   6.902  0.4435  0.1783 -0.0922
 4983SOL    HW116191   7.026   3.183   6.874 -0.4133  1.5838 -0.9818
 4983SOL    HW216192   6.958   3.110   6.988  2.2970 -0.8547 -0.8770
 4984SOL     OW16193   1.673   4.680   1.500 -0.0940  0.7896 -0.0632
 4984SOL    HW116194   1.709   4.641   1.421  0.1966  0.7990  0.0628
 4984SOL    HW216195   1.613   4.748   1.469 -0.1239  0.6633 -0.2759
 4985SOL     OW16196   6.737   2.420   1.261 -1.3841  0.0814 -0.5411
 4985SOL    HW116197   6.682   2.384   1.191  2.1473 -0.8638 -2.9352
 4985SOL    HW216198   6.784   2.344   1.296 -0.8431  1.0089  0.7770
 4986SOL     OW16199   5.073   7.410   7.404  0.4679 -0.0031 -0.3685
 4986SOL    HW116200   4.980   7.415   7.424  0.8192  1.7041  0.9585
 4986SOL    HW216201   5.106   7.339   7.460  0.9044  2.8386  3.1173
 4987SOL     OW16202   2.591   7.023   3.131  0.1181 -0.1177 -0.3710
 4987SOL    HW116203   2.559   6.939   3.162 -0.8771  0.1650 -0.6250
 4987SOL    HW216204   2.686   7.010   3.122 -0.2747 -1.9410 -2.6035
 4988SOL     OW16205   1.010   1.249   4.100  0.2687  0.0498 -0.8282
 4988SOL    HW116206   1.040   1.293   4.020  1.5522 -1.1221 -1.0026
 4988SOL    HW216207   0.971   1.167   4.070 -1.8540  0.8812 -0.4721
 4989SOL     OW16208   6.786   4.380   0.546 -0.1278 -0.0501 -0.2244
 4989SOL    HW116209   6.876   4.365   0.575  0.6431  0.1271 -2.4137
 4989SOL    HW216210   6.795   4.431   0.465 -2.2081  0.2040 -0.3261
 4990SOL     OW16211   3.311   2.106   1.234 -0.0812  0.1814  0.2854
 4990SOL    HW116212   3.321   2.090   1.328  1.5309  0.2525  0.1371
 4990SOL    HW216213   3.305   2.019   1.196  0.2113  0.1326  0.3524
 4991SOL     OW16214   0.877   3.229   2.581  0.1916 -0.0044  0.1240
 4991SOL    HW116215   0.829   3.265   2.655  1.0767 -0.7247  1.0715
 4991SOL    HW216216   0.828   3.257   2.504 -0.4338  1.2268  0.9506
 4992SOL     OW16217   7.919   1.949   7.390  0.5031  0.4202 -0.1886
 4992SOL    HW116218   7.987   1.961   7.324 -0.7795  0.2119 -1.5807
 4992SOL    HW216219   7.966   1.949   7.474  2.1160  1.0036 -1.0711
 4993SOL     OW16220   1.753   3.147   7.287  0.8876  0.1602 -0.0010
 4993SOL    HW116221   1.770   3.101   7.369  1.8940  1.2061  0.3823
 4993SOL    HW216222   1.806   3.101   7.222 -0.7588 -1.3615 -0.2985
 4994SOL     OW16223   5.595   0.439   7.464  0.5046  0.0944  0.7681
 4994SOL    HW116224   5.623   0.435   7.373  0.7695 -0.3854  0.8684
 4994SOL    HW216225   5.652   0.378   7.510 -0.2081 -0.3381  1.1004
 4995SOL     OW16226   0.978   4.916   7.365 -0.0885 -0.5586  0.5372
 4995SOL    HW116227   0.996   5.009   7.379  2.3746 -0.8275 -0.5510
 4995SOL    HW216228   0.972   4.879   7.454  0.1919  0.3942  0.9559
 4996SOL     OW16229   3.501   2.564   3.691 -0.0351  0.0131 -0.0556
 4996SOL    HW116230   3.546   2.643   3.660  0.8138 -1.0623 -1.6258
 4996SOL    HW216231   3.435   2.546   3.623  0.4904 -1.2245 -0.2533
 4997SOL     OW16232   6.635   2.996   5.367  0.2273  0.6684  0.3289
 4997SOL    HW116233   6.546   2.997   5.401  0.4015 -0.8362  0.8860
 4997SOL    HW216234   6.664   2.905   5.378  1.4876  0.9205 -0.7329
 4998SOL     OW16235   1.528   5.077   0.697 -0.2417  0.0385  0.1477
 4998SOL    HW116236   1.458   5.125   0.741 -0.9939 -0.4774 -0.4667
 4998SOL    HW216237   1.598   5.141   0.685  0.3597 -0.0546  2.9115
 4999SOL     OW16238   5.501   7.879   4.472 -0.0432  0.0496 -0.3638
 4999SOL    HW116239   5.585   7.925   4.467  0.3083 -0.1124  2.7435
 4999SOL    HW216240   5.457   7.918   4.549 -1.9504 -1.2409 -0.7608
 5000SOL     OW16241   3.622   1.770   3.827  0.4730 -0.3274 -0.0527
 5000SOL    HW116242   3.598   1.750   3.737  0.0675 -0.5858  0.1096
 5000SOL    HW216243   3.553   1.729   3.880  0.6399 -0.0745  0.3667
 5001SOL     OW16244   0.006   8.144   4.408 -0.7935  0.0786 -0.5571
 5001SOL    HW116245   0.048   8.223   4.374  0.9649 -0.7990 -0.4630
 5001SOL    HW216246  -0.042   8.173   4.485  1.1163  0.8103  0.3939
 5002SOL     OW16247   0.784   3.608   6.270  0.3162  0.1091 -0.1418
 5002SOL    HW116248   0.712   3.641   6.217  0.7655 -0.5166 -1.1544
 5002SOL    HW216249   0.767   3.642   6.358 -2.4532 -1.9549  0.1493
 5003SOL     OW16250   6.684   4.150   5.773  0.3357 -0.2176  0.1653
 5003SOL    HW116251   6.707   4.122   5.862 -0.2527  1.7241  0.9582
 5003SOL    HW216252   6.588   4.151   5.773  0.3413  2.3376  0.3596
 5004SOL     OW16253   2.167   6.276   7.028 -0.0647  0.5877  0.3321
 5004SOL    HW116254   2.130   6.364   7.019 -0.2111  0.4248 -0.7214
 5004SOL    HW216255   2.144   6.250   7.118 -0.6717  1.3239  0.4013
 5005SOL     OW16256   4.661   1.630   5.103  0.3789  0.2983  0.3137
 5005SOL    HW116257   4.642   1.698   5.039 -1.7722  0.6294  1.2567
 5005SOL    HW216258   4.692   1.677   5.181 -1.0129  0.2441  0.9308
 5006SOL     OW16259   4.213   6.887   4.436  0.0828 -0.0188 -0.3976
 5006SOL    HW116260   4.286   6.938   4.398  0.6648 -0.9035 -0.4720
 5006SOL    HW216261   4.232   6.797   4.412  0.3285 -0.5776  1.8050
 5007SOL     OW16262   3.347   4.600   5.743 -0.1397 -0.1847 -0.2994
 5007SOL    HW116263   3.335   4.596   5.648  2.4227  0.3948 -0.7066
 5007SOL    HW216264   3.434   4.561   5.757 -0.1340  0.5126  1.7090
 5008SOL     OW16265   2.788   1.737   5.050  0.0261 -0.2569  0.2906
 5008SOL    HW116266   2.866   1.776   5.088 -0.3965  0.4212  0.4697
 5008SOL    HW216267   2.718   1.801   5.068 -0.7504 -1.2733  0.9547
 5009SOL     OW16268   0.525   8.287   0.441  0.4527 -0.0245  0.1861
 5009SOL    HW116269   0.461   8.356   0.461 -0.7313 -1.6071  2.0465
 5009SOL    HW216270   0.569   8.318   0.362 -1.6531  1.7725 -0.3475
 5010SOL     OW16271   0.167   7.073   6.445 -0.2134  0.5933  0.3779
 5010SOL    HW116272   0.075   7.072   6.418 -0.2542  0.2726  0.5251
 5010SOL    HW216273   0.205   7.146   6.396 -0.4840  0.5608  0.1151
 5011SOL     OW16274   7.405   7.888   4.971  0.3024  0.1458  0.0800
 5011SOL    HW116275   7.390   7.892   5.066  0.9492 -0.1148  0.1941
 5011SOL    HW216276   7.492   7.851   4.962 -1.0038 -2.8598 -0.7130
 5012SOL     OW16277   8.045   6.990   5.662  0.0796 -1.0491  0.7230
 5012SOL    HW116278   8.127   6.977   5.615 -1.0263 -0.7492 -1.3233
 5012SOL    HW216279   7.977   6.962   5.601 -1.4576  0.2120  1.8014
 5013SOL     OW16280   2.980   7.204   8.062 -0.0403 -0.3912  0.0286
 5013SOL    HW116281   2.985   7.112   8.086 -0.2702 -0.5112 -0.3816
 5013SOL    HW216282   3.040   7.213   7.988 -0.3607 -0.3040 -0.2192
 5014SOL     OW16283   3.890   3.177   2.220  0.0692  0.3836 -0.3329
 5014SOL    HW116284   3.877   3.210   2.132 -1.1925  0.5859 -0.0787
 5014SOL    HW216285   3.947   3.101   2.209  0.0617  0.5149 -1.2929
 5015SOL     OW16286   4.234   4.258   6.470  0.0936 -0.1850  0.0387
 5015SOL    HW116287   4.192   4.299   6.545  0.6724  1.2868 -0.4299
 5015SOL    HW216288   4.324   4.291   6.472 -0.3667  1.2923 -2.3268
 5016SOL     OW16289   0.299   5.745   6.551  0.0183  0.2135  0.3263
 5016SOL    HW116290   0.275   5.835   6.527  0.9485  0.3133 -0.2729
 5016SOL    HW216291   0.252   5.728   6.632 -0.6569  1.0264  0.1055
 5017SOL     OW16292   3.364   1.436   0.969  0.4567 -0.5552 -0.5205
 5017SOL    HW116293   3.445   1.393   0.999  0.3282 -1.7350 -1.8513
 5017SOL    HW216294   3.374   1.441   0.874 -0.8636 -0.3310 -0.6444
 5018SOL     OW16295   2.262   5.840   4.858  0.0917  0.1002  0.2556
 5018SOL    HW116296   2.225   5.810   4.941  0.2740 -0.1245  0.2563
 5018SOL    HW216297   2.325   5.908   4.883  0.9374 -0.7195  0.3867
 5019SOL     OW16298   2.070   1.961   4.675 -0.0980  0.2763 -0.3367
 5019SOL    HW116299   2.006   2.012   4.725 -0.8926 -0.2326 -0.8403
 5019SOL    HW216300   2.064   1.872   4.711 -2.5806 -0.7410 -3.1174
 5020SOL     OW16301   5.437   4.952   1.394  0.2140 -0.1281 -0.1939
 5020SOL    HW116302   5.446   4.867   1.437  0.4011  0.4852  0.9829
 5020SOL    HW216303   5.479   4.940   1.308  1.4619 -0.8174  0.4990
 5021SOL     OW16304   4.021   6.948   4.961 -0.3943  0.0211  0.1322
 5021SOL    HW116305   3.948   6.895   4.992 -0.5528  0.2555  0.1635
 5021SOL    HW216306   4.034   7.013   5.031 -0.5814  0.3845 -0.1697
 5022SOL     OW16307   4.021   7.633   6.053 -0.0327  0.3043  0.2656
 5022SOL    HW116308   4.086   7.704   6.057 -0.6866  0.9235  0.0927
 5022SOL    HW216309   4.005   7.620   5.960 -0.7955  0.7511  0.3314
 5023SOL     OW16310   7.846   4.554   3.706 -0.2859 -0.5965 -0.2421
 5023SOL    HW116311   7.861   4.563   3.611 -0.7616 -1.5532 -0.4117
 5023SOL    HW216312   7.815   4.465   3.717 -1.3867 -0.1121  0.6770
 5024SOL     OW16313   8.258   0.620   1.183 -0.3361 -0.6811  0.0051
 5024SOL    HW116314   8.189   0.683   1.205 -0.3217 -0.8660  0.5669
 5024SOL    HW216315   8.219   0.567   1.113  0.2336  0.9926 -1.6313
 5025SOL     OW16316   1.149   5.827   2.297  0.2469  0.0534 -0.2781
 5025SOL    HW116317   1.226   5.825   2.354  2.5969 -0.8756 -3.3537
 5025SOL    HW216318   1.136   5.735   2.273  0.6811  0.6680 -2.9563
 5026SOL     OW16319   7.059   5.325   3.905  0.0891  0.5017 -0.3713
 5026SOL    HW116320   7.017   5.245   3.874  0.0690 -0.0062  0.9311
 5026SOL    HW216321   6.999   5.395   3.879 -0.7979 -0.0791  0.0833
 5027SOL     OW16322   4.302   1.438   1.518 -0.0047  0.0063 -0.8103
 5027SOL    HW116323   4.372   1.427   1.454  0.0117  0.4793 -0.8750
 5027SOL    HW216324   4.346   1.433   1.603  0.1098  0.3132 -0.8506
 5028SOL     OW16325   1.062   7.265   7.366  0.0075 -0.2649 -0.0867
 5028SOL    HW116326   1.033   7.284   7.455 -0.5958 -0.0437 -0.3298
 5028SOL    HW216327   1.004   7.316   7.310  1.2314  0.6231 -0.5522
 5029SOL     OW16328   1.197   3.638   2.216  0.0171 -0.0577 -0.0373
 5029SOL    HW116329   1.170   3.562   2.267  0.5813 -0.4870 -0.3684
 5029SOL    HW216330   1.257   3.602   2.150  0.1120  0.6406 -0.3346
 5030SOL     OW16331   0.171   3.646   0.633  0.6323  0.2216 -0.1896
 5030SOL    HW116332   0.197   3.715   0.572 -0.7418 -0.1084 -1.1848
 5030SOL    HW216333   0.184   3.684   0.720  1.9316  0.9576 -0.6928
 5031SOL     OW16334   0.448   0.243   2.408 -0.4514 -0.3408  0.1557
 5031SOL    HW116335   0.489   0.196   2.480  0.3701  0.9761  0.5825
 5031SOL    HW216336   0.522   0.270   2.352 -0.9320  0.0905 -0.2746
 5032SOL     OW16337   7.625   2.809   3.101 -0.2533 -0.1224 -0.2429
 5032SOL    HW116338   7.590   2.776   3.183 -1.3915 -1.9213 -1.4271
 5032SOL    HW216339   7.707   2.762   3.089  0.8220  1.4596  0.7368
 5033SOL     OW16340   5.012   0.012   5.176 -0.2105 -0.2116 -1.0733
 5033SOL    HW116341   5.056   0.033   5.258 -0.1887  1.1289 -1.4121
 5033SOL    HW216342   4.956  -0.062   5.197 -0.0974  0.0330  0.1176
 5034SOL     OW16343   6.837   8.106   5.079  0.2464  0.3246 -0.2166
 5034SOL    HW116344   6.917   8.155   5.060  0.6373  0.0742  0.7497
 5034SOL    HW216345   6.867   8.017   5.093  0.0401  0.5909  2.0352
 5035SOL     OW16346   2.460   7.075   4.760  0.4222 -0.5625 -0.5720
 5035SOL    HW116347   2.404   7.001   4.737 -1.3109 -0.2641  2.4621
 5035SOL    HW216348   2.447   7.138   4.690 -0.6013 -1.8067 -1.5203
 5036SOL     OW16349   5.589   4.411   6.123 -0.6460 -0.4783 -0.0828
 5036SOL    HW116350   5.555   4.411   6.033 -1.7254 -1.0734  0.3066
 5036SOL    HW216351   5.644   4.489   6.128 -0.3659 -0.5868 -1.3384
 5037SOL     OW16352   6.760   3.372   6.212 -0.5880 -0.0285 -0.0518
 5037SOL    HW116353   6.719   3.374   6.299  0.6365  0.5083  0.5267
 5037SOL    HW216354   6.845   3.331   6.226 -1.0329 -1.4258 -1.3030
 5038SOL     OW16355   0.780   5.494   2.656 -0.0892 -0.3930  0.1161
 5038SOL    HW116356   0.766   5.435   2.582  1.9794  0.4953 -1.0050
 5038SOL    HW216357   0.865   5.468   2.692  0.1459  0.9301  0.5339
 5039SOL     OW16358   7.958   3.391   7.509  0.0867  0.1304  0.1192
 5039SOL    HW116359   7.924   3.365   7.424  2.5306  0.4971 -1.0256
 5039SOL    HW216360   7.948   3.486   7.511 -1.0957 -0.0064  0.7586
 5040SOL     OW16361   6.964   3.616   5.263  0.0835 -0.0995 -0.9294
 5040SOL    HW116362   7.048   3.594   5.304 -0.2658  0.7808  0.2867
 5040SOL    HW216363   6.964   3.712   5.259 -0.9551 -0.0852 -0.7230
 5041SOL     OW16364   3.809   4.326   7.334 -0.1255 -0.5361 -0.6735
 5041SOL    HW116365   3.839   4.302   7.422 -0.0541 -1.6643 -0.9944
 5041SOL    HW216366   3.874   4.287   7.275 -1.3208 -1.6253 -1.3038
 5042SOL     OW16367   5.771   5.061   7.159 -0.1371 -0.0573 -0.3391
 5042SOL    HW116368   5.863   5.044   7.141  0.1189 -0.0554  0.9496
 5042SOL    HW216369   5.749   5.002   7.231 -0.8573  0.6873  0.0560
 5043SOL     OW16370   5.028   0.195   2.200  0.6071 -0.3875  0.0069
 5043SOL    HW116371   4.947   0.146   2.212 -0.0550  0.2209 -1.8667
 5043SOL    HW216372   5.079   0.175   2.278 -0.2132 -2.9864 -0.0509
 5044SOL     OW16373   0.097   3.501   0.222  0.2528  0.7051 -0.5119
 5044SOL    HW116374   0.031   3.571   0.222 -0.0731  0.4055 -1.4594
 5044SOL    HW216375   0.181   3.547   0.228 -0.0115  1.1236  0.0139
 5045SOL     OW16376   7.704   6.609   5.398  0.1712 -0.0921  0.3658
 5045SOL    HW116377   7.708   6.662   5.478  0.1364 -1.4581  1.2892
 5045SOL    HW216378   7.615   6.619   5.367  0.1492  0.3504  0.5630
 5046SOL     OW16379   5.787   1.207   2.726 -0.1531 -0.3166  0.2774
 5046SOL    HW116380   5.736   1.232   2.803  0.9609  1.0219  0.6049
 5046SOL    HW216381   5.798   1.288   2.677  3.3856 -0.0931  1.2609
 5047SOL     OW16382   4.124   8.194   6.281 -0.0827  0.0109  0.3339
 5047SOL    HW116383   4.095   8.122   6.226 -0.1831  0.6742 -0.4946
 5047SOL    HW216384   4.091   8.272   6.238  0.0039  0.5549  1.2353
 5048SOL     OW16385   3.103   4.800   0.115  0.7868  0.2453  0.4593
 5048SOL    HW116386   3.024   4.750   0.133  0.6868  0.2966  0.1519
 5048SOL    HW216387   3.112   4.859   0.190 -0.0049  0.9336  0.0165
 5049SOL     OW16388   2.271   7.197   2.154  0.3092  0.1932  0.1213
 5049SOL    HW116389   2.278   7.192   2.250  0.9144 -0.7434  0.0347
 5049SOL    HW216390   2.350   7.153   2.122 -0.1755 -0.0005 -0.8141
 5050SOL     OW16391   2.694   5.162   7.238 -0.1266 -0.1728  0.0369
 5050SOL    HW116392   2.707   5.164   7.143  0.3968  2.9079  0.1180
 5050SOL    HW216393   2.605   5.194   7.250  0.5600  1.5514  0.6674
 5051SOL     OW16394   0.289   4.281   7.310  0.1958 -0.5891  0.0906
 5051SOL    HW116395   0.295   4.195   7.353  0.3595 -1.1771 -1.1046
 5051SOL    HW216396   0.289   4.261   7.217  1.7672  0.8182 -0.2110
 5052SOL     OW16397   6.764   0.006   5.253  0.0286 -0.3420  0.0922
 5052SOL    HW116398   6.803  -0.073   5.214 -0.3371 -0.5046  0.0499
 5052SOL    HW216399   6.833   0.042   5.308  0.2015 -0.6945  0.1089
 5053SOL     OW16400   1.926   8.178   7.188  0.1192 -0.0260 -0.2928
 5053SOL    HW116401   1.996   8.232   7.226 -0.4081  0.4789 -0.0437
 5053SOL    HW216402   1.960   8.089   7.192  1.2594  0.3454 -1.2857
 5054SOL     OW16403   7.231   1.759   5.207 -0.3610 -0.3513  0.6665
 5054SOL    HW116404   7.206   1.842   5.248  0.1999 -0.7230  1.8143
 5054SOL    HW216405   7.184   1.693   5.257  1.4137 -0.9140  1.6437
 5055SOL     OW16406   3.579   4.499   6.160 -0.2240 -0.0381  0.4193
 5055SOL    HW116407   3.608   4.585   6.129  0.4649 -0.9001 -1.4350
 5055SOL    HW216408   3.487   4.512   6.183  0.0898  1.3798  0.9389
 5056SOL     OW16409   2.621   4.840   0.238 -0.0813  0.4453 -0.3755
 5056SOL    HW116410   2.567   4.868   0.311  1.0922  1.3780  0.1436
 5056SOL    HW216411   2.598   4.899   0.166 -1.2495 -0.4863 -0.7902
 5057SOL     OW16412   6.479   5.785   1.626  0.2692  0.4656 -0.0410
 5057SOL    HW116413   6.552   5.725   1.639  0.2552  0.1365 -1.3725
 5057SOL    HW216414   6.430   5.747   1.553 -1.1477  0.7637  0.7400
 5058SOL     OW16415   5.352   7.886   6.059  0.6985 -0.0033  0.0824
 5058SOL    HW116416   5.386   7.808   6.102  0.1259 -0.6601 -0.6585
 5058SOL    HW216417   5.380   7.878   5.968 -0.1435  0.2027 -0.1987
 5059SOL     OW16418   2.506   8.283   8.149 -0.0246 -0.5396  0.6994
 5059SOL    HW116419   2.487   8.190   8.138  0.3192 -0.5106 -0.2545
 5059SOL    HW216420   2.586   8.286   8.201  0.9264 -0.8369 -0.7112
 5060SOL     OW16421   2.754   0.598   6.528 -0.3485 -0.5165 -0.3477
 5060SOL    HW116422   2.845   0.625   6.519 -0.5123  0.1976  0.0316
 5060SOL    HW216423   2.720   0.654   6.598 -1.2909 -0.1896 -1.0517
 5061SOL     OW16424   4.342   5.135   8.301  0.2533  0.1704  0.1956
 5061SOL    HW116425   4.397   5.106   8.373  1.7705  0.9393 -0.6243
 5061SOL    HW216426   4.360   5.072   8.230 -1.9240 -1.1338  0.7596
 5062SOL     OW16427   7.405   2.892   2.967  0.6534  0.1926 -0.3797
 5062SOL    HW116428   7.355   2.816   2.936 -0.9275  0.3658  1.6305
 5062SOL    HW216429   7.487   2.856   3.000  0.5230 -0.4761 -0.7849
 5063SOL     OW16430   6.164   6.057   2.445  0.1461 -0.0658 -0.2422
 5063SOL    HW116431   6.247   6.086   2.483  0.2531 -0.7033  0.0279
 5063SOL    HW216432   6.143   6.123   2.380 -0.8071  1.8592  1.9654
 5064SOL     OW16433   4.929   7.107   8.203  0.5421 -0.0311  0.0594
 5064SOL    HW116434   4.911   7.083   8.294  0.8490 -0.2222  0.0684
 5064SOL    HW216435   4.889   7.037   8.152 -0.2216  0.4243  0.0242
 5065SOL     OW16436   5.203   0.828   1.865 -0.4468  0.0293 -0.1118
 5065SOL    HW116437   5.288   0.806   1.903  0.2508 -1.9717 -2.6845
 5065SOL    HW216438   5.148   0.752   1.887 -1.4230  1.0424  1.0104
 5066SOL     OW16439   2.657   2.005   2.258  0.3292 -0.5977  0.2794
 5066SOL    HW116440   2.646   2.065   2.331 -1.3510 -1.4645  0.7722
 5066SOL    HW216441   2.604   2.044   2.188  1.4077 -0.1087 -0.2687
 5067SOL     OW16442   4.144   2.366   1.559 -0.2270  0.0659 -0.2588
 5067SOL    HW116443   4.221   2.422   1.551  0.3778 -0.7795 -0.3225
 5067SOL    HW216444   4.096   2.380   1.477 -0.5478  1.1813  0.1064
 5068SOL     OW16445   6.093   0.697   5.206 -0.1369  0.2752 -0.1255
 5068SOL    HW116446   6.088   0.657   5.292 -0.1640  0.0713 -0.2206
 5068SOL    HW216447   6.017   0.754   5.201  0.8646  1.7028  0.6927
 5069SOL     OW16448   6.037   6.321   1.419  0.1793 -0.2788 -0.1539
 5069SOL    HW116449   6.026   6.226   1.418 -1.5232 -0.0985  0.5138
 5069SOL    HW216450   6.055   6.343   1.510 -0.6825  0.1840 -0.0971
 5070SOL     OW16451   1.879   8.246   0.584  0.0819 -0.0173 -0.4875
 5070SOL    HW116452   1.845   8.226   0.671  0.7432  1.6790  0.1895
 5070SOL    HW216453   1.945   8.178   0.568 -2.6860 -2.5933 -1.3045
 5071SOL     OW16454   1.578   0.011   7.798 -0.5902 -0.4516 -0.6173
 5071SOL    HW116455   1.632   0.028   7.720  0.1588 -2.3545 -0.5409
 5071SOL    HW216456   1.557  -0.082   7.792 -1.6729 -0.3052  0.7572
 5072SOL     OW16457   2.965   8.036   1.469  0.0600 -0.2455 -0.0407
 5072SOL    HW116458   2.922   7.952   1.483 -0.2616  0.3019  2.3857
 5072SOL    HW216459   3.056   8.013   1.449  0.4430 -1.1018  2.5924
 5073SOL     OW16460   5.401   1.884   7.618 -0.3753 -0.3035 -0.2878
 5073SOL    HW116461   5.447   1.939   7.554 -0.2519 -0.4001 -0.2827
 5073SOL    HW216462   5.431   1.795   7.598 -1.4379 -0.4993 -1.0276
 5074SOL     OW16463   7.064   1.440   3.518 -0.1302 -0.3666  0.4827
 5074SOL    HW116464   7.146   1.451   3.470 -0.5909  0.7375 -0.0650
 5074SOL    HW216465   6.996   1.441   3.451 -0.5971 -1.2482  0.9362
 5075SOL     OW16466   8.163   1.595   0.859 -0.1830 -0.4597  0.1401
 5075SOL    HW116467   8.169   1.667   0.796  0.1385 -1.2390 -0.7307
 5075SOL    HW216468   8.079   1.554   0.839 -0.1564 -0.6056  0.3335
 5076SOL     OW16469   5.376   7.968   6.822  0.5025 -0.2317 -0.3338
 5076SOL    HW116470   5.297   8.017   6.798 -0.1746 -1.7504 -1.2596
 5076SOL    HW216471   5.425   7.960   6.741  0.8445 -0.6600 -0.0853
 5077SOL     OW16472   8.233   1.465   8.278  0.0125  0.0496 -0.3457
 5077SOL    HW116473   8.242   1.413   8.198  3.5926 -0.7816  0.5023
 5077SOL    HW216474   8.268   1.550   8.255  0.7147 -0.0819  0.2521
 5078SOL     OW16475   5.237   7.218   5.268 -0.5714  0.3870 -0.3052
 5078SOL    HW116476   5.155   7.264   5.286 -0.5339  0.7719 -1.1100
 5078SOL    HW216477   5.217   7.158   5.196  0.5691  2.5669 -2.4868
 5079SOL     OW16478   2.134   0.051   3.172  0.2926  0.3184 -0.1035
 5079SOL    HW116479   2.090   0.039   3.088  0.3386  2.2986 -0.4489
 5079SOL    HW216480   2.206  -0.011   3.171 -0.5640 -0.6776 -0.9131
 5080SOL     OW16481   4.732   5.118   8.099 -0.2449  0.3995  0.3350
 5080SOL    HW116482   4.701   5.181   8.163  1.2483  0.8243  0.6690
 5080SOL    HW216483   4.814   5.084   8.136 -0.2818 -0.6510 -0.5180
 5081SOL     OW16484   7.241   0.128   7.494 -0.0597 -0.2908  0.4715
 5081SOL    HW116485   7.185   0.062   7.454  0.0904  1.3450 -2.5654
 5081SOL    HW216486   7.330   0.096   7.478 -0.0341 -0.9921  1.9505
 5082SOL     OW16487   5.729   1.136   4.703 -0.7552 -0.0991 -0.0968
 5082SOL    HW116488   5.661   1.124   4.637 -1.2253  0.8035  0.2184
 5082SOL    HW216489   5.760   1.225   4.690 -0.6479 -0.0186  0.7108
 5083SOL     OW16490   5.551   0.546   8.235 -0.1918  0.2424  0.6249
 5083SOL    HW116491   5.498   0.619   8.203 -0.1867  0.2102  0.5412
 5083SOL    HW216492   5.490   0.493   8.286 -0.4175 -0.1783 -0.0707
 5084SOL     OW16493   4.339   3.078   6.801  0.5041  0.2070 -0.1179
 5084SOL    HW116494   4.330   2.984   6.782 -0.7850  0.3646 -0.3270
 5084SOL    HW216495   4.321   3.121   6.717  1.6196  0.6255 -0.1532
 5085SOL     OW16496   2.883   4.171   0.346 -0.0492  0.1656  0.0851
 5085SOL    HW116497   2.864   4.250   0.296 -0.3774 -0.4850 -0.8185
 5085SOL    HW216498   2.797   4.132   0.363  0.0815  0.1935  0.8578
 5086SOL     OW16499   2.927   0.057   1.978  0.5043  0.0493  0.0404
 5086SOL    HW116500   3.001  -0.002   1.986  0.1739 -0.6143 -1.5804
 5086SOL    HW216501   2.854   0.011   2.020  0.7999  0.3276  0.8627
 5087SOL     OW16502   2.983   4.883   5.085  0.7166 -0.4594  0.3428
 5087SOL    HW116503   3.070   4.853   5.111  0.9680 -1.4086 -1.4618
 5087SOL    HW216504   2.995   4.916   4.996 -0.7927 -0.8082 -0.0071
 5088SOL     OW16505   5.657   3.583   4.312 -0.0481 -0.2340  0.5529
 5088SOL    HW116506   5.694   3.586   4.400  0.2128 -0.0996  0.4388
 5088SOL    HW216507   5.703   3.652   4.264  0.3677 -0.8271  0.0950
 5089SOL     OW16508   3.324   3.495   0.720  0.5225 -0.1730  0.0211
 5089SOL    HW116509   3.373   3.556   0.775  0.4741 -0.3859  0.3018
 5089SOL    HW216510   3.325   3.534   0.633  1.5764 -0.3991 -0.0703
 5090SOL     OW16511   1.693   3.573   2.006  0.6584 -0.4732  0.0124
 5090SOL    HW116512   1.682   3.667   1.990  0.5603 -0.3611  0.7372
 5090SOL    HW216513   1.710   3.536   1.919 -0.4683  0.0459 -0.4393
 5091SOL     OW16514   0.894   5.139   2.628 -0.2613 -0.4014 -0.1514
 5091SOL    HW116515   0.937   5.149   2.713  2.8888 -0.4774 -1.6737
 5091SOL    HW216516   0.898   5.045   2.611 -0.2317 -0.3065 -0.6825
 5092SOL     OW16517   7.150   4.728   7.984  0.1302 -0.2546 -0.1352
 5092SOL    HW116518   7.076   4.782   8.010 -1.5993 -2.4203 -0.3647
 5092SOL    HW216519   7.205   4.721   8.062 -2.2510 -2.2955  1.4231
 5093SOL     OW16520   5.444   4.761   2.836 -0.1290 -0.0227  0.2234
 5093SOL    HW116521   5.540   4.768   2.831  0.1312 -1.5068  2.4732
 5093SOL    HW216522   5.425   4.670   2.815 -1.0684  0.2949 -0.3329
 5094SOL     OW16523   2.052   5.417   1.159 -0.0296 -0.1777 -0.0406
 5094SOL    HW116524   2.109   5.341   1.160 -0.9219 -0.8637 -0.6158
 5094SOL    HW216525   2.014   5.418   1.071  0.0689  0.9926 -0.0752
 5095SOL     OW16526   7.197   3.478   0.414 -0.1417 -0.3876  0.5863
 5095SOL    HW116527   7.251   3.425   0.474  1.7660  0.0649 -0.6799
 5095SOL    HW216528   7.158   3.545   0.471 -0.6561 -1.6886  1.7985
 5096SOL     OW16529   3.529   6.615   1.435 -0.4776 -0.2511 -0.0210
 5096SOL    HW116530   3.591   6.663   1.380 -0.3314 -0.8936 -0.4276
 5096SOL    HW216531   3.508   6.675   1.507  3.5290 -1.3567  2.2326
 5097SOL     OW16532   2.451   1.562   7.035 -0.3876 -0.2702 -0.1999
 5097SOL    HW116533   2.500   1.559   7.117 -0.9079  2.6776  0.2561
 5097SOL    HW216534   2.493   1.495   6.980  2.8196  0.7567  0.9051
 5098SOL     OW16535   3.772   7.696   1.301 -0.0797 -0.0796  0.5980
 5098SOL    HW116536   3.685   7.656   1.295  0.3329 -0.6695 -2.2502
 5098SOL    HW216537   3.755   7.790   1.307 -0.9095 -0.1995  0.1516
 5099SOL     OW16538   2.916   0.140   2.748  0.1889 -0.7274  0.2577
 5099SOL    HW116539   2.823   0.133   2.728  0.5919 -0.5404 -1.7666
 5099SOL    HW216540   2.956   0.064   2.706  1.4445  1.2107 -2.1933
 5100SOL     OW16541   0.590   4.373   1.392  0.2266  0.3117 -0.1655
 5100SOL    HW116542   0.498   4.394   1.405  0.2302 -0.0492  0.4657
 5100SOL    HW216543   0.602   4.289   1.436  2.0358  2.8024  4.5474
 5101SOL     OW16544   1.559   7.034   3.675 -0.4215  0.4437  0.1790
 5101SOL    HW116545   1.562   7.058   3.582 -1.2450  1.2316  0.3365
 5101SOL    HW216546   1.470   7.000   3.687  0.4761 -1.9579  0.1561
 5102SOL     OW16547   2.664   7.171   2.154  0.1534 -0.2235 -0.0018
 5102SOL    HW116548   2.596   7.218   2.204 -0.8411 -1.8150  0.1606
 5102SOL    HW216549   2.623   7.154   2.069  0.6756 -0.4177 -0.2131
 5103SOL     OW16550   3.636   1.482   4.176 -0.0078 -0.5520 -0.1445
 5103SOL    HW116551   3.650   1.387   4.172  1.1644 -0.3592 -0.8012
 5103SOL    HW216552   3.655   1.506   4.267  3.3292 -0.4021 -0.8481
 5104SOL     OW16553   7.379   5.464   7.895  0.8076 -0.2966 -0.1459
 5104SOL    HW116554   7.465   5.436   7.864 -0.2290 -1.3381 -2.1541
 5104SOL    HW216555   7.354   5.535   7.837 -0.0046 -0.4593  0.0051
 5105SOL     OW16556   5.035   5.271   0.750 -0.1084  0.0369  0.4158
 5105SOL    HW116557   4.993   5.355   0.730 -0.3122 -0.3296 -0.7663
 5105SOL    HW216558   4.965   5.207   0.738  0.7878 -0.6022 -1.7201
 5106SOL     OW16559   6.946   3.223   4.297 -0.7979  0.4529  0.1270
 5106SOL    HW116560   6.984   3.285   4.236  1.1450 -0.3294  0.4777
 5106SOL    HW216561   7.007   3.221   4.371 -0.2835 -2.5415 -0.2964
 5107SOL     OW16562   4.821   4.594   6.855 -0.1865 -0.0023 -0.1352
 5107SOL    HW116563   4.773   4.590   6.772 -1.9434 -1.8727  0.9391
 5107SOL    HW216564   4.835   4.688   6.870 -1.7759  0.4591 -1.4632
 5108SOL     OW16565   6.244   1.484   0.935 -0.3565  0.1777  0.3215
 5108SOL    HW116566   6.234   1.467   1.028  2.5012  0.8264  0.8007
 5108SOL    HW216567   6.185   1.422   0.892 -2.0597  0.2070  2.5601
 5109SOL     OW16568   5.321   2.130   3.388  0.1132 -0.2946 -0.6892
 5109SOL    HW116569   5.414   2.113   3.377  0.1160 -0.7058 -0.0546
 5109SOL    HW216570   5.317   2.201   3.453 -0.0010  0.0346 -1.0532
 5110SOL     OW16571   1.725   5.542   3.579 -0.7118  0.1892  0.4307
 5110SOL    HW116572   1.643   5.563   3.624 -0.1787  1.1088  0.9765
 5110SOL    HW216573   1.754   5.625   3.542 -0.6701 -0.3800 -0.8372
 5111SOL     OW16574   3.469   5.569   2.575  0.3938  0.3193 -0.0298
 5111SOL    HW116575   3.505   5.487   2.541  0.7819  0.2257  0.5804
 5111SOL    HW216576   3.545   5.616   2.610  0.3720  1.5805 -1.6383
 5112SOL     OW16577   3.129   7.407   0.283 -0.1852  0.3749  0.1763
 5112SOL    HW116578   3.186   7.457   0.341  0.8277 -1.3395  0.6862
 5112SOL    HW216579   3.130   7.318   0.319 -1.3658 -0.1841 -1.1388
 5113SOL     OW16580   2.570   4.804   1.807  0.0990  0.1274 -0.3345
 5113SOL    HW116581   2.621   4.726   1.787 -0.7915 -0.7041  0.5708
 5113SOL    HW216582   2.479   4.781   1.785 -0.2878  0.6165  0.6895
 5114SOL     OW16583   2.265   4.763   2.263  0.4489 -0.3150  0.3257
 5114SOL    HW116584   2.343   4.723   2.224 -1.4333 -2.4522 -1.3777
 5114SOL    HW216585   2.246   4.707   2.339 -0.1431 -0.5092  0.0292
 5115SOL     OW16586   1.536   0.914   6.014  0.3355  0.1114 -0.2153
 5115SOL    HW116587   1.447   0.949   6.005  0.3482 -0.1654 -1.5954
 5115SOL    HW216588   1.559   0.930   6.105 -0.7594  1.0818 -0.0932
 5116SOL     OW16589   1.582   8.085   2.385  0.4884  0.2302  0.1095
 5116SOL    HW116590   1.549   8.015   2.329 -1.0856  0.4524  0.7456
 5116SOL    HW216591   1.518   8.093   2.455  1.8364  0.7650  1.3116
 5117SOL     OW16592   6.210   1.415   7.228  0.1088 -0.2013 -0.1505
 5117SOL    HW116593   6.252   1.339   7.187 -0.9474 -1.5251  1.1606
 5117SOL    HW216594   6.201   1.391   7.320 -2.0581  0.6957 -0.0982
 5118SOL     OW16595   5.918   7.813   7.445  1.1659  0.3001  0.3847
 5118SOL    HW116596   6.009   7.838   7.463  1.2750  0.2201 -0.0477
 5118SOL    HW216597   5.884   7.882   7.389  0.6282  0.8770  1.4015
 5119SOL     OW16598   7.433   5.048   4.396  0.3158  0.2027  0.3900
 5119SOL    HW116599   7.393   5.134   4.387  1.1262  0.4025 -1.6346
 5119SOL    HW216600   7.527   5.064   4.384  0.4006 -1.0593 -0.7086
 5120SOL     OW16601   0.997   0.693   4.935 -1.0318  0.0140 -0.0000
 5120SOL    HW116602   0.930   0.671   5.000 -1.6508  0.6185 -0.4300
 5120SOL    HW216603   1.001   0.616   4.878  0.1729 -0.8998  1.2800
 5121SOL     OW16604   3.131   4.999   0.343 -0.0226  0.7035 -0.0169
 5121SOL    HW116605   3.164   4.974   0.429  0.6870  1.8030  0.0315
 5121SOL    HW216606   3.090   5.085   0.356  1.3888  1.5486 -1.0715
 5122SOL     OW16607   0.422   1.143   2.927  0.1128  0.6560  0.4473
 5122SOL    HW116608   0.363   1.127   2.854  1.6244 -0.3879 -0.5990
 5122SOL    HW216609   0.442   1.236   2.923 -0.2943  0.7181 -0.0968
 5123SOL     OW16610   6.947   6.497   6.331 -0.9398  0.2356 -0.1797
 5123SOL    HW116611   7.021   6.544   6.292  0.2443 -1.4489 -0.0607
 5123SOL    HW216612   6.900   6.563   6.381  0.5038  1.3511 -0.2626
 5124SOL     OW16613   6.011   5.534   0.675 -0.2529 -0.0475  0.8819
 5124SOL    HW116614   5.951   5.518   0.748 -0.8388  0.2172  0.4616
 5124SOL    HW216615   6.094   5.554   0.716 -0.9844  1.7983  1.5155
 5125SOL     OW16616   4.374   3.495   4.207  0.2766  0.8042 -0.1467
 5125SOL    HW116617   4.384   3.415   4.155 -0.7834 -0.4246  1.4768
 5125SOL    HW216618   4.432   3.482   4.282 -1.2318  0.7314  1.0420
 5126SOL     OW16619   3.812   7.854   2.403 -0.4103  0.4594  0.4204
 5126SOL    HW116620   3.758   7.875   2.479 -0.1630 -1.1873  1.0913
 5126SOL    HW216621   3.899   7.836   2.440 -0.4228 -0.8871 -0.1641
 5127SOL     OW16622   1.779   2.094   6.907 -0.0384 -0.0584  0.0517
 5127SOL    HW116623   1.826   2.130   6.982 -1.6481  3.2273 -0.3737
 5127SOL    HW216624   1.721   2.028   6.944  0.2623  0.4802  1.5166
 5128SOL     OW16625   6.049   5.617   5.809 -0.7569 -0.2476 -0.0685
 5128SOL    HW116626   6.075   5.545   5.865  0.9520 -0.3700 -0.9874
 5128SOL    HW216627   5.986   5.667   5.861  0.2107 -0.7911  1.6629
 5129SOL     OW16628   6.829   7.737   4.936  0.1497 -0.1379  0.2620
 5129SOL    HW116629   6.747   7.701   4.903  0.3567 -0.4077  0.0412
 5129SOL    HW216630   6.897   7.693   4.885  0.3961  0.6507 -0.0955
 5130SOL     OW16631   0.674   2.125   6.375  0.0932 -0.4879 -0.1976
 5130SOL    HW116632   0.584   2.092   6.368 -0.1889  0.3585 -0.6261
 5130SOL    HW216633   0.685   2.144   6.468 -0.2962 -0.2786 -0.1887
 5131SOL     OW16634   6.117   2.896   2.373  0.2348  0.0805  0.3836
 5131SOL    HW116635   6.026   2.881   2.348  0.4756 -0.9193  0.0797
 5131SOL    HW216636   6.141   2.819   2.424  1.1370 -0.0364 -0.1968
 5132SOL     OW16637   1.470   6.405   1.462  0.0621  0.7413 -0.1885
 5132SOL    HW116638   1.499   6.413   1.553 -0.5919 -1.0335  0.2031
 5132SOL    HW216639   1.540   6.357   1.418 -0.5965 -0.3338 -0.0910
 5133SOL     OW16640   8.258   4.087   2.334 -0.1187 -0.2946  0.0923
 5133SOL    HW116641   8.289   4.037   2.410 -0.9268 -0.7064  0.1562
 5133SOL    HW216642   8.193   4.148   2.370  0.5215  0.4961 -0.0573
 5134SOL     OW16643   5.414   0.367   0.860 -0.0619 -0.2430  0.0466
 5134SOL    HW116644   5.352   0.307   0.902  2.2048 -1.4682  1.7950
 5134SOL    HW216645   5.449   0.317   0.786  0.1708 -0.2313  0.1491
 5135SOL     OW16646   5.827   1.242   3.748 -0.4941 -0.3739  0.0726
 5135SOL    HW116647   5.906   1.190   3.733 -0.9564 -0.5391 -2.0741
 5135SOL    HW216648   5.786   1.247   3.661 -1.6063  1.7121  0.6920
 5136SOL     OW16649   0.105   6.184   3.056  0.0704  0.5825  0.1396
 5136SOL    HW116650   0.029   6.134   3.025  0.6353  0.4226 -1.0120
 5136SOL    HW216651   0.176   6.120   3.062  0.1192  0.7181  1.2728
 5137SOL     OW16652   3.603   0.981   1.966  0.0816 -0.3397  0.8071
 5137SOL    HW116653   3.698   0.973   1.974  0.4350  1.9058 -0.8746
 5137SOL    HW216654   3.581   0.923   1.893  0.3638  0.4124  0.1268
 5138SOL     OW16655   4.441   5.119   2.537  0.4502 -0.1404 -0.1737
 5138SOL    HW116656   4.526   5.123   2.492  0.0699 -0.2511 -0.8956
 5138SOL    HW216657   4.463   5.130   2.630  1.1488  1.0693 -0.4667
 5139SOL     OW16658   2.373   7.904   5.877 -0.7823  0.4336  0.4595
 5139SOL    HW116659   2.421   7.878   5.798  1.3943  1.7506  1.2870
 5139SOL    HW216660   2.283   7.914   5.848 -0.3984 -1.0753 -1.4087
 5140SOL     OW16661   3.706   1.032   4.618 -0.5583 -0.7843  0.0278
 5140SOL    HW116662   3.617   1.006   4.642 -0.4014 -0.4818  0.9399
 5140SOL    HW216663   3.757   1.020   4.697 -0.0323  0.2195 -0.1478
 5141SOL     OW16664   2.814   6.439   0.104  0.4870 -0.1525  0.2693
 5141SOL    HW116665   2.865   6.427   0.024 -0.8756  1.0418 -0.8314
 5141SOL    HW216666   2.799   6.351   0.138  3.8318 -0.4723  1.0091
 5142SOL     OW16667   2.288   3.185   6.270 -0.4065  0.2383  0.1877
 5142SOL    HW116668   2.212   3.128   6.268 -0.1719 -0.0986  0.7710
 5142SOL    HW216669   2.272   3.249   6.201 -0.1647 -1.1989 -1.2320
 5143SOL     OW16670   1.980   0.290   4.546 -0.0132 -0.4241 -0.2624
 5143SOL    HW116671   1.903   0.322   4.592 -0.8987 -1.8403 -0.7160
 5143SOL    HW216672   2.009   0.214   4.597  0.1358 -0.8550 -0.9795
 5144SOL     OW16673   8.001   4.822   0.870 -0.1271  0.9330  0.0502
 5144SOL    HW116674   7.959   4.907   0.856  0.3361  1.2038  0.2990
 5144SOL    HW216675   7.968   4.792   0.954  0.7357  1.4784  0.5839
 5145SOL     OW16676   3.393   0.891   7.535 -0.3573  0.0890  0.3405
 5145SOL    HW116677   3.453   0.847   7.595  0.5187 -0.0347 -0.6153
 5145SOL    HW216678   3.393   0.983   7.563 -0.2993 -0.0546  0.8070
 5146SOL     OW16679   4.903   4.830   2.265  0.3551  0.2497 -0.0006
 5146SOL    HW116680   4.892   4.925   2.276  0.0954  0.3267 -0.8373
 5146SOL    HW216681   4.994   4.820   2.236 -0.6770  0.6002 -3.5602
 5147SOL     OW16682   5.493   2.245   1.476  0.2700  0.1097  0.0828
 5147SOL    HW116683   5.423   2.181   1.489  1.5655 -1.3670  0.0030
 5147SOL    HW216684   5.485   2.304   1.551 -0.1350 -0.9451  0.8911
 5148SOL     OW16685   5.505   2.603   2.589 -0.0090 -0.1208 -0.2810
 5148SOL    HW116686   5.474   2.543   2.521  0.0245  0.2755 -0.6497
 5148SOL    HW216687   5.442   2.676   2.586  1.4148  1.0880 -1.5978
 5149SOL     OW16688   5.063   5.465   4.860  0.6787 -0.2906 -0.4646
 5149SOL    HW116689   5.082   5.389   4.916  1.9156  2.1671  2.5916
 5149SOL    HW216690   4.968   5.474   4.864  0.7062 -0.4876  0.7889
 5150SOL     OW16691   0.786   1.585   6.464 -0.4519 -0.5793  0.1095
 5150SOL    HW116692   0.734   1.505   6.466  0.4166 -1.1311  0.5149
 5150SOL    HW216693   0.859   1.565   6.405  0.3376 -0.4426  1.0261
 5151SOL     OW16694   1.608   2.454   6.196  0.0757 -0.1134  0.3060
 5151SOL    HW116695   1.690   2.489   6.161 -0.3855  1.2906  0.5555
 5151SOL    HW216696   1.635   2.395   6.266  0.8868 -0.1341 -0.0158
 5152SOL     OW16697   7.373   3.161   2.938  0.1380 -0.0295  0.1041
 5152SOL    HW116698   7.349   3.155   3.031  0.8178 -1.5227  0.1990
 5152SOL    HW216699   7.404   3.073   2.916 -1.6059 -0.1510 -1.9802
 5153SOL     OW16700   7.664   4.268   2.839  0.0932  0.2270 -0.4117
 5153SOL    HW116701   7.695   4.219   2.916  0.0125 -0.1813 -0.6369
 5153SOL    HW216702   7.617   4.203   2.787 -1.2212  0.8608 -0.0372
 5154SOL     OW16703   0.108   3.010   2.299 -0.1150  0.6838 -0.1470
 5154SOL    HW116704   0.126   2.945   2.231 -2.0051  0.1750 -0.1986
 5154SOL    HW216705   0.013   3.004   2.313  0.2305  0.8071  2.5157
 5155SOL     OW16706   3.717   5.356   1.242 -0.2243 -0.0641  0.6039
 5155SOL    HW116707   3.704   5.269   1.280  1.3557 -0.5364  0.0815
 5155SOL    HW216708   3.638   5.405   1.266  0.1167 -0.7599  3.3234
 5156SOL     OW16709   4.307   6.134   3.416 -0.5029 -0.2369 -1.3734
 5156SOL    HW116710   4.301   6.063   3.480 -0.3617  1.5263  0.6604
 5156SOL    HW216711   4.263   6.100   3.338 -2.1679 -1.8439  0.2241
 5157SOL     OW16712   3.943   7.110   3.278  0.0447 -0.4727  0.2974
 5157SOL    HW116713   3.959   7.204   3.280 -1.4080 -0.1710 -1.3254
 5157SOL    HW216714   3.851   7.101   3.304  0.3897 -1.5093  1.1789
 5158SOL     OW16715   6.578   6.207   1.747 -0.6070  0.5908  0.5584
 5158SOL    HW116716   6.494   6.241   1.716  0.3161  1.1278 -1.4694
 5158SOL    HW216717   6.610   6.152   1.676 -0.6739 -2.1720  2.5856
 5159SOL     OW16718   6.283   5.329   1.351 -0.6241 -0.6760 -0.1288
 5159SOL    HW116719   6.236   5.247   1.334  1.0586 -1.6503 -0.2845
 5159SOL    HW216720   6.335   5.310   1.429 -2.2257  1.1466  1.4409
 5160SOL     OW16721   0.382   8.096   0.025 -0.1576 -0.0082  0.3273
 5160SOL    HW116722   0.467   8.135   0.046 -0.4916  0.8744  0.0764
 5160SOL    HW216723   0.397   8.002   0.026  0.9967  0.1676 -0.4606
 5161SOL     OW16724   3.886   1.962   0.363 -0.0933 -0.3162 -0.3776
 5161SOL    HW116725   3.854   1.884   0.407  1.3593 -1.0231 -0.5392
 5161SOL    HW216726   3.921   2.016   0.434  0.1092 -0.4080 -0.4070
 5162SOL     OW16727   3.652   5.370   2.476  0.4874 -0.2054  0.4436
 5162SOL    HW116728   3.603   5.325   2.545 -0.9728  0.8046  0.0863
 5162SOL    HW216729   3.638   5.317   2.398 -1.2852  0.8585  0.0084
 5163SOL     OW16730   5.051   4.113   5.603 -0.0343  0.0915 -0.2414
 5163SOL    HW116731   5.143   4.103   5.579 -0.2970 -0.2147 -1.1476
 5163SOL    HW216732   5.026   4.197   5.565 -0.4943 -0.4622 -1.1606
 5164SOL     OW16733   5.436   2.449   3.493  0.3477 -0.6216 -0.4624
 5164SOL    HW116734   5.436   2.543   3.515  1.9133 -0.9899  1.2074
 5164SOL    HW216735   5.378   2.443   3.417  0.3314  1.7250 -0.6936
 5165SOL     OW16736   1.765   4.033   5.865  0.1982  0.2949  0.3120
 5165SOL    HW116737   1.693   4.056   5.807  1.8451  0.4735 -1.7369
 5165SOL    HW216738   1.815   4.114   5.876  0.6525 -0.0534  0.9033
 5166SOL     OW16739   1.456   5.798   1.626 -0.6638  0.1164 -0.1478
 5166SOL    HW116740   1.427   5.845   1.548  1.5713  0.1587 -0.9765
 5166SOL    HW216741   1.485   5.866   1.687  0.3368 -0.0511 -0.4252
 5167SOL     OW16742   7.958   5.116   4.304 -0.0649  0.4382  1.0998
 5167SOL    HW116743   7.949   5.056   4.230  2.6411  3.2771 -1.6476
 5167SOL    HW216744   8.027   5.076   4.358  0.1098 -0.1209  0.4763
 5168SOL     OW16745   4.434   0.288   2.078 -0.5594 -0.1253 -0.3789
 5168SOL    HW116746   4.486   0.308   1.999 -2.1513  1.2421 -1.1108
 5168SOL    HW216747   4.479   0.336   2.148 -0.6120  0.7798 -0.9490
 5169SOL     OW16748   4.903   3.874   3.488  0.0989  0.2526  0.1639
 5169SOL    HW116749   4.861   3.807   3.542  0.7604 -1.3989 -1.3192
 5169SOL    HW216750   4.989   3.887   3.528  0.2928 -0.4194 -0.0205
 5170SOL     OW16751   4.186   4.039   1.522 -0.0168  0.2155  0.1329
 5170SOL    HW116752   4.244   4.091   1.466  0.9904  0.7055  1.6127
 5170SOL    HW216753   4.212   3.949   1.506  1.1840  0.4401  0.8358
 5171SOL     OW16754   1.230   3.240   8.250 -0.0022  0.2762  0.0939
 5171SOL    HW116755   1.163   3.246   8.182  0.6112  0.0262 -0.5391
 5171SOL    HW216756   1.238   3.146   8.267  0.3472  0.2871  0.0005
 5172SOL     OW16757   5.543   3.536   2.414 -0.1576  0.4547  0.9403
 5172SOL    HW116758   5.560   3.521   2.321 -1.9361  0.6053  0.5819
 5172SOL    HW216759   5.623   3.577   2.446  0.6482 -0.0206 -0.4182
 5173SOL     OW16760   1.482   5.043   0.051  0.6664 -0.2543 -0.2743
 5173SOL    HW116761   1.394   5.013   0.072  0.6076 -0.1764 -0.4106
 5173SOL    HW216762   1.522   5.062   0.136  0.1083  0.9898 -0.2778
 5174SOL     OW16763   2.735   6.608   0.329 -0.6356  0.1674  0.3542
 5174SOL    HW116764   2.648   6.569   0.325 -0.9509  0.9366 -0.6194
 5174SOL    HW216765   2.784   6.564   0.259 -0.6690  0.7153 -0.0228
 5175SOL     OW16766   3.852   2.643   1.535  0.4735  0.1002 -0.0092
 5175SOL    HW116767   3.810   2.692   1.607 -0.6910  0.6655 -1.0473
 5175SOL    HW216768   3.908   2.579   1.579  0.4145  0.9829  1.4001
 5176SOL     OW16769   5.489   3.143   6.695 -0.3771 -0.0315  0.6170
 5176SOL    HW116770   5.396   3.132   6.715 -0.6870 -0.2900 -0.8839
 5176SOL    HW216771   5.490   3.169   6.603  1.1069 -1.2356  0.2792
 5177SOL     OW16772   3.581   6.178   2.858 -0.0170  0.1607 -0.3209
 5177SOL    HW116773   3.652   6.232   2.824 -0.2412  1.4624  1.2244
 5177SOL    HW216774   3.504   6.207   2.809 -0.4777  2.5466  1.6964
 5178SOL     OW16775   0.858   7.769   0.009 -0.4046  0.1920  0.2634
 5178SOL    HW116776   0.898   7.686   0.037 -1.0876 -0.4123 -0.5166
 5178SOL    HW216777   0.887   7.779  -0.081  0.8616  1.5520  0.8060
 5179SOL     OW16778   4.188   1.947   6.800  0.8397 -0.0195  0.4782
 5179SOL    HW116779   4.193   1.975   6.708 -0.1297  1.2398  0.7920
 5179SOL    HW216780   4.275   1.913   6.820  0.8417 -1.0054 -1.1256
 5180SOL     OW16781   1.582   8.192   0.415  0.0029  0.6043  0.1263
 5180SOL    HW116782   1.574   8.112   0.467  1.9987  0.8574  0.8725
 5180SOL    HW216783   1.492   8.215   0.392 -0.7010 -1.0105  1.1832
 5181SOL     OW16784   7.136   3.753   0.452 -0.3762 -0.2735 -0.3213
 5181SOL    HW116785   7.169   3.841   0.433  1.7903 -1.1247 -0.6072
 5181SOL    HW216786   7.052   3.749   0.407 -0.6688  1.7631 -0.0189
 5182SOL     OW16787   5.108   7.118   3.157 -0.1576  0.0070  0.8656
 5182SOL    HW116788   5.139   7.167   3.233 -1.4514  2.2131  0.0079
 5182SOL    HW216789   5.023   7.082   3.184 -0.6076  0.7743  0.4746
 5183SOL     OW16790   3.399   7.857   4.824 -0.5638 -0.2109 -0.3420
 5183SOL    HW116791   3.413   7.788   4.758  0.0898 -1.5893  1.2131
 5183SOL    HW216792   3.310   7.843   4.855 -0.1341 -0.8996  0.5901
 5184SOL     OW16793   3.521   0.973   6.049 -0.1999  0.0899  0.2957
 5184SOL    HW116794   3.518   1.056   6.001  1.2392 -0.2501 -0.4263
 5184SOL    HW216795   3.431   0.958   6.076 -0.7208  1.2193 -0.7284
 5185SOL     OW16796   5.560   5.637   6.389 -0.2224 -0.1108  0.4086
 5185SOL    HW116797   5.608   5.564   6.428  1.5853  0.5691 -0.4729
 5185SOL    HW216798   5.554   5.702   6.458  1.0803  0.2164  0.2392
 5186SOL     OW16799   5.153   2.594   8.220 -0.7781 -0.0912 -0.6059
 5186SOL    HW116800   5.070   2.569   8.261 -1.5296  2.1278 -0.6743
 5186SOL    HW216801   5.220   2.558   8.278 -1.8018 -0.4809  0.3589
 5187SOL     OW16802   5.028   0.013   3.870 -0.7931  0.0822 -0.4007
 5187SOL    HW116803   5.026   0.051   3.958 -0.5158  0.3130 -0.4917
 5187SOL    HW216804   5.120  -0.006   3.855 -0.9537 -0.7706 -0.2965
 5188SOL     OW16805   0.180   5.327   4.435  0.3111  0.0483 -0.0614
 5188SOL    HW116806   0.241   5.391   4.472  0.9151  0.1455 -1.2164
 5188SOL    HW216807   0.234   5.251   4.415 -0.1814 -0.3478  0.1180
 5189SOL     OW16808   1.352   4.134   8.021  0.1079 -0.1806 -0.0954
 5189SOL    HW116809   1.263   4.098   8.021 -0.2757  0.7300 -0.7854
 5189SOL    HW216810   1.407   4.060   7.997 -0.1348 -1.4329  2.9953
 5190SOL     OW16811   3.360   8.053   4.434  0.5689 -0.3449  0.1075
 5190SOL    HW116812   3.320   7.967   4.448 -0.0019  0.1243  1.4636
 5190SOL    HW216813   3.368   8.061   4.339 -1.0536 -1.1332 -0.1016
 5191SOL     OW16814   1.018   6.215   6.200  0.0802 -0.0404 -0.2672
 5191SOL    HW116815   1.078   6.162   6.252  0.5988 -0.9037 -1.7075
 5191SOL    HW216816   0.941   6.226   6.255  0.3460 -1.5150  0.4203
 5192SOL     OW16817   7.608   0.360   7.923 -0.0808 -0.4131  0.2810
 5192SOL    HW116818   7.555   0.280   7.923 -2.5461  1.1524 -1.1227
 5192SOL    HW216819   7.550   0.427   7.960  1.9968  0.7351  1.5701
 5193SOL     OW16820   2.578   6.632   7.652  0.4477  0.2119 -0.2325
 5193SOL    HW116821   2.580   6.664   7.742  2.3061 -0.7830  0.0989
 5193SOL    HW216822   2.536   6.546   7.658  1.2097 -0.1631 -0.2052
 5194SOL     OW16823   4.123   4.491   7.308 -0.6476 -0.3503 -0.3930
 5194SOL    HW116824   4.145   4.482   7.401 -0.5795  0.2034 -0.3501
 5194SOL    HW216825   4.081   4.408   7.285  0.4106 -0.9475 -0.1718
 5195SOL     OW16826   4.834   4.138   7.391  0.3791 -0.0346  0.1183
 5195SOL    HW116827   4.774   4.191   7.443 -0.4327 -0.3610 -0.4834
 5195SOL    HW216828   4.878   4.201   7.333 -0.0335  0.0870 -0.0665
 5196SOL     OW16829   5.521   7.430   4.758 -0.4814 -0.1497  0.3080
 5196SOL    HW116830   5.451   7.459   4.699  0.0676  0.7110  0.0734
 5196SOL    HW216831   5.535   7.503   4.818 -0.2283 -0.5695  0.7694
 5197SOL     OW16832   1.828   5.426   2.505  0.0675  0.1127  0.0081
 5197SOL    HW116833   1.896   5.471   2.556 -0.0604  0.3407 -0.0245
 5197SOL    HW216834   1.829   5.470   2.420  1.1320 -1.0581 -0.6194
 5198SOL     OW16835   1.541   5.119   4.832 -0.2101 -0.0412  0.0738
 5198SOL    HW116836   1.599   5.051   4.864  0.6961  0.5260 -0.3471
 5198SOL    HW216837   1.538   5.184   4.902 -2.4316 -1.2984  1.1981
 5199SOL     OW16838   5.368   1.223   4.045  0.5064  0.0156 -0.0669
 5199SOL    HW116839   5.317   1.194   4.120  1.9632 -0.9775  0.5642
 5199SOL    HW216840   5.425   1.291   4.080 -0.1288  0.8784 -0.6917
 5200SOL     OW16841   6.954   2.762   3.231  0.1756 -0.6750 -0.4235
 5200SOL    HW116842   6.918   2.787   3.145  0.3853  0.6377 -0.1472
 5200SOL    HW216843   7.039   2.807   3.235 -0.1024 -0.2368  0.7186
 5201SOL     OW16844   7.031   3.199   3.150 -0.3383  0.0606  0.0140
 5201SOL    HW116845   7.005   3.185   3.241  0.9023 -1.2609  0.1853
 5201SOL    HW216846   7.091   3.274   3.153 -1.2474  0.8021  0.0979
 5202SOL     OW16847   6.128   0.919   1.797  0.4451  0.3868  0.1376
 5202SOL    HW116848   6.159   0.973   1.870 -0.7632  2.5848 -0.9135
 5202SOL    HW216849   6.079   0.848   1.838  0.0299  1.4302  1.4901
 5203SOL     OW16850   5.141   4.534   2.962 -0.2061  0.0714 -0.1582
 5203SOL    HW116851   5.177   4.466   2.905 -1.4192  1.3388 -2.4917
 5203SOL    HW216852   5.049   4.510   2.972 -0.5190  1.1112 -0.5770
 5204SOL     OW16853   2.441   3.505   1.887  0.2759 -0.6236 -0.1460
 5204SOL    HW116854   2.481   3.492   1.973  0.0237  1.2569  0.2878
 5204SOL    HW216855   2.476   3.434   1.833  0.3263 -1.9015  1.5387
 5205SOL     OW16856   2.976   5.213   4.103  0.0935  0.1236  0.1918
 5205SOL    HW116857   2.892   5.258   4.114 -0.3266 -0.9528  1.5990
 5205SOL    HW216858   3.040   5.272   4.143 -0.3094 -0.0193  1.0701
 5206SOL     OW16859   4.693   5.329   3.773 -0.4630  0.1139 -0.0757
 5206SOL    HW116860   4.744   5.339   3.854 -0.5922  1.7883 -0.1874
 5206SOL    HW216861   4.711   5.239   3.745 -0.8648 -0.6843  2.1118
 5207SOL     OW16862   0.196   6.703   1.215  0.3744  0.0497 -0.4722
 5207SOL    HW116863   0.238   6.618   1.213  1.4516  0.4885  2.1624
 5207SOL    HW216864   0.103   6.684   1.199  0.2639 -1.8737  2.1476
 5208SOL     OW16865   3.830   1.108   6.554  0.1343  0.4190  0.1188
 5208SOL    HW116866   3.900   1.150   6.603 -0.0642  0.9127 -0.0191
 5208SOL    HW216867   3.857   1.115   6.463  1.0561 -1.5172  0.2267
 5209SOL     OW16868   3.020   1.655   5.928  0.6613 -0.3486 -0.2214
 5209SOL    HW116869   3.079   1.728   5.909  1.6327 -0.5800  1.8114
 5209SOL    HW216870   3.051   1.621   6.011 -0.1938 -2.6872 -0.8426
 5210SOL     OW16871   4.701   3.854   0.198  0.5568 -0.2279  0.0022
 5210SOL    HW116872   4.699   3.905   0.279 -0.7777 -1.9647  1.0814
 5210SOL    HW216873   4.693   3.763   0.226  0.7148 -0.9080 -2.0508
 5211SOL     OW16874   0.400   1.338   0.483  0.4727 -0.5260  0.5153
 5211SOL    HW116875   0.316   1.297   0.500  0.7574 -1.2802  0.1396
 5211SOL    HW216876   0.458   1.302   0.550  0.6036 -0.3690  0.4861
 5212SOL     OW16877   1.711   7.429   6.104 -0.2001  0.1296 -0.1166
 5212SOL    HW116878   1.707   7.473   6.019 -5.7114 -1.6419 -0.9611
 5212SOL    HW216879   1.716   7.500   6.168 -0.9764  1.6661 -1.7378
 5213SOL     OW16880   3.697   4.794   1.972  0.0524 -0.1059  0.3431
 5213SOL    HW116881   3.691   4.754   1.885 -0.7049 -0.7697  0.6903
 5213SOL    HW216882   3.623   4.757   2.020  0.1707  0.6539  1.1106
 5214SOL     OW16883   2.844   1.085   4.437 -0.4698  0.1747  0.2011
 5214SOL    HW116884   2.814   1.088   4.528 -1.6883 -0.7297 -0.1473
 5214SOL    HW216885   2.883   1.170   4.421  0.5891  0.0170  1.8535
 5215SOL     OW16886   4.713   3.143   4.270  0.2778  0.0430  0.2161
 5215SOL    HW116887   4.762   3.181   4.343 -0.3871 -1.8509  1.6739
 5215SOL    HW216888   4.621   3.156   4.293  0.0525  1.1162 -1.2064
 5216SOL     OW16889   7.715   1.058   8.017 -0.1728 -1.0119  0.1239
 5216SOL    HW116890   7.671   1.064   8.102 -0.0271  0.1158  0.1261
 5216SOL    HW216891   7.645   1.049   7.954 -0.4660  1.3143  0.0765
 5217SOL     OW16892   1.809   5.225   4.503 -0.3372  0.0228 -0.2072
 5217SOL    HW116893   1.865   5.212   4.579 -0.5467  1.0187  0.1105
 5217SOL    HW216894   1.815   5.318   4.483 -2.9447  0.4038  0.6437
 5218SOL     OW16895   6.411   5.652   3.449 -0.4750 -0.0145 -0.0204
 5218SOL    HW116896   6.375   5.671   3.363  1.3145 -0.6388 -0.9301
 5218SOL    HW216897   6.417   5.556   3.452  0.5938  0.0565  0.3160
 5219SOL     OW16898   7.970   4.024   1.315  0.5161 -0.0537  0.5355
 5219SOL    HW116899   7.965   3.954   1.250  1.3869 -0.1767  0.6004
 5219SOL    HW216900   8.023   4.092   1.273 -0.7254  0.7779  0.2816
 5220SOL     OW16901   2.917   5.885   5.583  0.2157  0.6189 -0.1767
 5220SOL    HW116902   2.955   5.799   5.597  1.3196  1.2704  1.0097
 5220SOL    HW216903   2.990   5.938   5.548 -0.2278  1.2676 -0.1257
 5221SOL     OW16904   7.498   5.647   6.597 -0.7141  0.4992 -0.2572
 5221SOL    HW116905   7.418   5.595   6.596 -1.8160  2.1375 -2.5987
 5221SOL    HW216906   7.527   5.648   6.506  1.4057  0.7995  0.4026
 5222SOL     OW16907   3.478   7.644   1.388 -0.4831  0.0539 -0.8935
 5222SOL    HW116908   3.492   7.661   1.295 -2.1491  1.0075 -0.9829
 5222SOL    HW216909   3.383   7.642   1.399 -0.3224 -1.3738  0.5593
 5223SOL     OW16910   4.040   7.985   3.383 -0.4636  0.9783 -0.2968
 5223SOL    HW116911   4.076   7.971   3.296 -1.2595  1.0815 -0.6481
 5223SOL    HW216912   4.044   7.898   3.424  0.7408  1.1169 -0.1082
 5224SOL     OW16913   2.982   4.637   2.437  0.5716 -1.0232  0.0074
 5224SOL    HW116914   2.914   4.571   2.449 -1.0206  0.3722 -1.1320
 5224SOL    HW216915   2.946   4.717   2.476  0.6600  0.2458 -2.3979
 5225SOL     OW16916   5.045   6.159   1.235 -0.0964 -0.0133 -0.4494
 5225SOL    HW116917   4.959   6.147   1.194 -0.9289  0.9022  0.9776
 5225SOL    HW216918   5.080   6.238   1.195  0.3071 -0.6692 -1.4004
 5226SOL     OW16919   8.240   7.681   4.786 -0.5989  0.3080 -0.8928
 5226SOL    HW116920   8.277   7.593   4.777  0.7291  0.7397  0.3497
 5226SOL    HW216921   8.241   7.699   4.880 -1.2881  1.4846 -1.0967
 5227SOL     OW16922   0.022   6.303   7.089 -0.0488  0.4727 -0.3433
 5227SOL    HW116923   0.082   6.235   7.121  0.2251  1.1631  0.5980
 5227SOL    HW216924  -0.031   6.327   7.165  0.7316  2.2403 -0.3355
 5228SOL     OW16925   5.877   3.165   2.512 -0.2605 -0.6859 -0.3147
 5228SOL    HW116926   5.884   3.236   2.575 -0.0367  0.3896 -1.5202
 5228SOL    HW216927   5.802   3.113   2.541 -1.7276  1.2277 -0.5927
 5229SOL     OW16928   1.272   4.726   6.726 -0.3052  0.1709 -0.5295
 5229SOL    HW116929   1.271   4.819   6.749  0.0258  0.4533 -1.6112
 5229SOL    HW216930   1.279   4.725   6.630  0.1221 -0.9630 -0.4978
 5230SOL     OW16931   7.514   3.572   3.369  0.0038 -0.5335  0.2246
 5230SOL    HW116932   7.458   3.535   3.301 -2.2473 -0.1616  1.8442
 5230SOL    HW216933   7.579   3.624   3.321 -0.2213 -2.0194 -1.7376
 5231SOL     OW16934   5.882   1.686   1.817 -0.2911 -0.1137 -0.2438
 5231SOL    HW116935   5.912   1.724   1.900  2.6264 -0.4353 -1.1038
 5231SOL    HW216936   5.894   1.591   1.829  0.6181 -0.1233 -1.1982
 5232SOL     OW16937   5.563   0.160   3.008 -0.0820  0.3096 -1.5047
 5232SOL    HW116938   5.580   0.113   3.089 -1.2381 -0.7238 -1.8481
 5232SOL    HW216939   5.640   0.216   2.996 -0.7926  1.9370  1.3011
 5233SOL     OW16940   3.695   2.182   4.433  0.3417  0.0722 -0.1374
 5233SOL    HW116941   3.778   2.137   4.421 -0.3579 -1.5328  0.8740
 5233SOL    HW216942   3.681   2.184   4.527 -1.1370 -0.4111 -0.3224
 5234SOL     OW16943   3.205   7.572   2.044  0.3814  0.6443 -0.2607
 5234SOL    HW116944   3.251   7.499   2.003 -1.5801  0.2968 -1.9217
 5234SOL    HW216945   3.225   7.647   1.988 -1.2349  0.4330 -1.1720
 5235SOL     OW16946   1.094   7.262   5.619  0.1363 -0.0565 -0.3662
 5235SOL    HW116947   1.013   7.278   5.666  0.8199 -0.0531  0.8459
 5235SOL    HW216948   1.141   7.346   5.623  1.2143 -0.6861  1.0076
 5236SOL     OW16949   2.025   3.064   6.841  0.0580 -0.2198  0.4881
 5236SOL    HW116950   2.109   3.098   6.811 -0.6132  0.0138 -1.1694
 5236SOL    HW216951   2.000   2.999   6.775 -1.9614  1.0702 -0.0889
 5237SOL     OW16952   6.249   7.272   4.877  0.0309 -0.1479  0.4055
 5237SOL    HW116953   6.342   7.252   4.868 -0.2296 -1.6229  0.7983
 5237SOL    HW216954   6.209   7.237   4.797 -0.1841  0.4990  0.2271
 5238SOL     OW16955   7.598   3.629   7.902 -0.0835  0.7259  0.6428
 5238SOL    HW116956   7.666   3.666   7.845 -0.2475  0.7843  0.4818
 5238SOL    HW216957   7.637   3.628   7.989 -0.0092  1.1053  0.6152
 5239SOL     OW16958   1.291   5.316   7.764 -0.8016 -0.2118 -0.3787
 5239SOL    HW116959   1.307   5.351   7.676  1.2670 -2.0828 -0.7805
 5239SOL    HW216960   1.205   5.275   7.759 -1.0843  0.4752 -1.2523
 5240SOL     OW16961   2.355   1.970   1.328  0.2033 -0.2460  0.5360
 5240SOL    HW116962   2.365   1.957   1.422  1.6386 -2.2395  0.1218
 5240SOL    HW216963   2.435   1.934   1.289  0.2538  1.7649 -1.3671
 5241SOL     OW16964   6.063   5.936   7.770  0.4124 -0.1228  0.4594
 5241SOL    HW116965   6.048   5.872   7.839  0.0945 -1.5070 -0.8567
 5241SOL    HW216966   6.043   5.889   7.689  0.8947  1.4225 -0.5865
 5242SOL     OW16967   4.446   0.368   2.477 -0.1939 -0.4038 -0.1063
 5242SOL    HW116968   4.369   0.424   2.485  0.4108  0.2630  1.1959
 5242SOL    HW216969   4.509   0.421   2.428 -0.1008 -0.4419 -0.0281
 5243SOL     OW16970   7.331   6.052   6.564 -0.0024  0.6099  0.0154
 5243SOL    HW116971   7.414   6.088   6.533 -1.0663  1.9918 -1.2361
 5243SOL    HW216972   7.328   6.075   6.657  0.7018  1.1343 -0.0904
 5244SOL     OW16973   6.518   3.782   2.137 -0.0991  0.3634  0.2348
 5244SOL    HW116974   6.500   3.846   2.206 -0.0639 -0.2767  0.8272
 5244SOL    HW216975   6.604   3.747   2.157 -0.4736 -0.4872  0.3765
 5245SOL     OW16976   0.859   7.362   4.883  0.2744 -0.2265 -0.1178
 5245SOL    HW116977   0.891   7.285   4.837  0.2895 -0.8574  0.9294
 5245SOL    HW216978   0.923   7.377   4.952 -1.3092 -1.1384  1.6193
 5246SOL     OW16979   6.688   4.221   6.853  0.1026 -0.0818 -0.8459
 5246SOL    HW116980   6.723   4.146   6.902 -1.1795  0.3336  0.7446
 5246SOL    HW216981   6.594   4.219   6.870 -0.2367  0.6650 -2.5195
 5247SOL     OW16982   1.034   3.330   3.943  0.0612 -0.0237  0.1560
 5247SOL    HW116983   1.042   3.315   4.037 -2.0925  1.2341  0.5658
 5247SOL    HW216984   1.108   3.283   3.905  1.6271  0.4070  2.5611
 5248SOL     OW16985   6.989   4.302   5.931 -0.1185 -0.2425  0.0100
 5248SOL    HW116986   6.932   4.265   5.998 -0.3844  1.9144  0.9963
 5248SOL    HW216987   7.077   4.270   5.954 -0.5330 -1.3660  0.0495
 5249SOL     OW16988   6.245   5.836   1.234  0.1391 -0.2503  0.0211
 5249SOL    HW116989   6.265   5.768   1.299  1.7277 -0.4072 -0.5942
 5249SOL    HW216990   6.163   5.808   1.194 -0.8634 -0.1397  1.9818
 5250SOL     OW16991   7.224   3.263   1.666  0.3937 -0.2585  0.0293
 5250SOL    HW116992   7.186   3.351   1.666 -1.4321 -1.0338  0.3380
 5250SOL    HW216993   7.208   3.230   1.755 -1.6208 -2.0240 -0.9395
 5251SOL     OW16994   4.384   2.685   4.532 -0.9915  0.2229  0.1756
 5251SOL    HW116995   4.320   2.668   4.602 -0.1576 -0.8574  0.6779
 5251SOL    HW216996   4.334   2.675   4.451 -1.3565 -1.0624  0.5580
 5252SOL     OW16997   4.337   4.107   0.653 -0.9264 -0.4225  0.8297
 5252SOL    HW116998   4.272   4.149   0.596  0.3035 -1.4010 -1.3919
 5252SOL    HW216999   4.310   4.015   0.654 -0.0291 -0.6887  0.5153
 5253SOL     OW17000   6.175   3.758   3.784  0.0560 -0.4781 -0.0048
 5253SOL    HW117001   6.118   3.830   3.759 -0.0131 -0.5131  0.0497
 5253SOL    HW217002   6.174   3.759   3.880  2.6300  1.4906  0.0363
 5254SOL     OW17003   5.619   1.923   7.078  0.4453 -0.1336  0.1471
 5254SOL    HW117004   5.552   1.926   7.145  1.2655 -0.2590  0.9806
 5254SOL    HW217005   5.679   1.994   7.100  0.7578 -0.2135 -0.4159
 5255SOL     OW17006   1.257   7.576   5.376  0.0794  0.4701 -0.2931
 5255SOL    HW117007   1.264   7.511   5.446  1.0300 -1.9315 -2.5349
 5255SOL    HW217008   1.164   7.601   5.377 -0.6043 -1.8837 -0.1687
 5256SOL     OW17009   0.760   1.952   5.274  0.0757 -0.0503 -0.2818
 5256SOL    HW117010   0.681   1.966   5.222  0.0876  3.5577  0.5432
 5256SOL    HW217011   0.759   1.858   5.293 -2.0072 -0.7545 -3.4094
 5257SOL     OW17012   4.806   4.465   2.694 -0.3046  0.2346  0.0762
 5257SOL    HW117013   4.792   4.519   2.615  0.3428 -0.0086 -0.2082
 5257SOL    HW217014   4.816   4.528   2.765  1.0236  0.5215 -0.3480
 5258SOL     OW17015   3.642   4.545   1.235 -0.4242  0.1432 -0.2044
 5258SOL    HW117016   3.601   4.558   1.149  1.0515  0.3493 -0.8858
 5258SOL    HW217017   3.686   4.460   1.228 -1.3964 -0.4590  0.7993
 5259SOL     OW17018   2.708   1.684   6.252  0.0480 -0.8863  1.0278
 5259SOL    HW117019   2.783   1.736   6.281  1.1146 -1.0777 -1.2933
 5259SOL    HW217020   2.740   1.594   6.250 -0.8420 -1.2340  1.8829
 5260SOL     OW17021   0.041   2.458   2.874  0.7827  0.7559 -0.8454
 5260SOL    HW117022  -0.029   2.522   2.867  0.3842  0.3682 -0.4748
 5260SOL    HW217023   0.121   2.507   2.856  0.5371  1.4720 -0.0090
 5261SOL     OW17024   6.330   2.094   6.534 -0.4222 -0.0049  0.0526
 5261SOL    HW117025   6.384   2.118   6.609  0.1006 -1.6332  0.2166
 5261SOL    HW217026   6.279   2.173   6.515 -0.0164  0.6638  1.6431
 5262SOL     OW17027   0.145   7.011   4.009 -0.1755 -0.1073  0.4179
 5262SOL    HW117028   0.157   6.917   4.024 -1.4918 -0.8578 -2.7732
 5262SOL    HW217029   0.234   7.045   4.004  0.3428 -1.3970  0.4416
 5263SOL     OW17030   4.965   1.823   6.289  0.3282  0.6802  0.5602
 5263SOL    HW117031   4.994   1.886   6.223 -0.3241  1.0279  0.5934
 5263SOL    HW217032   5.003   1.855   6.371 -0.4378  1.3450  0.6677
 5264SOL     OW17033   3.019   5.634   2.583  0.0819  0.1961 -0.0864
 5264SOL    HW117034   3.094   5.588   2.621 -1.0285 -1.1077  0.5963
 5264SOL    HW217035   3.023   5.612   2.490  0.2178 -0.3518  0.0447
 5265SOL     OW17036   8.085   1.860   7.599  0.0096  0.1587  0.5491
 5265SOL    HW117037   8.161   1.909   7.631  0.8712  0.0618 -1.2683
 5265SOL    HW217038   8.119   1.807   7.528 -1.8476  0.4641 -0.6141
 5266SOL     OW17039   0.490   1.981   2.604 -0.3603  0.4984 -0.3501
 5266SOL    HW117040   0.433   1.939   2.669  0.0442 -0.7991 -0.8197
 5266SOL    HW217041   0.560   2.021   2.657 -0.0698 -0.4896  0.0186
 5267SOL     OW17042   6.623   8.291   4.773  0.1365  0.3665  0.3546
 5267SOL    HW117043   6.664   8.225   4.829  1.7341  1.7422  0.8604
 5267SOL    HW217044   6.533   8.261   4.762  0.7391 -1.7057  0.8514
 5268SOL     OW17045   6.212   6.620   1.681  0.3584  0.2150 -0.0896
 5268SOL    HW117046   6.167   6.667   1.751 -1.0781 -2.2803  0.7330
 5268SOL    HW217047   6.151   6.624   1.607 -0.1441 -0.9723  0.2354
 5269SOL     OW17048   6.156   6.960   1.598  0.2207 -0.0323 -0.1749
 5269SOL    HW117049   6.096   6.901   1.645 -0.4492  1.3363  0.7360
 5269SOL    HW217050   6.107   6.986   1.520 -0.5796  1.4280  0.7870
 5270SOL     OW17051   6.014   1.432   0.759 -0.6268 -0.3921  0.5227
 5270SOL    HW117052   6.005   1.527   0.754 -1.0242 -0.2433  3.1845
 5270SOL    HW217053   6.003   1.402   0.669  0.3483  2.1370 -0.4754
 5271SOL     OW17054   2.893   3.438   7.315 -0.1516 -0.7264  0.5285
 5271SOL    HW117055   2.956   3.366   7.314  1.8619  0.9669  1.4206
 5271SOL    HW217056   2.827   3.413   7.251  4.0196 -0.3185 -4.2445
 5272SOL     OW17057   2.040   8.301   5.518 -0.1800  0.0644  0.0054
 5272SOL    HW117058   2.048   8.304   5.614  1.7727  0.4423 -0.1530
 5272SOL    HW217059   2.105   8.236   5.490 -2.7527 -2.2127 -0.8789
 5273SOL     OW17060   0.797   6.573   6.983 -0.1190  0.3479 -0.3831
 5273SOL    HW117061   0.817   6.658   6.944 -2.5189  0.8120 -0.6636
 5273SOL    HW217062   0.779   6.515   6.909  1.4133 -0.4151 -0.1906
 5274SOL     OW17063   7.234   1.725   7.856 -0.7122  0.8570  0.3837
 5274SOL    HW117064   7.225   1.819   7.837  0.9741  0.7312 -1.1234
 5274SOL    HW217065   7.155   1.685   7.819 -1.3154  1.6251  0.8104
 5275SOL     OW17066   1.599   7.523   4.445  0.3483  0.1833 -0.8248
 5275SOL    HW117067   1.660   7.597   4.449  1.5060 -0.6477 -2.3844
 5275SOL    HW217068   1.581   7.501   4.537  0.8916  1.6516 -0.3546
 5276SOL     OW17069   7.148   2.924   2.635 -0.1578 -0.3600 -0.0682
 5276SOL    HW117070   7.136   2.875   2.717  1.1309  0.0686  0.3910
 5276SOL    HW217071   7.062   2.921   2.593  0.2134 -4.2127 -0.7316
 5277SOL     OW17072   0.625   0.672   3.325  0.6578  0.3611  0.7177
 5277SOL    HW117073   0.612   0.742   3.389 -3.4950  1.5211 -1.1703
 5277SOL    HW217074   0.603   0.591   3.372 -0.0916  0.9519  1.3969
 5278SOL     OW17075   6.269   2.818   7.430  0.7677  0.1463 -0.3476
 5278SOL    HW117076   6.174   2.827   7.434  0.6989 -0.8170  0.1657
 5278SOL    HW217077   6.302   2.883   7.493  0.3775 -0.8708  0.9194
 5279SOL     OW17078   2.423   5.249   7.269 -0.1614  0.0568 -0.5884
 5279SOL    HW117079   2.388   5.160   7.262  1.8053 -0.8283  0.6094
 5279SOL    HW217080   2.347   5.302   7.294 -1.2601 -1.3540 -0.8541
 5280SOL     OW17081   7.036   7.180   1.842 -0.4219 -0.0499 -0.7423
 5280SOL    HW117082   7.106   7.244   1.856 -0.8737  0.6458 -1.6008
 5280SOL    HW217083   6.961   7.233   1.816 -1.8114 -0.6011  1.9786
 5281SOL     OW17084   0.526   3.064   0.769  0.3755  0.2434  0.5654
 5281SOL    HW117085   0.593   3.123   0.734 -1.3111  1.7501 -0.1808
 5281SOL    HW217086   0.523   3.085   0.863 -0.1445  1.2669  0.3226
 5282SOL     OW17087   6.789   4.661   4.855 -0.0050 -1.0020 -0.2534
 5282SOL    HW117088   6.741   4.619   4.783 -0.2226 -0.7074 -0.2830
 5282SOL    HW217089   6.869   4.610   4.864  1.0464  0.2423 -2.1438
 5283SOL     OW17090   8.188   5.949   2.689  0.3361  0.1774  0.3764
 5283SOL    HW117091   8.141   5.865   2.691 -2.2920  1.5841  2.1029
 5283SOL    HW217092   8.278   5.927   2.711 -0.1082 -2.3128 -0.1434
 5284SOL     OW17093   2.562   4.080   1.248 -0.3505 -0.5807  0.3773
 5284SOL    HW117094   2.518   4.021   1.310  0.6844 -1.8687 -0.0990
 5284SOL    HW217095   2.491   4.116   1.195 -1.2042  0.1625  1.9766
 5285SOL     OW17096   1.694   1.941   3.026  0.2409  0.0963 -0.2344
 5285SOL    HW117097   1.645   1.869   2.986  0.0328 -1.7643  3.2015
 5285SOL    HW217098   1.628   2.009   3.044 -0.7187 -1.3865  2.0867
 5286SOL     OW17099   5.651   2.759   3.346 -0.4424 -0.1128  0.6054
 5286SOL    HW117100   5.618   2.735   3.259 -2.2986  4.3986 -0.0920
 5286SOL    HW217101   5.737   2.797   3.329 -0.3792 -0.1406  0.8659
 5287SOL     OW17102   8.186   6.203   1.848 -0.7535 -0.0913  0.0893
 5287SOL    HW117103   8.193   6.170   1.759  1.4979 -1.4988  0.7370
 5287SOL    HW217104   8.125   6.143   1.891  0.5051 -1.2941  0.2681
 5288SOL     OW17105   5.634   5.401   3.926 -0.3480 -0.3999  0.3654
 5288SOL    HW117106   5.596   5.408   4.013  0.0459 -0.3160  0.5335
 5288SOL    HW217107   5.718   5.447   3.933 -0.9633  0.8706 -0.4436
 5289SOL     OW17108   6.389   5.027   1.463  0.0009 -0.2928 -0.0839
 5289SOL    HW117109   6.485   5.019   1.464 -0.0845 -1.3918  1.0198
 5289SOL    HW217110   6.370   5.103   1.518  0.2184 -0.5463  0.3514
 5290SOL     OW17111   2.546   6.148   6.367 -0.5869 -0.4352  0.1702
 5290SOL    HW117112   2.546   6.091   6.290  0.7940 -0.0455 -0.1125
 5290SOL    HW217113   2.533   6.236   6.332  0.5497 -0.1988  0.3412
 5291SOL     OW17114   3.462   4.666   6.886 -0.2194 -0.6665 -0.0042
 5291SOL    HW117115   3.545   4.699   6.919  0.8954 -2.6098 -0.8182
 5291SOL    HW217116   3.457   4.698   6.796 -0.3593 -0.5502  0.0446
 5292SOL     OW17117   0.341   7.064   5.210 -0.1965  0.3278  0.4381
 5292SOL    HW117118   0.265   7.110   5.172 -1.3784 -1.5549  0.4731
 5292SOL    HW217119   0.352   7.104   5.296 -0.9427  0.8385  0.3053
 5293SOL     OW17120   4.549   2.467   2.379  0.5550 -0.2064  0.3403
 5293SOL    HW117121   4.525   2.560   2.380  0.5212 -0.2198  1.8355
 5293SOL    HW217122   4.475   2.424   2.336  0.8446  0.5155 -0.9151
 5294SOL     OW17123   1.339   0.281   0.933 -0.1206 -0.4971  0.3828
 5294SOL    HW117124   1.379   0.281   0.846  0.4709  2.8328  0.6105
 5294SOL    HW217125   1.261   0.336   0.925  1.2166  1.8256  2.4417
 5295SOL     OW17126   5.393   4.031   0.391  0.6179 -1.0647 -0.0843
 5295SOL    HW117127   5.318   4.018   0.449 -0.9045  2.5745 -1.1042
 5295SOL    HW217128   5.443   4.101   0.432  0.5991  0.1630 -2.1107
 5296SOL     OW17129   7.278   5.685   1.283  0.7444 -0.0955 -0.1703
 5296SOL    HW117130   7.337   5.610   1.286  0.6317 -0.1291  1.2382
 5296SOL    HW217131   7.193   5.648   1.256  0.8424 -0.3710 -0.1031
 5297SOL     OW17132   3.196   8.131   5.664  0.0582  0.1301  0.2910
 5297SOL    HW117133   3.278   8.163   5.626 -0.5873  0.4447 -0.8785
 5297SOL    HW217134   3.221   8.095   5.749  1.4512 -0.0113 -0.1633
 5298SOL     OW17135   4.019   3.968   0.766  0.4030  0.1393  0.0043
 5298SOL    HW117136   4.038   4.030   0.695 -2.0444  1.3356  0.3538
 5298SOL    HW217137   3.978   3.894   0.722  0.7432 -0.0004 -0.0774
 5299SOL     OW17138   6.995   3.075   7.672  0.2872 -0.4503  0.0758
 5299SOL    HW117139   7.087   3.055   7.659 -0.2834 -1.1216 -3.4606
 5299SOL    HW217140   6.950   2.991   7.664 -0.7828  0.1117  0.0128
 5300SOL     OW17141   4.025   7.675   5.276 -0.0669  0.3590 -0.4465
 5300SOL    HW117142   4.081   7.752   5.287  0.1336  0.0876  0.5255
 5300SOL    HW217143   4.030   7.630   5.360 -1.7415  0.3247 -0.3492
 5301SOL     OW17144   5.042   1.640   5.634  0.2203 -0.5676 -0.0569
 5301SOL    HW117145   4.983   1.632   5.559  1.6924 -1.4214 -1.1412
 5301SOL    HW217146   5.124   1.672   5.596  1.5534 -2.7745  0.9009
 5302SOL     OW17147   5.189   7.478   1.718  0.3720 -0.2024 -0.5762
 5302SOL    HW117148   5.174   7.433   1.800  1.5904  1.4978  0.6063
 5302SOL    HW217149   5.252   7.423   1.671 -1.2605 -1.8133 -0.9487
 5303SOL     OW17150   1.829   7.883   6.826  0.2162 -0.1373  0.3228
 5303SOL    HW117151   1.896   7.818   6.845 -0.3021 -0.2312  1.8559
 5303SOL    HW217152   1.839   7.900   6.732  0.5293 -2.2483 -0.0707
 5304SOL     OW17153   6.931   2.672   8.298 -0.2325  0.6544 -0.3013
 5304SOL    HW117154   6.935   2.577   8.283  0.4326  0.5947  0.2390
 5304SOL    HW217155   6.865   2.703   8.236  1.4617  0.2136 -2.4110
 5305SOL     OW17156   0.872   7.701   6.326  0.1888  0.1724  0.4866
 5305SOL    HW117157   0.952   7.650   6.339  0.7498  0.4366 -1.6619
 5305SOL    HW217158   0.807   7.637   6.297 -0.0474  0.1410  1.0870
 5306SOL     OW17159   4.048   5.876   7.230 -0.3641  0.3331  0.3238
 5306SOL    HW117160   4.087   5.869   7.317 -0.8016 -1.6792  0.3810
 5306SOL    HW217161   3.955   5.857   7.243 -0.4949  0.3316 -0.5283
 5307SOL     OW17162   1.161   5.715   7.692  0.2647 -0.4023  0.5791
 5307SOL    HW117163   1.234   5.775   7.705 -1.1520  1.2783  0.9641
 5307SOL    HW217164   1.190   5.657   7.621  0.6083  2.4814 -1.7343
 5308SOL     OW17165   3.247   1.222   1.757 -0.3223 -0.1422  0.7216
 5308SOL    HW117166   3.291   1.139   1.774  1.9710  0.8137 -0.2916
 5308SOL    HW217167   3.176   1.225   1.820 -1.1316 -3.3643  0.0264
 5309SOL     OW17168   0.548   2.666   5.352 -0.4010 -0.1261 -0.1373
 5309SOL    HW117169   0.629   2.672   5.301 -0.6391 -0.3505 -0.5470
 5309SOL    HW217170   0.496   2.600   5.306 -1.3059  0.8762 -0.5643
 5310SOL     OW17171   4.189   7.793   7.471  0.1930 -0.3316 -0.0844
 5310SOL    HW117172   4.187   7.828   7.560 -0.2751 -0.1964 -0.1489
 5310SOL    HW217173   4.269   7.741   7.468 -1.1316 -2.5400  1.2563
 5311SOL     OW17174   6.490   5.764   4.417  0.1214 -0.6013 -0.4759
 5311SOL    HW117175   6.446   5.742   4.335 -0.9666  0.2867 -0.1352
 5311SOL    HW217176   6.582   5.747   4.400 -0.1910 -1.1556 -1.6416
 5312SOL     OW17177   3.278   3.618   0.344 -0.1855 -0.7477 -0.3641
 5312SOL    HW117178   3.300   3.634   0.436 -3.4213  0.0439  0.3306
 5312SOL    HW217179   3.359   3.635   0.296  0.8770  1.2871  2.0867
 5313SOL     OW17180   6.781   2.697   4.351 -0.4677  0.2288 -0.3257
 5313SOL    HW117181   6.841   2.724   4.420  1.5150  1.3455 -2.4259
 5313SOL    HW217182   6.805   2.606   4.333 -1.8262 -0.4780  1.2585
 5314SOL     OW17183   4.570   5.251   2.774 -0.2409  0.1811 -0.1507
 5314SOL    HW117184   4.513   5.311   2.822 -2.1102 -0.5462 -1.4490
 5314SOL    HW217185   4.585   5.294   2.690 -0.9927 -0.8112 -0.8064
 5315SOL     OW17186   4.697   3.161   1.013 -0.2852  0.2810  0.0778
 5315SOL    HW117187   4.769   3.178   1.074  0.0948 -1.1031  0.0458
 5315SOL    HW217188   4.621   3.205   1.052  0.3246  0.8008  0.6921
 5316SOL     OW17189   4.571   4.108   1.551  0.2977  0.1233 -0.0357
 5316SOL    HW117190   4.536   4.039   1.608  0.0287 -0.2961 -0.6966
 5316SOL    HW217191   4.565   4.188   1.603 -1.1211 -0.0435  0.0838
 5317SOL     OW17192   3.942   4.252   5.011  0.6863 -0.0847 -0.7496
 5317SOL    HW117193   3.948   4.325   4.949  4.0752 -0.7631 -1.3060
 5317SOL    HW217194   4.008   4.271   5.077  2.1456 -3.0233 -1.3104
 5318SOL     OW17195   6.062   3.385   8.303  0.0198  0.2565 -0.0101
 5318SOL    HW117196   6.066   3.418   8.393 -0.4227 -1.7169  0.7537
 5318SOL    HW217197   5.970   3.395   8.279 -0.5204 -2.1973  0.9325
 5319SOL     OW17198   0.535   2.277   4.131 -0.3867  0.7995 -0.5829
 5319SOL    HW117199   0.610   2.297   4.187  1.1820 -0.9342 -1.9926
 5319SOL    HW217200   0.461   2.322   4.172  0.9254  0.4480  2.2594
 5320SOL     OW17201   6.345   0.550   5.903  0.2165  0.4157  0.3371
 5320SOL    HW117202   6.417   0.548   5.966  0.6371  1.0490 -0.1252
 5320SOL    HW217203   6.374   0.493   5.832  0.1858  0.5444  0.2231
 5321SOL     OW17204   0.575   3.844   5.824 -1.2408  0.7436 -0.1260
 5321SOL    HW117205   0.550   3.927   5.783 -0.0552  0.1759 -2.0759
 5321SOL    HW217206   0.547   3.777   5.761 -0.0097 -0.1876  0.3032
 5322SOL     OW17207   2.769   2.432   7.088 -0.0091  0.7931  0.3100
 5322SOL    HW117208   2.743   2.523   7.107 -0.7989  0.8343 -0.9139
 5322SOL    HW217209   2.712   2.379   7.144 -0.0877  1.0291  0.4568
 5323SOL     OW17210   3.609   2.432   1.207  0.1449  0.1742  0.1161
 5323SOL    HW117211   3.560   2.357   1.241 -1.9145  1.4447  0.0031
 5323SOL    HW217212   3.697   2.397   1.190 -0.8020 -2.2348 -0.0503
 5324SOL     OW17213   3.960   0.569   1.792  0.0182 -0.5474  0.0829
 5324SOL    HW117214   3.906   0.501   1.752  0.2924 -0.1724 -0.9411
 5324SOL    HW217215   4.022   0.521   1.847 -0.6764 -1.0373  0.4422
 5325SOL     OW17216   6.884   6.913   5.898 -1.0953  0.2017  0.1242
 5325SOL    HW117217   6.883   6.904   5.803  0.5748  2.1243 -0.1126
 5325SOL    HW217218   6.879   6.823   5.931  1.8497 -0.7174 -1.8214
 5326SOL     OW17219   2.482   3.961   7.148 -0.0947  0.1115  0.4548
 5326SOL    HW117220   2.387   3.962   7.163 -0.2918  2.2674 -0.7203
 5326SOL    HW217221   2.496   4.026   7.079  2.1956 -0.5387  0.2636
 5327SOL     OW17222   7.396   4.038   4.242 -0.1594 -0.0336  0.4364
 5327SOL    HW117223   7.400   4.066   4.333  0.4667 -2.0415  1.0513
 5327SOL    HW217224   7.469   4.083   4.199 -0.0220  0.3580  1.0829
 5328SOL     OW17225   3.954   0.696   4.753 -0.2309  0.0838  0.3699
 5328SOL    HW117226   4.005   0.660   4.680 -0.7035  0.2486 -0.0490
 5328SOL    HW217227   4.017   0.743   4.806 -0.2332  1.8185 -1.1110
 5329SOL     OW17228   2.334   3.842   3.701 -0.8671  0.4385  0.3595
 5329SOL    HW117229   2.421   3.878   3.719 -0.4490 -0.0232 -0.7480
 5329SOL    HW217230   2.274   3.904   3.744  0.0591 -0.1161  2.5560
 5330SOL     OW17231   4.888   4.455   7.818 -0.0521  0.0324 -0.1997
 5330SOL    HW117232   4.944   4.496   7.884  0.6801 -1.3164  0.0357
 5330SOL    HW217233   4.833   4.526   7.786  2.4890  1.6432 -1.1948
 5331SOL     OW17234   3.681   6.144   8.168 -0.2376  0.0131  0.0788
 5331SOL    HW117235   3.611   6.128   8.104 -1.5145  2.0749  0.9132
 5331SOL    HW217236   3.644   6.114   8.251  0.2591  0.1420  0.3464
 5332SOL     OW17237   1.260   8.055   5.195  0.2007  0.3602  0.4033
 5332SOL    HW117238   1.207   8.133   5.177  0.3399  0.4356  0.3227
 5332SOL    HW217239   1.350   8.082   5.178  0.2714  0.2504  0.6001
 5333SOL     OW17240   6.522   3.596   4.964 -0.1137 -0.7512 -0.0503
 5333SOL    HW117241   6.578   3.588   5.041  0.1087  1.0376  0.0091
 5333SOL    HW217242   6.573   3.557   4.893  0.7017 -0.2761  0.2578
 5334SOL     OW17243   7.590   6.759   7.308  0.5754  0.2514  0.1285
 5334SOL    HW117244   7.564   6.694   7.243 -0.8263 -0.6032  1.5110
 5334SOL    HW217245   7.641   6.709   7.372  2.0459  1.1091 -0.3495
 5335SOL     OW17246   3.529   0.443   1.019  0.1695 -0.7700  0.4601
 5335SOL    HW117247   3.592   0.417   1.086  0.9403  0.1813  0.1076
 5335SOL    HW217248   3.522   0.538   1.026 -2.6910 -1.0188  1.7776
 5336SOL     OW17249   0.058   3.897   6.783 -0.3565 -0.8237 -0.3590
 5336SOL    HW117250  -0.017   3.840   6.766 -0.8007 -0.0411 -1.0882
 5336SOL    HW217251   0.079   3.882   6.876 -0.1570 -2.5113 -0.6617
 5337SOL     OW17252   5.813   3.153   6.691  0.7630 -0.0878 -0.3855
 5337SOL    HW117253   5.802   3.191   6.603 -1.4251  0.3632  0.0567
 5337SOL    HW217254   5.781   3.221   6.750  1.0687 -0.8810  0.6888
 5338SOL     OW17255   5.494   5.508   6.716  0.6440 -0.2922 -0.5900
 5338SOL    HW117256   5.538   5.592   6.705  0.1805 -0.3111 -2.7141
 5338SOL    HW217257   5.427   5.525   6.783 -0.5196  1.4675 -2.1487
 5339SOL     OW17258   4.194   4.148   6.977  0.9267 -0.0201  0.3596
 5339SOL    HW117259   4.237   4.133   6.893  1.0801  0.6762  0.3075
 5339SOL    HW217260   4.180   4.061   7.013 -0.0197 -0.3745 -0.8251
 5340SOL     OW17261   1.316   6.366   4.203 -0.0060 -0.0469  0.3202
 5340SOL    HW117262   1.254   6.298   4.228 -0.0502 -0.1071  0.0546
 5340SOL    HW217263   1.282   6.399   4.120 -0.0036  0.3208  0.4665
 5341SOL     OW17264   5.781   6.354   7.583  0.0176 -0.1970  0.7083
 5341SOL    HW117265   5.840   6.300   7.634  1.0494  0.2371 -0.0151
 5341SOL    HW217266   5.720   6.390   7.647  0.5627 -0.6018  1.4592
 5342SOL     OW17267   7.041   5.628   7.684  0.3522  0.2342 -0.1930
 5342SOL    HW117268   7.045   5.544   7.638  1.3653 -0.0727  0.4218
 5342SOL    HW217269   6.948   5.644   7.697  0.1390 -0.6354 -0.6245
 5343SOL     OW17270   2.810   1.776   5.798 -0.1135  0.3267 -0.2312
 5343SOL    HW117271   2.849   1.724   5.868 -1.4116  1.2077  1.1620
 5343SOL    HW217272   2.883   1.825   5.761  1.0878 -2.2197 -1.3767
 5344SOL     OW17273   1.797   5.983   1.474  0.1261 -0.0908 -0.2503
 5344SOL    HW117274   1.809   6.056   1.414  1.1752 -0.7444 -0.8420
 5344SOL    HW217275   1.711   5.947   1.451 -0.6746  1.3268  0.4586
 5345SOL     OW17276   3.769   4.005   2.408 -0.0645 -0.3953 -0.3469
 5345SOL    HW117277   3.835   4.068   2.437 -1.6320  1.7208 -1.1947
 5345SOL    HW217278   3.775   4.005   2.313 -0.3160 -1.2745 -0.3670
 5346SOL     OW17279   1.112   2.414   5.121  0.4099  0.3011 -0.3561
 5346SOL    HW117280   1.109   2.459   5.206 -0.3958  1.0451 -0.7796
 5346SOL    HW217281   1.021   2.398   5.099  0.6755 -1.1829 -0.4085
 5347SOL     OW17282   6.159   7.341   2.054  0.4054 -0.1765 -0.0894
 5347SOL    HW117283   6.096   7.363   2.123  0.3286 -0.4787 -0.0631
 5347SOL    HW217284   6.163   7.419   1.999  1.3451  0.4992  0.9236
 5348SOL     OW17285   1.202   7.047   4.935 -0.2153  0.3714  0.5219
 5348SOL    HW117286   1.107   7.059   4.948 -0.2714  1.6722 -0.8730
 5348SOL    HW217287   1.237   7.035   5.023 -1.5288  1.2134  1.1776
 5349SOL     OW17288   2.437   1.152   1.116 -0.3720 -0.2736  0.0015
 5349SOL    HW117289   2.487   1.072   1.132  1.6070  1.1004  0.8538
 5349SOL    HW217290   2.493   1.205   1.061 -2.5600 -0.2965 -2.3504
 5350SOL     OW17291   3.718   6.105   4.423  0.4115 -0.3599  0.0745
 5350SOL    HW117292   3.644   6.044   4.429 -1.2207  1.5207 -0.2826
 5350SOL    HW217293   3.784   6.059   4.372 -1.2006 -1.4371 -1.0688
 5351SOL     OW17294   3.410   1.741   2.209 -0.4030  0.4798  0.0698
 5351SOL    HW117295   3.484   1.736   2.270 -0.4852  0.0631  0.1366
 5351SOL    HW217296   3.379   1.831   2.216 -1.0483  0.1594  1.3931
 5352SOL     OW17297   5.787   5.858   6.279 -0.4972  0.3019  0.0930
 5352SOL    HW117298   5.815   5.777   6.322 -0.2288  0.7725  0.8094
 5352SOL    HW217299   5.868   5.904   6.259 -0.7255  1.7025  2.2332
 5353SOL     OW17300   5.351   6.739   0.646 -0.6504 -0.2054 -0.7264
 5353SOL    HW117301   5.419   6.795   0.609 -1.4388 -0.2845 -2.3389
 5353SOL    HW217302   5.396   6.688   0.714  0.3409  1.4845 -0.0750
 5354SOL     OW17303   1.871   5.900   7.389 -0.3978 -0.1912 -0.2719
 5354SOL    HW117304   1.891   5.808   7.371 -2.3904 -0.3952 -1.6027
 5354SOL    HW217305   1.782   5.898   7.425 -0.5624  1.2386 -0.5693
 5355SOL     OW17306   4.526   2.216   7.616  0.7132 -0.1392  0.1281
 5355SOL    HW117307   4.505   2.273   7.690  2.7385 -1.1891  1.5520
 5355SOL    HW217308   4.447   2.164   7.602 -0.7047  2.0668 -0.3603
 5356SOL     OW17309   3.329   7.733   7.513 -0.1231 -0.0935  0.2528
 5356SOL    HW117310   3.421   7.758   7.512 -0.3817  0.8686 -0.3198
 5356SOL    HW217311   3.291   7.777   7.436 -0.8264 -1.3533 -0.1366
 5357SOL     OW17312   5.315   5.357   0.699  0.3758 -0.4394  0.0039
 5357SOL    HW117313   5.299   5.425   0.634 -0.2495  1.0856  1.7123
 5357SOL    HW217314   5.229   5.316   0.712  0.1773  0.2541  0.9365
 5358SOL     OW17315   0.507   6.381   4.809  0.0263  0.0783  0.4090
 5358SOL    HW117316   0.467   6.306   4.852  0.4131 -0.5320 -0.2799
 5358SOL    HW217317   0.435   6.442   4.795 -0.5257 -0.6770 -0.1037
 5359SOL     OW17318   5.367   2.277   3.669 -0.1099  0.1089 -0.2101
 5359SOL    HW117319   5.346   2.321   3.751  0.0954  0.6413 -0.4446
 5359SOL    HW217320   5.403   2.345   3.613 -1.2980 -0.0189 -1.1415
 5360SOL     OW17321   0.427   3.272   6.566  0.3552 -0.0399  0.0340
 5360SOL    HW117322   0.435   3.356   6.520  0.2874  1.0082  1.8954
 5360SOL    HW217323   0.339   3.241   6.543  0.3094  0.4824 -0.5141
 5361SOL     OW17324   6.505   5.473   3.762  0.0982  1.2641  0.2406
 5361SOL    HW117325   6.437   5.436   3.818  0.2687 -0.5688 -0.7371
 5361SOL    HW217326   6.457   5.525   3.697 -0.3031  0.7388  0.1190
 5362SOL     OW17327   4.439   2.795   2.539  0.1473 -0.1230 -0.1003
 5362SOL    HW117328   4.385   2.787   2.460 -0.4323  1.0861  0.1639
 5362SOL    HW217329   4.422   2.884   2.571  1.3450 -0.1634  0.6830
 5363SOL     OW17330   1.286   0.268   6.483 -0.2817  0.1819  0.3816
 5363SOL    HW117331   1.366   0.247   6.531 -0.9621  0.6518  1.7627
 5363SOL    HW217332   1.265   0.358   6.510 -0.8115  0.3607 -0.6126
 5364SOL     OW17333   5.922   4.365   4.850 -0.7333 -0.4201 -0.3108
 5364SOL    HW117334   5.981   4.302   4.808  1.9241  1.8643 -0.1721
 5364SOL    HW217335   5.893   4.322   4.930 -1.0798 -2.4760 -1.5095
 5365SOL     OW17336   3.405   1.443   1.635  0.4678  0.4589  0.4946
 5365SOL    HW117337   3.343   1.387   1.681 -2.3439 -1.0250 -4.8165
 5365SOL    HW217338   3.489   1.397   1.642  0.1530  0.2873  3.9183
 5366SOL     OW17339   4.838   3.246   4.878  0.0397 -0.4649 -0.2710
 5366SOL    HW117340   4.864   3.180   4.943 -0.1805 -0.0643  0.2322
 5366SOL    HW217341   4.920   3.270   4.835  0.0732 -1.3047 -0.6823
 5367SOL     OW17342   2.229   5.947   2.716  0.1231 -0.4538 -0.4470
 5367SOL    HW117343   2.255   6.020   2.774 -0.8075  0.6625 -1.4119
 5367SOL    HW217344   2.181   5.888   2.773 -1.1003  0.8144 -0.1356
 5368SOL     OW17345   3.317   4.894   7.213 -0.7003  0.0052 -0.3798
 5368SOL    HW117346   3.267   4.909   7.133  0.5488 -0.1411 -1.2117
 5368SOL    HW217347   3.398   4.944   7.200  0.2976 -1.4696 -0.0038
 5369SOL     OW17348   0.664   2.427   6.643 -0.1579 -0.2145  0.0808
 5369SOL    HW117349   0.649   2.405   6.735 -0.7163 -2.4215 -0.5263
 5369SOL    HW217350   0.749   2.470   6.643  0.4740 -1.4224  1.4411
 5370SOL     OW17351   4.084   4.827   7.655 -0.5595  0.2370 -0.0968
 5370SOL    HW117352   4.070   4.756   7.591 -0.0402  0.4141 -0.4116
 5370SOL    HW217353   4.168   4.806   7.695 -0.0586  1.0502 -0.6917
 5371SOL     OW17354   4.288   4.929   1.024  0.1996 -0.0908  0.5660
 5371SOL    HW117355   4.193   4.928   1.012  0.1771  1.7480  0.4696
 5371SOL    HW217356   4.300   4.931   1.119  0.1369 -0.0169  0.5724
 5372SOL     OW17357   3.859   5.030   7.136 -0.1568  0.0829  0.0556
 5372SOL    HW117358   3.932   5.053   7.194 -0.9048 -0.8605  1.4139
 5372SOL    HW217359   3.800   5.106   7.142  0.6181  0.7582 -0.8852
 5373SOL     OW17360   7.597   3.028   1.530 -0.0113  0.0473  0.3479
 5373SOL    HW117361   7.556   2.944   1.552 -1.2532  0.0929 -1.5593
 5373SOL    HW217362   7.540   3.094   1.570 -1.2709  0.0747 -1.4168
 5374SOL     OW17363   3.977   0.653   6.959  0.3318  0.5613  0.0374
 5374SOL    HW117364   4.064   0.649   6.918  0.1194  0.1960 -0.3763
 5374SOL    HW217365   3.979   0.733   7.011  0.8574  0.6483 -0.1141
 5375SOL     OW17366   2.566   8.101   6.007  0.5749 -0.6159 -0.3840
 5375SOL    HW117367   2.483   8.078   5.966  0.7086 -1.8040 -0.0331
 5375SOL    HW217368   2.613   8.152   5.941 -1.5422  2.5072  0.4269
 5376SOL     OW17369   3.499   7.018   5.750  0.3453 -0.8538  0.2709
 5376SOL    HW117370   3.468   6.970   5.674 -0.7749  0.1111  0.0979
 5376SOL    HW217371   3.421   7.062   5.784  1.2883  0.6691  0.5333
 5377SOL     OW17372   2.954   2.348   0.938 -0.5011  0.6228 -0.1777
 5377SOL    HW117373   2.995   2.274   0.984  0.8738  0.7618 -1.1587
 5377SOL    HW217374   2.864   2.350   0.972 -0.9382 -2.2684 -1.0075
 5378SOL     OW17375   4.862   3.355   6.508  0.0024 -0.3331  0.3350
 5378SOL    HW117376   4.929   3.404   6.461 -1.1673  0.3206 -0.6678
 5378SOL    HW217377   4.863   3.268   6.469  0.0264 -0.2186  0.0806
 5379SOL     OW17378   4.036   7.238   1.195  0.2405 -0.2315  0.4125
 5379SOL    HW117379   3.987   7.253   1.276 -0.3547 -0.2721  0.0629
 5379SOL    HW217380   3.977   7.269   1.126  0.3164 -1.1727 -0.0806
 5380SOL     OW17381   6.851   5.667   5.215  0.0029 -0.0510  0.1900
 5380SOL    HW117382   6.866   5.640   5.125 -0.4645  2.0145 -0.5359
 5380SOL    HW217383   6.758   5.686   5.220  0.0881  0.2060  1.0168
 5381SOL     OW17384   6.495   1.475   0.774  0.0617 -0.0913 -0.6041
 5381SOL    HW117385   6.525   1.387   0.797 -0.0745 -0.3792 -1.4968
 5381SOL    HW217386   6.413   1.486   0.823 -2.7172 -2.5220 -4.4353
 5382SOL     OW17387   0.994   1.474   7.481 -0.0171  0.5046 -0.1291
 5382SOL    HW117388   0.970   1.534   7.411  0.3454  2.3507  1.2960
 5382SOL    HW217389   1.089   1.466   7.476  0.0766  1.1533  0.5543
 5383SOL     OW17390   0.382   7.176   3.071 -0.0699 -0.6879  0.3091
 5383SOL    HW117391   0.334   7.173   2.988 -0.0431  0.2206  0.2643
 5383SOL    HW217392   0.329   7.231   3.128  0.0401 -1.1098  0.8248
 5384SOL     OW17393   6.811   6.685   4.868 -0.1910 -0.3232 -0.1078
 5384SOL    HW117394   6.837   6.771   4.903 -0.4782  0.2545 -1.2975
 5384SOL    HW217395   6.807   6.698   4.774  1.4511 -2.1115 -0.4401
 5385SOL     OW17396   1.207   6.838   6.686 -0.1213 -0.1968  0.3764
 5385SOL    HW117397   1.266   6.830   6.761  0.7177  0.7119 -0.1757
 5385SOL    HW217398   1.228   6.762   6.631 -1.8403 -1.7531  1.7946
 5386SOL     OW17399   5.822   3.686   6.148 -0.7074  0.0785  0.3677
 5386SOL    HW117400   5.734   3.722   6.135 -0.2297  1.0494 -0.2690
 5386SOL    HW217401   5.853   3.727   6.229 -1.5150 -1.6286  1.5533
 5387SOL     OW17402   6.690   1.986   8.068  0.2388 -0.0863 -0.1184
 5387SOL    HW117403   6.632   2.019   7.999  1.7833  0.3785 -1.2012
 5387SOL    HW217404   6.706   2.062   8.125  0.6537  0.0612 -0.4293
 5388SOL     OW17405   6.079   6.759   5.038  0.3122 -0.5328 -0.5801
 5388SOL    HW117406   6.066   6.792   4.949 -1.5970  0.3280 -0.0051
 5388SOL    HW217407   6.073   6.837   5.093 -2.0174 -1.5003  0.6055
 5389SOL     OW17408   5.229   1.540   3.071 -0.2260 -0.5395  0.6586
 5389SOL    HW117409   5.165   1.594   3.118 -0.5300  1.3924 -1.8737
 5389SOL    HW217410   5.187   1.454   3.064 -1.3470 -0.0810  1.4748
 5390SOL     OW17411   2.640   1.756   7.597 -0.6162 -0.0085 -0.1269
 5390SOL    HW117412   2.651   1.684   7.536  0.8589  0.3613 -0.3222
 5390SOL    HW217413   2.715   1.749   7.656 -0.9805  0.7829  0.4381
 5391SOL     OW17414   1.107   0.784   2.872 -0.2728 -0.2096 -0.3397
 5391SOL    HW117415   1.075   0.751   2.956  0.7940  1.3781  0.7313
 5391SOL    HW217416   1.196   0.749   2.864  0.0991  0.6686 -0.1780
 5392SOL     OW17417   1.917   5.101   5.410  0.2408 -0.5315 -0.0382
 5392SOL    HW117418   1.897   5.024   5.357 -1.7018 -0.0623  0.0071
 5392SOL    HW217419   1.833   5.145   5.424  1.5612  2.8241 -1.9226
 5393SOL     OW17420   6.920   7.283   7.756 -0.7137 -0.0216 -0.0205
 5393SOL    HW117421   6.969   7.298   7.675  0.3389  1.8237  0.9257
 5393SOL    HW217422   6.833   7.258   7.727 -0.3815  0.7447 -1.7280
 5394SOL     OW17423   4.280   6.031   7.910 -0.4886  0.3979  0.0966
 5394SOL    HW117424   4.232   6.091   7.966  0.3961  0.6965  0.5473
 5394SOL    HW217425   4.329   5.976   7.971  0.3869  0.6479 -0.3791
 5395SOL     OW17426   1.340   7.349   7.473  0.0203 -0.0671  0.4807
 5395SOL    HW117427   1.335   7.444   7.476 -0.1829 -0.0735  0.3072
 5395SOL    HW217428   1.280   7.323   7.404 -0.4308 -0.3609  0.9783
 5396SOL     OW17429   8.203   1.809   2.620 -0.5061  0.0599  0.2201
 5396SOL    HW117430   8.272   1.752   2.587  1.0945  0.9847  1.8814
 5396SOL    HW217431   8.208   1.888   2.566 -1.0314 -0.3280 -0.4037
 5397SOL     OW17432   3.715   2.463   2.581  0.1708  0.1877  0.1976
 5397SOL    HW117433   3.659   2.537   2.557 -0.4632  0.5157  2.5495
 5397SOL    HW217434   3.804   2.495   2.563 -0.2614  0.4048 -1.6358
 5398SOL     OW17435   3.331   3.202   3.625  0.2230 -0.1502  0.0394
 5398SOL    HW117436   3.340   3.248   3.542 -1.2369  0.8408  0.4053
 5398SOL    HW217437   3.338   3.270   3.692  0.7880 -0.8518  0.6979
 5399SOL     OW17438   1.205   7.776   3.781  0.4395  0.8069 -0.3204
 5399SOL    HW117439   1.282   7.721   3.798 -0.5074 -0.2951  0.4248
 5399SOL    HW217440   1.170   7.743   3.699 -0.0735  0.3738  0.0764
 5400SOL     OW17441   3.160   2.049   2.142  0.6879  0.4808 -0.2967
 5400SOL    HW117442   3.253   2.067   2.153  0.5801  0.2582  1.0897
 5400SOL    HW217443   3.133   2.107   2.070  1.6548  1.3699  0.0316
 5401SOL     OW17444   8.284   2.062   2.501  0.5020 -0.3033  0.3372
 5401SOL    HW117445   8.379   2.063   2.506  0.5196 -0.0075 -0.0724
 5401SOL    HW217446   8.256   2.128   2.565  0.5696 -0.4686  0.5364
 5402SOL     OW17447   3.793   5.528   1.905 -0.1058 -0.0950 -0.3355
 5402SOL    HW117448   3.747   5.448   1.928  0.0786 -0.1812 -0.2613
 5402SOL    HW217449   3.760   5.552   1.819  1.3274 -1.3793 -1.2599
 5403SOL     OW17450   5.883   7.987   6.505  0.0137  0.0264 -0.0188
 5403SOL    HW117451   5.806   7.994   6.449  0.1638 -1.7253 -0.4985
 5403SOL    HW217452   5.957   7.997   6.445  0.1857  1.9235  0.4733
 5404SOL     OW17453   4.698   0.112   7.245 -0.0025  0.2396  0.7037
 5404SOL    HW117454   4.717   0.028   7.203  1.5656  0.4088  1.0537
 5404SOL    HW217455   4.769   0.124   7.308  0.7623  2.6289 -0.5569
 5405SOL     OW17456   1.082   5.281   6.380  0.4301 -0.1052  0.0951
 5405SOL    HW117457   1.018   5.322   6.322  0.4652  0.7001  0.6258
 5405SOL    HW217458   1.052   5.190   6.387 -0.0304 -0.0084 -0.5331
 5406SOL     OW17459   0.484   7.716   1.936  0.4969  0.6824  0.0005
 5406SOL    HW117460   0.453   7.714   2.027  1.0716  1.7615  0.2276
 5406SOL    HW217461   0.405   7.707   1.883  0.4587 -3.5155  0.6101
 5407SOL     OW17462   3.293   0.194   3.393  0.2352  0.1346  0.3254
 5407SOL    HW117463   3.325   0.281   3.413 -0.5004  0.2037  1.2189
 5407SOL    HW217464   3.266   0.158   3.477 -0.8255 -0.4016 -0.2295
 5408SOL     OW17465   2.757   7.041   6.773  0.5501  0.3114  0.1248
 5408SOL    HW117466   2.776   7.134   6.784  0.8287  0.4311 -1.3183
 5408SOL    HW217467   2.728   7.033   6.683 -1.0394 -0.7517  0.7110
 5409SOL     OW17468   7.790   5.621   2.088  0.3057  0.0288  0.0863
 5409SOL    HW117469   7.851   5.555   2.123 -0.4416  0.0667  1.5237
 5409SOL    HW217470   7.750   5.579   2.012  1.1531 -0.5012 -0.0684
 5410SOL     OW17471   5.479   2.517   1.643  0.0407 -0.5154 -0.3904
 5410SOL    HW117472   5.477   2.608   1.615 -0.4059 -0.2698  0.4424
 5410SOL    HW217473   5.556   2.510   1.699  1.1448 -1.0956 -1.9420
 5411SOL     OW17474   5.256   7.731   1.861 -0.8490  0.0703  0.3384
 5411SOL    HW117475   5.227   7.818   1.890 -0.6514  0.5986 -1.0185
 5411SOL    HW217476   5.178   7.693   1.819 -0.6811 -0.0460  0.1315
 5412SOL     OW17477   0.973   7.833   6.707  0.3439 -0.1532 -1.0467
 5412SOL    HW117478   1.056   7.802   6.743  0.0940 -0.1772 -0.4852
 5412SOL    HW217479   0.977   7.928   6.717  1.1232  0.0261 -2.7971
 5413SOL     OW17480   5.979   7.760   1.394 -0.0921  0.3454  0.1441
 5413SOL    HW117481   5.923   7.684   1.409 -1.1428  0.8617 -1.0700
 5413SOL    HW217482   6.015   7.781   1.481 -0.9554 -0.6322  0.7485
 5414SOL     OW17483   0.327   2.535   5.922 -0.1118  0.3515 -0.1271
 5414SOL    HW117484   0.400   2.556   5.864 -0.0919  1.4453  0.2877
 5414SOL    HW217485   0.315   2.440   5.912  1.7141  0.0733  0.2103
 5415SOL     OW17486   5.014   2.618   1.175  0.2151  0.4161  0.3455
 5415SOL    HW117487   4.922   2.592   1.171 -0.0113  0.8756  2.2670
 5415SOL    HW217488   5.012   2.711   1.197  1.1349  0.6047 -0.3376
 5416SOL     OW17489   0.166   4.477   1.279 -1.2557 -0.2606  0.4780
 5416SOL    HW117490   0.245   4.449   1.233 -0.4373 -0.0690  1.7355
 5416SOL    HW217491   0.197   4.504   1.366 -2.6417  0.2406  0.8321
 5417SOL     OW17492   5.329   1.832   1.164  0.4768 -0.4035  0.1294
 5417SOL    HW117493   5.309   1.894   1.234 -0.6440  0.5331 -0.9861
 5417SOL    HW217494   5.420   1.808   1.179  1.4739  2.7801 -0.3187
 5418SOL     OW17495   7.941   6.064   7.478  0.1105  0.5374 -0.1609
 5418SOL    HW117496   7.864   6.120   7.486 -1.1658 -1.3125  0.9898
 5418SOL    HW217497   7.915   5.982   7.519  1.6402 -1.2072 -2.5229
 5419SOL     OW17498   3.610   2.826   7.780 -0.5642 -0.0213 -0.0442
 5419SOL    HW117499   3.702   2.834   7.808  0.0898  0.9616 -2.3975
 5419SOL    HW217500   3.569   2.906   7.812 -0.6082 -0.4483  0.9887
 5420SOL     OW17501   2.903   3.967   5.974 -0.4896 -0.2332  0.2872
 5420SOL    HW117502   2.894   3.939   5.883 -0.6303  0.6061  0.0356
 5420SOL    HW217503   2.996   3.990   5.982 -0.0048 -2.3631  0.9639
 5421SOL     OW17504   5.139   1.274   7.003 -0.1672 -0.2047  0.0624
 5421SOL    HW117505   5.074   1.235   6.944  1.2170 -1.6581 -0.5448
 5421SOL    HW217506   5.129   1.225   7.085 -0.3276  0.0448  0.1896
 5422SOL     OW17507   0.331   6.201   6.324  0.3103  0.1982  0.1939
 5422SOL    HW117508   0.408   6.257   6.327 -0.9786  2.0327  0.1252
 5422SOL    HW217509   0.262   6.253   6.367 -0.9387 -1.2921  0.0353
 5423SOL     OW17510   8.059   4.805   6.073  0.3159 -0.7520 -0.0141
 5423SOL    HW117511   7.976   4.784   6.031  0.6820 -1.1593 -0.5336
 5423SOL    HW217512   8.046   4.781   6.165 -0.7201  0.8034  0.2567
 5424SOL     OW17513   8.175   5.260   1.057 -0.2490  1.0018  0.0792
 5424SOL    HW117514   8.112   5.245   1.127  2.6359 -0.7745  2.4264
 5424SOL    HW217515   8.178   5.177   1.009  0.9378  0.7420  0.5715
 5425SOL     OW17516   5.190   1.570   7.474 -0.4898 -0.0297 -0.2504
 5425SOL    HW117517   5.262   1.631   7.491 -0.2306 -0.5015  0.4092
 5425SOL    HW217518   5.195   1.508   7.547 -0.8467 -0.7385 -0.8288
 5426SOL     OW17519   0.900   1.278   5.478 -0.1459 -0.1631  0.5328
 5426SOL    HW117520   0.816   1.323   5.487 -0.0688 -0.0554  0.7167
 5426SOL    HW217521   0.947   1.297   5.560  1.1644  2.0765 -0.6692
 5427SOL     OW17522   5.678   3.938   0.743 -0.1171  0.7849  0.5831
 5427SOL    HW117523   5.618   4.011   0.728  0.1260  1.1829  1.5164
 5427SOL    HW217524   5.636   3.888   0.814  0.5818  0.9918  1.1468
 5428SOL     OW17525   6.741   2.181   4.319 -0.4260  0.1851  0.2186
 5428SOL    HW117526   6.668   2.184   4.381 -0.3952 -1.0808  0.3318
 5428SOL    HW217527   6.793   2.106   4.347  0.0771  0.1456 -0.8010
 5429SOL     OW17528   0.563   7.952   4.903 -0.4493 -0.7136  0.1328
 5429SOL    HW117529   0.634   7.930   4.964 -0.6347 -1.8542 -0.0559
 5429SOL    HW217530   0.498   7.998   4.958  0.5300  0.5646  0.2507
 5430SOL     OW17531   1.791   7.106   5.098 -0.0140 -0.1680  0.1119
 5430SOL    HW117532   1.877   7.124   5.137  0.0866  0.0503 -0.2047
 5430SOL    HW217533   1.806   7.117   5.004 -0.1986 -0.9119 -0.0005
 5431SOL     OW17534   1.149   7.141   4.457  0.1194 -0.5332 -0.1338
 5431SOL    HW117535   1.219   7.126   4.394  0.3607 -2.7208  0.6153
 5431SOL    HW217536   1.193   7.171   4.537  0.0476 -0.1747 -0.2302
 5432SOL     OW17537   3.067   7.455   2.825 -0.2632 -0.3804 -0.3127
 5432SOL    HW117538   3.004   7.527   2.821 -0.9896 -0.7537  3.0023
 5432SOL    HW217539   3.064   7.416   2.738 -2.6400  1.2627 -1.0224
 5433SOL     OW17540   4.552   2.023   3.325  0.2522  0.6439  0.0937
 5433SOL    HW117541   4.599   1.958   3.272 -0.9507  0.8002 -1.1970
 5433SOL    HW217542   4.606   2.101   3.320  0.8009  0.2707  0.1647
 5434SOL     OW17543   5.566   3.557   2.122 -0.1544  0.4366  0.2194
 5434SOL    HW117544   5.652   3.599   2.118  0.1687 -0.0191  1.8336
 5434SOL    HW217545   5.547   3.533   2.031  1.7085 -0.0111 -0.0828
 5435SOL     OW17546   4.078   6.052   6.775  0.0868  0.3699  0.0071
 5435SOL    HW117547   4.026   6.117   6.727 -1.5433 -0.3734  0.7077
 5435SOL    HW217548   4.014   6.007   6.830  1.5464 -0.3766  1.1316
 5436SOL     OW17549   3.058   7.039   4.428 -0.6309 -0.8595 -0.4118
 5436SOL    HW117550   3.149   7.060   4.405 -0.4878 -0.0720  0.8219
 5436SOL    HW217551   3.019   7.123   4.451 -1.3914 -1.3268  0.0264
 5437SOL     OW17552   4.141   2.569   3.228  0.0874 -0.3552 -0.1574
 5437SOL    HW117553   4.159   2.536   3.316  2.0611 -0.2874 -0.5035
 5437SOL    HW217554   4.143   2.491   3.173 -1.3111 -0.4191 -0.1251
 5438SOL     OW17555   4.795   6.520   1.267  0.4242  0.1527 -0.4660
 5438SOL    HW117556   4.795   6.458   1.340  1.4397  0.6861 -0.0144
 5438SOL    HW217557   4.887   6.533   1.246  0.1483  0.1172 -1.7635
 5439SOL     OW17558   6.540   1.299   4.593  0.1222 -0.4668  0.4294
 5439SOL    HW117559   6.448   1.287   4.572  0.2039 -0.8285  0.2866
 5439SOL    HW217560   6.548   1.393   4.609  0.0284 -0.1992 -1.0131
 5440SOL     OW17561   2.862   5.404   2.255  0.1886  0.0743  0.2571
 5440SOL    HW117562   2.780   5.451   2.270  0.2161 -0.0348  0.7615
 5440SOL    HW217563   2.921   5.471   2.218  0.8527  0.9923  2.8249
 5441SOL     OW17564   0.766   0.120   1.057 -0.1024 -0.1240 -0.0803
 5441SOL    HW117565   0.807   0.113   0.971 -0.8371  0.4817 -0.4803
 5441SOL    HW217566   0.703   0.048   1.059  1.2301 -1.3173  0.6964
 5442SOL     OW17567   7.455   8.186   3.622  0.4946 -0.5054  0.5484
 5442SOL    HW117568   7.531   8.240   3.641  0.8134  0.0621 -2.1276
 5442SOL    HW217569   7.391   8.208   3.690  1.3910  1.7098  0.7007
 5443SOL     OW17570   4.051   3.860   6.572 -1.3317 -0.1528 -0.2525
 5443SOL    HW117571   4.109   3.833   6.643  0.7589 -0.4212 -1.9739
 5443SOL    HW217572   3.963   3.849   6.607 -0.3567  0.1537  2.4165
 5444SOL     OW17573   2.254   0.311   5.656 -0.0561 -0.6359 -0.0671
 5444SOL    HW117574   2.237   0.383   5.717 -0.3214 -0.9454  0.2266
 5444SOL    HW217575   2.192   0.325   5.584  0.4149 -0.1386 -0.3839
 5445SOL     OW17576   0.364   0.929   5.419  0.0664  0.1155 -0.4471
 5445SOL    HW117577   0.424   0.913   5.346  0.3272 -0.8949 -0.0157
 5445SOL    HW217578   0.408   0.890   5.494 -0.4505  0.6924  0.1567
 5446SOL     OW17579   2.419   1.109   2.245 -0.1018 -0.0618 -0.0067
 5446SOL    HW117580   2.445   1.181   2.188  0.7032  1.3512  2.0739
 5446SOL    HW217581   2.346   1.144   2.297 -0.4335 -1.1135  0.2664
 5447SOL     OW17582   7.226   4.262   6.931  0.1507 -0.5644 -0.2319
 5447SOL    HW117583   7.217   4.194   6.864  0.3561 -1.2296  0.3963
 5447SOL    HW217584   7.239   4.343   6.883  1.2449 -1.1745 -0.9839
 5448SOL     OW17585   5.966   5.375   5.421  0.6096 -0.1265  0.3133
 5448SOL    HW117586   6.014   5.297   5.448  0.0595 -0.8186 -0.6548
 5448SOL    HW217587   6.013   5.406   5.343 -0.2195 -0.5423 -0.3655
 5449SOL     OW17588   4.164   2.780   7.689 -0.8541  0.0633  0.1031
 5449SOL    HW117589   4.159   2.708   7.626  1.9493  0.0621 -0.1757
 5449SOL    HW217590   4.149   2.737   7.774  0.1176 -0.7874 -0.1304
 5450SOL     OW17591   2.413   7.926   0.748  0.1322  0.2520 -0.4180
 5450SOL    HW117592   2.404   8.013   0.709 -0.2483 -0.0919 -1.1010
 5450SOL    HW217593   2.364   7.932   0.830  2.0705  1.3805  0.6935
 5451SOL     OW17594   1.520   6.136   0.312  0.1444  0.7158 -0.1037
 5451SOL    HW117595   1.449   6.198   0.298 -0.8315 -0.4210 -0.2054
 5451SOL    HW217596   1.477   6.050   0.318  1.5381 -0.0391 -0.6501
 5452SOL     OW17597   4.538   7.081   7.757  0.1774  0.7282 -0.9783
 5452SOL    HW117598   4.468   7.042   7.705  0.1207 -0.1413 -0.2650
 5452SOL    HW217599   4.599   7.009   7.774 -0.1528  0.8101  0.7096
 5453SOL     OW17600   5.126   3.447   0.074 -0.4018  0.4022 -0.4691
 5453SOL    HW117601   5.218   3.474   0.079 -0.3539  0.3376 -1.0290
 5453SOL    HW217602   5.082   3.501   0.141 -0.0001  0.6034 -0.3641
 5454SOL     OW17603   3.540   0.931   7.281 -0.1329  0.5192  0.5038
 5454SOL    HW117604   3.582   0.856   7.240  0.5909  1.1578  0.0507
 5454SOL    HW217605   3.472   0.894   7.336 -0.1900 -0.4310 -0.1955
 5455SOL     OW17606   7.976   3.418   5.361 -0.8297 -0.0977  0.2073
 5455SOL    HW117607   7.941   3.505   5.383 -2.0346 -0.6099  0.3640
 5455SOL    HW217608   8.062   3.416   5.403  0.1084  1.7886 -1.5272
 5456SOL     OW17609   5.235   1.493   4.672 -0.0027  0.3534  0.0721
 5456SOL    HW117610   5.229   1.405   4.708 -1.0770 -0.2579 -1.5395
 5456SOL    HW217611   5.328   1.506   4.656  0.1574 -0.5155  0.2718
 5457SOL     OW17612   3.588   7.229   7.833 -0.1689 -0.3492 -0.4959
 5457SOL    HW117613   3.591   7.163   7.764 -2.0084 -1.5631  0.5519
 5457SOL    HW217614   3.568   7.311   7.788  1.6943 -0.5462 -1.7511
 5458SOL     OW17615   6.938   1.430   6.250 -0.3749 -0.4635 -0.0697
 5458SOL    HW117616   6.897   1.508   6.211  1.6772  0.1118 -1.1564
 5458SOL    HW217617   7.004   1.465   6.309 -0.1935 -1.3869  0.2765
 5459SOL     OW17618   1.029   3.738   6.142 -0.1627  0.0260  0.2276
 5459SOL    HW117619   0.985   3.677   6.202 -0.2354  0.4305  0.5812
 5459SOL    HW217620   0.958   3.774   6.088 -0.3149  0.9694  1.0553
 5460SOL     OW17621   4.302   1.884   5.197  0.4808  0.2613 -0.0174
 5460SOL    HW117622   4.343   1.927   5.122  1.2721  0.3896  0.4834
 5460SOL    HW217623   4.213   1.866   5.168  0.5625  0.9641 -0.7329
 5461SOL     OW17624   2.711   6.672   5.406  0.2072  1.0593  0.1081
 5461SOL    HW117625   2.698   6.736   5.337 -0.7138  0.0393 -0.6764
 5461SOL    HW217626   2.646   6.603   5.389  2.2158 -0.8759 -0.0343
 5462SOL     OW17627   5.331   6.314   5.264 -0.6488 -0.0188 -0.0868
 5462SOL    HW117628   5.302   6.356   5.345  1.2861  3.2336 -1.0062
 5462SOL    HW217629   5.413   6.271   5.288 -0.7467 -0.1721 -0.0252
 5463SOL     OW17630   4.745   0.987   6.056  0.3823 -0.4578  0.4245
 5463SOL    HW117631   4.818   0.957   6.111  0.4071 -0.6718  0.2721
 5463SOL    HW217632   4.736   1.080   6.079  0.6525 -0.4487  0.5012
 5464SOL     OW17633   4.471   4.866   6.766 -0.0447  0.2491 -0.3546
 5464SOL    HW117634   4.492   4.809   6.840  1.1844 -0.2752 -1.0800
 5464SOL    HW217635   4.419   4.812   6.708 -1.1595  0.7156  0.1927
 5465SOL     OW17636   3.407   1.033   0.922  0.1147  0.1464  0.1746
 5465SOL    HW117637   3.416   0.956   0.865 -0.0129  0.8279 -0.7844
 5465SOL    HW217638   3.418   0.999   1.010 -1.7401 -1.2726 -0.1106
 5466SOL     OW17639   0.270   3.431   2.594  0.4077  0.1727 -0.2290
 5466SOL    HW117640   0.300   3.491   2.525 -0.1865 -1.1349 -1.6640
 5466SOL    HW217641   0.227   3.360   2.546 -0.3943 -0.5456  1.5331
 5467SOL     OW17642   5.918   4.022   7.743  0.1627 -0.2015 -0.5725
 5467SOL    HW117643   5.992   4.068   7.783  0.1187  0.1567 -0.9115
 5467SOL    HW217644   5.886   3.965   7.814  1.0053 -0.6561 -0.5411
 5468SOL     OW17645   0.061   7.688   6.726  0.1646  0.0895  0.0236
 5468SOL    HW117646   0.076   7.625   6.655 -0.8865 -1.6594  1.3031
 5468SOL    HW217647   0.135   7.675   6.785 -0.8110 -1.0303  1.0290
 5469SOL     OW17648   0.266   3.817   0.852 -0.3043 -0.1336 -0.2018
 5469SOL    HW117649   0.225   3.900   0.825 -0.7866 -1.1762 -2.7963
 5469SOL    HW217650   0.360   3.833   0.844 -0.4207 -0.1924 -1.9046
 5470SOL     OW17651   7.969   1.780   3.988  0.6283 -0.0075  0.2422
 5470SOL    HW117652   8.007   1.826   4.063 -1.6729  1.6921  0.4293
 5470SOL    HW217653   8.002   1.827   3.911  0.7528  0.0055  0.3045
 5471SOL     OW17654   1.875   3.582   6.416  0.1054  0.0978  0.0864
 5471SOL    HW117655   1.841   3.587   6.505  0.6649  0.8157  0.2626
 5471SOL    HW217656   1.798   3.596   6.360 -0.2987 -0.6553  0.4422
 5472SOL     OW17657   5.993   0.411   5.008  0.2076  0.1244 -0.3625
 5472SOL    HW117658   6.070   0.392   5.061 -0.7922  0.7279  1.3377
 5472SOL    HW217659   6.028   0.431   4.921  1.8266 -1.4026 -0.0914
 5473SOL     OW17660   1.471   3.883   3.749  0.5016 -0.4449  0.0016
 5473SOL    HW117661   1.496   3.809   3.804 -0.1265  0.2967  1.2995
 5473SOL    HW217662   1.383   3.906   3.778  0.5358  0.5481 -0.6760
 5474SOL     OW17663   6.436   3.822   4.825  0.4233  0.1811 -0.6071
 5474SOL    HW117664   6.444   3.734   4.861  2.4557  0.4293 -0.3647
 5474SOL    HW217665   6.399   3.809   4.737 -1.2558 -0.7121  0.2138
 5475SOL     OW17666   0.028   0.777   6.802  0.4655 -0.5259  0.1602
 5475SOL    HW117667  -0.035   0.730   6.748 -0.4355  0.2099  0.5551
 5475SOL    HW217668   0.098   0.714   6.817 -1.0628 -2.0173  1.2902
 5476SOL     OW17669   1.898   6.168   2.567 -0.0044  0.2234 -0.3151
 5476SOL    HW117670   1.856   6.146   2.484 -0.0190  0.2922 -0.3265
 5476SOL    HW217671   1.955   6.243   2.545 -0.3434  0.5254 -0.1712
 5477SOL     OW17672   3.682   3.488   2.176  0.3232 -0.4246  1.1871
 5477SOL    HW117673   3.756   3.449   2.130 -0.8647  0.0724 -1.1922
 5477SOL    HW217674   3.614   3.422   2.172 -1.1932  1.2335 -1.5254
 5478SOL     OW17675   5.806   4.471   0.201  0.3339 -0.2705 -0.0816
 5478SOL    HW117676   5.777   4.407   0.267  0.1278  0.6407  0.7320
 5478SOL    HW217677   5.725   4.512   0.171  0.5203  0.0564 -0.1372
 5479SOL     OW17678   1.789   4.875   5.295 -0.2873  0.1692  0.3307
 5479SOL    HW117679   1.723   4.806   5.289 -1.2953  1.1436  0.0447
 5479SOL    HW217680   1.861   4.845   5.239 -0.9821 -0.3506 -0.2950
 5480SOL     OW17681   6.374   1.492   5.023  0.6367 -0.4452 -0.1214
 5480SOL    HW117682   6.391   1.584   5.000 -0.6913 -0.2058 -0.1972
 5480SOL    HW217683   6.451   1.445   4.992  0.3469  0.3270 -2.0835
 5481SOL     OW17684   1.608   3.272   0.858  0.3385 -0.0957  0.3922
 5481SOL    HW117685   1.621   3.275   0.763 -0.6239 -1.9844  0.1760
 5481SOL    HW217686   1.602   3.363   0.885 -0.9698  0.4219 -1.6085
 5482SOL     OW17687   3.983   1.488   6.511  0.3141 -0.7202  0.0610
 5482SOL    HW117688   3.894   1.473   6.478 -0.1362 -0.8237  1.3025
 5482SOL    HW217689   3.991   1.430   6.586  1.7984 -1.4487 -0.6316
 5483SOL     OW17690   7.197   3.638   1.421  0.0561  0.6409  0.8656
 5483SOL    HW117691   7.270   3.699   1.430 -1.7178  2.6918  1.8995
 5483SOL    HW217692   7.164   3.652   1.332  0.7066 -0.0482  0.5131
 5484SOL     OW17693   7.508   4.046   5.193 -0.3864 -0.2275  0.3058
 5484SOL    HW117694   7.462   4.087   5.120  0.2829  0.1914  0.1188
 5484SOL    HW217695   7.479   3.955   5.192 -1.1791  0.0219  0.1650
 5485SOL     OW17696   4.178   2.782   6.666 -0.3904  0.1554  0.0762
 5485SOL    HW117697   4.249   2.730   6.706  0.1828  0.8377 -0.0466
 5485SOL    HW217698   4.133   2.719   6.610  1.0361  0.0533 -0.9936
 5486SOL     OW17699   3.061   3.836   8.172  0.2803  0.0226 -0.1456
 5486SOL    HW117700   3.076   3.792   8.089  0.6054  0.5369 -0.3593
 5486SOL    HW217701   3.114   3.915   8.168  0.6396 -0.1635  0.7280
 5487SOL     OW17702   6.028   3.195   4.163 -0.2534  0.7091 -0.3331
 5487SOL    HW117703   6.123   3.203   4.161 -0.3456  2.1745  0.2111
 5487SOL    HW217704   5.996   3.276   4.123 -1.2700  0.7060  0.4422
 5488SOL     OW17705   4.669   4.639   5.609  0.7502 -0.7547 -0.3912
 5488SOL    HW117706   4.764   4.635   5.595  0.9561 -1.4166  1.1705
 5488SOL    HW217707   4.634   4.573   5.549  1.2426 -0.3684 -1.1254
 5489SOL     OW17708   5.172   7.126   0.220 -0.7241  0.0386  0.2988
 5489SOL    HW117709   5.206   7.036   0.214  0.2912  0.5400 -2.1616
 5489SOL    HW217710   5.212   7.161   0.300  1.6644 -0.6084 -0.5562
 5490SOL     OW17711   0.585   0.095   4.517  0.2225  0.2926  0.4170
 5490SOL    HW117712   0.633   0.160   4.569 -0.3410  0.8865  0.1974
 5490SOL    HW217713   0.505   0.079   4.566  0.1395  0.1206  0.2263
 5491SOL     OW17714   1.917   3.371   3.100 -0.4458  0.3135 -0.1758
 5491SOL    HW117715   1.955   3.353   3.186  0.8128 -1.0396 -0.9958
 5491SOL    HW217716   1.890   3.463   3.105 -1.9285 -0.1888  2.2168
 5492SOL     OW17717   7.505   1.627   7.762 -0.0154 -0.4459  0.1656
 5492SOL    HW117718   7.504   1.689   7.835 -0.4790 -0.3333  0.0689
 5492SOL    HW217719   7.539   1.677   7.688  1.0964 -0.7480  0.4623
 5493SOL     OW17720   5.893   5.707   3.760 -0.1060 -0.1413  0.3421
 5493SOL    HW117721   5.823   5.643   3.754 -0.3433  0.1307  0.2332
 5493SOL    HW217722   5.944   5.695   3.680  0.0478 -0.4262  0.4821
 5494SOL     OW17723   5.250   7.107   1.971 -0.0732  0.0451  0.3096
 5494SOL    HW117724   5.182   7.112   1.904 -0.6726 -2.5136  0.6587
 5494SOL    HW217725   5.221   7.166   2.040 -2.2069 -1.3568  0.6642
 5495SOL     OW17726   3.084   8.120   7.088 -0.6752  0.1316  0.3376
 5495SOL    HW117727   3.042   8.114   7.174  1.6647 -1.0456  1.4298
 5495SOL    HW217728   3.178   8.118   7.106 -0.1158  1.2013 -2.1683
 5496SOL     OW17729   1.826   5.857   4.593 -0.4323 -0.3901  0.1101
 5496SOL    HW117730   1.750   5.809   4.626 -0.1959 -0.1668  0.9841
 5496SOL    HW217731   1.856   5.910   4.667 -0.0142  0.2656 -0.5182
 5497SOL     OW17732   6.422   6.093   6.580 -0.0579  0.3189  0.1806
 5497SOL    HW117733   6.504   6.134   6.550 -0.5063  0.9658 -0.1802
 5497SOL    HW217734   6.393   6.041   6.505  0.0196  0.0930  0.3080
 5498SOL     OW17735   5.617   2.000   3.587  0.1974 -1.2125 -0.0586
 5498SOL    HW117736   5.649   2.043   3.666 -0.9018  0.1844 -0.3474
 5498SOL    HW217737   5.541   1.950   3.616 -1.8933  1.4876 -0.6559
 5499SOL     OW17738   1.753   0.409   4.718  0.6112 -0.1286  0.1778
 5499SOL    HW117739   1.673   0.372   4.755  1.2682 -2.4624 -0.6533
 5499SOL    HW217740   1.784   0.470   4.784 -2.4626  1.6856  0.0111
 5500SOL     OW17741   1.751   3.859   4.202  0.2322 -0.2481 -0.1231
 5500SOL    HW117742   1.744   3.840   4.296 -0.4421  0.0814 -0.1084
 5500SOL    HW217743   1.661   3.862   4.171  0.3063  2.7445 -0.1716
 5501SOL     OW17744   3.023   1.082   4.146 -0.0415 -0.3798 -0.0788
 5501SOL    HW117745   2.935   1.106   4.117 -0.7779 -2.0193  0.6854
 5501SOL    HW217746   3.049   1.153   4.204  0.6469  1.9332 -3.0935
 5502SOL     OW17747   8.254   5.454   3.407  0.1943 -0.8047 -0.0605
 5502SOL    HW117748   8.172   5.428   3.449  1.0222 -2.4443  0.5565
 5502SOL    HW217749   8.228   5.483   3.319 -1.0037 -1.5295  0.0453
 5503SOL     OW17750   4.729   5.572   8.169  0.4377 -0.0118  0.4756
 5503SOL    HW117751   4.770   5.486   8.159 -2.3213 -1.2466 -0.7845
 5503SOL    HW217752   4.801   5.634   8.160  1.8383 -2.0363 -3.3196
 5504SOL     OW17753   3.965   0.079   2.026  0.6382 -0.4585  0.6123
 5504SOL    HW117754   4.054   0.050   2.048  0.7859 -0.4556  0.0274
 5504SOL    HW217755   3.960   0.071   1.931  0.0202 -0.4278  0.6390
 5505SOL     OW17756   2.934   1.533   3.488 -0.1919  0.1500  0.4023
 5505SOL    HW117757   3.022   1.544   3.522 -0.4677 -1.0379  1.5677
 5505SOL    HW217758   2.887   1.612   3.515  0.6983  1.1126 -0.8543
 5506SOL     OW17759   0.543   0.391   6.798  0.2435  0.3713  0.5221
 5506SOL    HW117760   0.525   0.478   6.764  0.3373  0.0830 -0.2856
 5506SOL    HW217761   0.637   0.378   6.784  0.1802  0.0378  0.3886
 5507SOL     OW17762   7.422   0.290   4.855 -0.1352 -0.2102  0.0780
 5507SOL    HW117763   7.454   0.200   4.846 -2.5948 -0.9209 -2.4206
 5507SOL    HW217764   7.428   0.308   4.949  1.8588 -2.4116  0.4227
 5508SOL     OW17765   7.611   1.429   3.129  0.1988  0.1394 -0.3810
 5508SOL    HW117766   7.635   1.370   3.058 -1.8165 -0.2642 -0.7745
 5508SOL    HW217767   7.644   1.387   3.208  0.3659 -0.6137 -0.8490
 5509SOL     OW17768   6.541   2.384   1.476 -0.1967  0.4111 -0.3938
 5509SOL    HW117769   6.625   2.429   1.480  0.0868 -0.1709  0.4178
 5509SOL    HW217770   6.483   2.444   1.429  0.5189  1.0555 -0.4565
 5510SOL     OW17771   3.548   1.793   1.385  0.4935 -0.1266  0.1725
 5510SOL    HW117772   3.529   1.747   1.304  0.9496  1.1987 -0.7008
 5510SOL    HW217773   3.635   1.761   1.411  0.9263  0.4442 -0.5732
 5511SOL     OW17774   5.901   7.970   7.213  0.2930 -0.0308  0.4851
 5511SOL    HW117775   5.867   7.931   7.132  0.5511 -0.3121  0.5121
 5511SOL    HW217776   5.974   8.025   7.185 -0.4220  0.8770  0.3842
 5512SOL     OW17777   2.600   3.561   2.686  0.1735 -0.1046  0.0858
 5512SOL    HW117778   2.575   3.470   2.667 -0.4575 -0.0171  0.4732
 5512SOL    HW217779   2.685   3.572   2.643  1.7784 -1.8361  2.6450
 5513SOL     OW17780   0.594   5.111   4.528 -0.1834 -0.3957 -0.2775
 5513SOL    HW117781   0.598   5.056   4.606  0.7642  2.4447  1.7343
 5513SOL    HW217782   0.681   5.103   4.488  0.7151  1.3744  1.2676
 5514SOL     OW17783   7.185   2.070   1.746 -0.3156 -0.0828  0.2832
 5514SOL    HW117784   7.257   2.131   1.762 -0.9905  0.3969  1.6302
 5514SOL    HW217785   7.108   2.126   1.732 -0.2320 -0.5631 -2.2910
 5515SOL     OW17786   2.859   0.779   8.146 -0.1451 -0.1716  0.6791
 5515SOL    HW117787   2.801   0.704   8.156  0.9214 -1.0207  0.6233
 5515SOL    HW217788   2.946   0.741   8.135  0.1735  1.0258 -1.1723
 5516SOL     OW17789   1.374   2.958   4.476  0.2653  0.2882 -0.5923
 5516SOL    HW117790   1.463   2.945   4.442  1.0872  2.6650  0.4852
 5516SOL    HW217791   1.387   2.972   4.570 -0.9155  3.5027 -0.8494
 5517SOL     OW17792   6.497   5.913   3.902  0.0129  0.0277  0.4488
 5517SOL    HW117793   6.517   5.981   3.838 -1.2359  0.1525  0.1605
 5517SOL    HW217794   6.534   5.945   3.984 -0.0851  0.8049  0.1963
 5518SOL     OW17795   2.099   0.755   1.010  0.5521  0.1998  0.5567
 5518SOL    HW117796   2.098   0.825   0.945 -0.5256 -1.0633 -0.8270
 5518SOL    HW217797   2.141   0.681   0.966 -2.4423 -1.4901  0.3538
 5519SOL     OW17798   5.720   1.957   5.233  0.6945 -0.2734 -0.2393
 5519SOL    HW117799   5.667   1.888   5.274  2.5720 -1.6266 -0.0519
 5519SOL    HW217800   5.661   2.032   5.229 -0.1829 -0.6608  3.1968
 5520SOL     OW17801   2.615   0.879   7.465 -0.1641 -0.0543  0.2474
 5520SOL    HW117802   2.531   0.877   7.419 -0.2621  0.0827  0.4206
 5520SOL    HW217803   2.633   0.787   7.484 -0.5724 -0.0326  0.7470
 5521SOL     OW17804   2.922   4.636   5.320 -0.1512 -0.6299 -0.1769
 5521SOL    HW117805   2.942   4.723   5.354 -1.0075  0.3921 -2.1926
 5521SOL    HW217806   2.830   4.621   5.345  0.0441 -1.0406  0.3120
 5522SOL     OW17807   4.413   5.140   6.892  0.1945 -0.7021 -0.2694
 5522SOL    HW117808   4.462   5.060   6.871  0.6769 -0.2058 -1.0666
 5522SOL    HW217809   4.362   5.159   6.814  1.2432  0.6064 -0.6570
 5523SOL     OW17810   5.509   0.302   0.552 -0.3438  0.1787  0.0833
 5523SOL    HW117811   5.492   0.345   0.468  1.8217  0.4802 -0.2223
 5523SOL    HW217812   5.600   0.323   0.572 -0.9781  0.5562  2.7837
 5524SOL     OW17813   1.003   7.795   2.654 -0.6395 -0.4299 -0.2705
 5524SOL    HW117814   0.933   7.775   2.716 -0.0480 -0.5935  0.3497
 5524SOL    HW217815   1.081   7.754   2.691  0.2527  1.5889  0.1692
 5525SOL     OW17816   4.989   7.799   5.443 -0.2003  0.4151  0.1598
 5525SOL    HW117817   4.998   7.874   5.385  0.9132  0.4741  0.3965
 5525SOL    HW217818   4.969   7.837   5.529 -0.4396  0.3942  0.1157
 5526SOL     OW17819   5.609   0.096   3.260 -0.1893  0.0816  0.4014
 5526SOL    HW117820   5.606   0.007   3.294 -0.3809  0.1841  0.6577
 5526SOL    HW217821   5.663   0.144   3.323  2.0065 -0.4061 -1.0472
 5527SOL     OW17822   2.466   3.229   7.763 -0.0453  0.0216  0.3825
 5527SOL    HW117823   2.374   3.206   7.776 -0.1165 -0.6605 -1.1847
 5527SOL    HW217824   2.491   3.273   7.844 -1.0746 -1.8981  1.7902
 5528SOL     OW17825   2.000   1.886   3.897 -0.0447 -0.3044 -0.4232
 5528SOL    HW117826   2.084   1.890   3.944  1.3255 -2.3821 -2.5747
 5528SOL    HW217827   1.948   1.823   3.947 -0.1891  0.6824  0.6885
 5529SOL     OW17828   6.916   0.071   1.009  0.4599  0.4571  0.0286
 5529SOL    HW117829   6.933   0.056   0.917 -0.1348 -2.6923  0.3855
 5529SOL    HW217830   7.000   0.060   1.052  0.2460 -0.7123  0.1542
 5530SOL     OW17831   7.231   3.522   3.919 -0.1450  0.3973 -0.1922
 5530SOL    HW117832   7.263   3.609   3.893 -0.3153  0.6016  0.2816
 5530SOL    HW217833   7.212   3.478   3.836 -2.1703  1.6113 -0.4080
 5531SOL     OW17834   2.052   5.015   6.674 -0.2057  0.3079  0.3868
 5531SOL    HW117835   2.026   5.100   6.711 -2.2752  0.4905 -1.3565
 5531SOL    HW217836   2.012   4.950   6.733 -2.3767  0.5907 -0.7199
 5532SOL     OW17837   0.935   8.215   8.274  0.0966 -0.2339 -0.4021
 5532SOL    HW117838   0.952   8.309   8.287  0.7118 -0.0871 -2.1580
 5532SOL    HW217839   1.017   8.181   8.238 -0.4157 -1.2802 -0.5880
 5533SOL     OW17840   0.108   1.549   5.239  0.0692 -0.2711 -0.1574
 5533SOL    HW117841   0.124   1.474   5.297  1.0472 -0.9732 -1.3078
 5533SOL    HW217842   0.036   1.520   5.183 -0.3121  0.0851  0.1507
 5534SOL     OW17843   0.253   7.736   5.458  0.2290 -0.7848  0.3659
 5534SOL    HW117844   0.208   7.785   5.389  2.9791  2.5227  0.8129
 5534SOL    HW217845   0.189   7.729   5.529 -1.0275 -0.0479 -0.6872
 5535SOL     OW17846   5.381   0.689   0.161  0.2878  0.6327  0.3540
 5535SOL    HW117847   5.335   0.724   0.084  1.7564  1.8537  0.0149
 5535SOL    HW217848   5.314   0.639   0.207 -1.3169  2.0796 -0.3240
 5536SOL     OW17849   3.259   4.850   2.276  0.3863  0.0149 -0.2312
 5536SOL    HW117850   3.208   4.880   2.351 -1.8808 -0.9062 -1.3614
 5536SOL    HW217851   3.344   4.891   2.287 -0.0164  0.1880  2.6521
 5537SOL     OW17852   6.974   5.622   4.500  0.1352  0.2168 -0.0381
 5537SOL    HW117853   7.007   5.676   4.572 -2.7962  0.3141  1.3122
 5537SOL    HW217854   7.014   5.536   4.513  0.8677  0.6816  0.7692
 5538SOL     OW17855   5.227   0.912   4.356  0.4684 -0.0204 -0.4245
 5538SOL    HW117856   5.263   1.000   4.368  0.5639  0.1871 -2.0432
 5538SOL    HW217857   5.222   0.902   4.261 -2.1181 -0.7268 -0.2448
 5539SOL     OW17858   3.929   7.864   6.655 -0.4443 -0.6074  0.2315
 5539SOL    HW117859   3.844   7.822   6.642  0.6420 -2.0921 -2.2610
 5539SOL    HW217860   3.922   7.948   6.609  0.0196 -1.4814 -1.4330
 5540SOL     OW17861   2.575   7.400   3.816  0.1588  0.4094 -0.1733
 5540SOL    HW117862   2.582   7.482   3.864 -1.7664  1.4676 -1.6196
 5540SOL    HW217863   2.482   7.393   3.794  0.4412 -1.7094 -0.8432
 5541SOL     OW17864   0.854   7.514   4.607  0.0817 -0.7399 -0.1294
 5541SOL    HW117865   0.912   7.582   4.642 -0.2691 -0.0642 -0.8554
 5541SOL    HW217866   0.854   7.446   4.675  3.7054 -1.9096 -1.1722
 5542SOL     OW17867   0.060   7.554   5.843  0.3254 -0.1502  0.2462
 5542SOL    HW117868  -0.024   7.509   5.838  0.5656 -0.4764 -0.9738
 5542SOL    HW217869   0.111   7.505   5.908 -0.3043 -0.1446  0.7410
 5543SOL     OW17870   0.861   4.847   4.606 -0.1275  0.4858  0.0947
 5543SOL    HW117871   0.941   4.796   4.595 -0.8364 -0.1145 -2.6661
 5543SOL    HW217872   0.879   4.905   4.680  2.6815  0.0310 -0.1836
 5544SOL     OW17873   4.998   5.423   1.257 -0.0311 -0.0442  0.0089
 5544SOL    HW117874   4.928   5.393   1.315 -0.7231  1.3921 -0.0616
 5544SOL    HW217875   5.062   5.463   1.315 -0.9427  1.8121 -0.2423
 5545SOL     OW17876   4.160   3.395   0.583  0.0593 -0.0033 -0.1832
 5545SOL    HW117877   4.176   3.472   0.637  1.1977 -1.7928  2.0998
 5545SOL    HW217878   4.101   3.341   0.634 -1.8844 -0.0457 -2.3875
 5546SOL     OW17879   4.810   6.923   0.403 -0.7504  0.1877  0.5191
 5546SOL    HW117880   4.827   6.957   0.491  1.1074  1.9209 -0.4859
 5546SOL    HW217881   4.850   6.836   0.404 -0.0856  0.4934  1.1447
 5547SOL     OW17882   2.101   6.071   5.255 -0.5783  0.3806  0.3446
 5547SOL    HW117883   2.040   6.136   5.287  0.6840  1.9532 -0.3652
 5547SOL    HW217884   2.184   6.118   5.246  0.2811 -1.2379 -0.4906
 5548SOL     OW17885   4.508   6.869   1.733 -0.4619  0.3192 -0.3115
 5548SOL    HW117886   4.463   6.946   1.769  0.8133  0.6131  0.7175
 5548SOL    HW217887   4.543   6.899   1.649 -2.2271  0.0590 -1.1731
 5549SOL     OW17888   7.157   0.600   4.655  0.1704 -0.7274  0.1173
 5549SOL    HW117889   7.221   0.640   4.713  0.0990  0.6002 -0.7104
 5549SOL    HW217890   7.160   0.507   4.677  1.8770 -0.5833  0.5601
 5550SOL     OW17891   7.374   0.988   5.039  0.6373 -0.6241  0.3314
 5550SOL    HW117892   7.450   1.015   4.987 -1.0290  1.0088 -1.2841
 5550SOL    HW217893   7.361   1.060   5.101  1.0895 -1.4490  1.4226
 5551SOL     OW17894   2.826   6.957   4.876 -0.1500  0.3183  0.6201
 5551SOL    HW117895   2.913   6.934   4.841  0.2781  0.6141  1.4789
 5551SOL    HW217896   2.841   7.037   4.925 -0.7562 -0.0765  1.4507
 5552SOL     OW17897   8.020   2.828   7.913 -0.3892  0.3119 -0.4078
 5552SOL    HW117898   8.099   2.830   7.859 -0.5882 -1.5095 -0.8050
 5552SOL    HW217899   7.948   2.824   7.850 -0.7478  0.6259 -0.0217
 5553SOL     OW17900   6.489   1.825   6.326 -0.5340 -0.0877 -0.6998
 5553SOL    HW117901   6.498   1.887   6.398 -0.1907 -0.4305 -0.4504
 5553SOL    HW217902   6.544   1.751   6.350 -0.5326 -0.2661 -1.2463
 5554SOL     OW17903   0.391   6.019   5.718 -0.3556 -0.5132 -0.3164
 5554SOL    HW117904   0.404   5.928   5.691 -0.9177 -0.3785 -1.0495
 5554SOL    HW217905   0.335   6.013   5.795  1.7111 -0.9343  1.2078
 5555SOL     OW17906   4.176   3.643   1.676 -0.3352 -0.1698  0.2357
 5555SOL    HW117907   4.088   3.643   1.638  0.1790  0.3455 -0.9847
 5555SOL    HW217908   4.233   3.671   1.604  0.7902 -0.2238  1.0968
 5556SOL     OW17909   0.657   0.702   7.156  0.3478  0.0266  0.2774
 5556SOL    HW117910   0.676   0.735   7.244  1.6725 -0.9033  0.3549
 5556SOL    HW217911   0.720   0.631   7.143 -1.6724 -1.6962 -0.3298
 5557SOL     OW17912   3.962   2.732   5.165  0.2829 -0.1962  0.8963
 5557SOL    HW117913   3.914   2.809   5.197  2.6093  0.0501  4.1392
 5557SOL    HW217914   4.042   2.768   5.126 -0.6628 -0.7723 -1.6654
 5558SOL     OW17915   1.886   0.656   2.494  0.0268 -0.0162 -0.0728
 5558SOL    HW117916   1.884   0.727   2.430  2.6503  0.3467  0.2008
 5558SOL    HW217917   1.973   0.662   2.534  0.3633 -3.5085 -0.1798
 5559SOL     OW17918   2.439   8.160   6.635 -0.3148  0.1849 -0.3341
 5559SOL    HW117919   2.499   8.217   6.588  0.7216  1.0063  1.9343
 5559SOL    HW217920   2.467   8.071   6.611 -0.1854  0.5701 -1.6851
 5560SOL     OW17921   8.062   5.403   0.172 -0.3251  0.3059  0.3443
 5560SOL    HW117922   8.040   5.443   0.257 -2.2389  0.3722 -0.1646
 5560SOL    HW217923   8.143   5.447   0.146 -0.2151  0.9537  1.6978
 5561SOL     OW17924   1.252   0.953   5.482  1.0177 -0.0935  0.3007
 5561SOL    HW117925   1.196   1.025   5.456  0.0710 -1.0804 -0.4472
 5561SOL    HW217926   1.340   0.980   5.456  0.7591  1.0516  0.6124
 5562SOL     OW17927   6.369   7.328   6.178  0.2887 -0.6663 -0.1931
 5562SOL    HW117928   6.457   7.337   6.213  0.3307  0.7206 -0.6055
 5562SOL    HW217929   6.313   7.372   6.241 -0.2231 -2.2007  0.4553
 5563SOL     OW17930   1.205   6.696   2.547 -0.0607 -0.4978 -0.0507
 5563SOL    HW117931   1.237   6.782   2.575 -3.0475  0.4839  0.5508
 5563SOL    HW217932   1.191   6.706   2.453 -2.3488  0.3930  0.3430
 5564SOL     OW17933   4.483   4.948   8.155  0.4877 -0.0647  0.5181
 5564SOL    HW117934   4.432   4.942   8.075  0.0254 -2.2894  0.9246
 5564SOL    HW217935   4.553   5.010   8.135  0.6437 -0.9275 -1.7791
 5565SOL     OW17936   8.086   8.023   4.689  0.0426 -0.0746  0.1949
 5565SOL    HW117937   8.169   7.991   4.652  0.0097 -0.0351  0.0863
 5565SOL    HW217938   8.054   7.951   4.743  1.2031  0.6778  1.9195
 5566SOL     OW17939   0.339   7.577   1.751  0.6072 -0.5117  0.2768
 5566SOL    HW117940   0.284   7.507   1.788 -0.3585 -0.6536 -1.3406
 5566SOL    HW217941   0.279   7.626   1.695  2.0082 -0.3104 -1.0630
 5567SOL     OW17942   5.018   8.086   7.063  0.0336 -0.1457 -0.0287
 5567SOL    HW117943   4.993   8.178   7.074  1.2621  0.1170  0.6322
 5567SOL    HW217944   5.106   8.090   7.026  0.6081 -1.0581  1.2455
 5568SOL     OW17945   7.718   3.062   3.049 -0.2248  0.4694  0.7724
 5568SOL    HW117946   7.657   2.989   3.049 -0.7675  0.8211 -3.3186
 5568SOL    HW217947   7.805   3.022   3.048 -0.4650 -0.0587  1.0123
 5569SOL     OW17948   5.788   0.226   6.461  0.1788 -0.4988 -0.5565
 5569SOL    HW117949   5.710   0.183   6.494 -0.5616  2.1607  1.3158
 5569SOL    HW217950   5.810   0.291   6.528  2.4586  0.5790 -2.2781
 5570SOL     OW17951   4.936   4.279   1.748  0.5048 -0.5272  0.1933
 5570SOL    HW117952   4.998   4.351   1.748 -0.1357  0.0273  0.7784
 5570SOL    HW217953   4.943   4.241   1.661  1.0750  0.0315 -0.0059
 5571SOL     OW17954   2.005   6.801   3.395  0.2944 -0.5289 -0.9012
 5571SOL    HW117955   2.072   6.866   3.379  0.2137 -0.3859 -0.6672
 5571SOL    HW217956   2.020   6.773   3.486  0.2994 -0.7984 -0.9847
 5572SOL     OW17957   5.045   5.237   8.013 -0.2006 -0.3300  0.0878
 5572SOL    HW117958   5.100   5.177   7.964  0.5391 -0.3639  0.9376
 5572SOL    HW217959   5.005   5.183   8.081  0.6297  0.1612  0.9843
 5573SOL     OW17960   0.087   3.004   6.111  0.3858 -0.2558 -0.3818
 5573SOL    HW117961   0.092   2.938   6.180  1.7927 -1.3341 -1.4641
 5573SOL    HW217962   0.141   3.076   6.143  0.1529 -0.3034  0.1179
 5574SOL     OW17963   7.192   6.358   3.327  0.2719  0.4767  0.2623
 5574SOL    HW117964   7.119   6.309   3.289  0.4653  0.9027 -0.6671
 5574SOL    HW217965   7.246   6.382   3.252  0.8553  1.0072  0.8500
 5575SOL     OW17966   4.504   4.805   3.070  0.1539  0.1951  0.2646
 5575SOL    HW117967   4.482   4.842   3.156  0.7238  1.1711 -0.0145
 5575SOL    HW217968   4.592   4.835   3.052  0.2105 -0.3913 -0.4696
 5576SOL     OW17969   0.348   5.818   3.505 -0.3131  1.4191 -0.5577
 5576SOL    HW117970   0.389   5.825   3.591  0.3739 -0.7757 -0.6622
 5576SOL    HW217971   0.284   5.748   3.515 -0.2434  1.1657 -1.8217
 5577SOL     OW17972   2.315   3.398   1.143  0.0175  0.5462  0.4608
 5577SOL    HW117973   2.360   3.378   1.061 -0.9258  0.5961 -0.0800
 5577SOL    HW217974   2.377   3.450   1.193  0.7092  0.2740 -0.1075
 5578SOL     OW17975   7.126   3.141   1.272  0.7956 -0.0977  0.7571
 5578SOL    HW117976   7.115   3.235   1.288  2.5854  0.3161 -0.2191
 5578SOL    HW217977   7.038   3.105   1.277  0.0876  1.6349  1.1854
 5579SOL     OW17978   0.016   1.734   5.403  0.5143  1.0934  0.2917
 5579SOL    HW117979   0.036   1.664   5.340  0.1209  1.8658 -0.6925
 5579SOL    HW217980   0.005   1.812   5.350  0.5403  1.8343  1.3596
 5580SOL     OW17981   4.331   5.033   4.660  0.0086 -0.3838  0.3407
 5580SOL    HW117982   4.302   5.015   4.749 -0.5159 -1.9025 -0.1261
 5580SOL    HW217983   4.364   5.123   4.663 -1.7843  0.2452  1.6198
 5581SOL     OW17984   4.577   0.568   0.265  0.4565  0.1435  0.1347
 5581SOL    HW117985   4.659   0.527   0.293  1.6119  2.0280 -0.3626
 5581SOL    HW217986   4.555   0.628   0.336 -0.6677 -0.5596  0.3948
 5582SOL     OW17987   0.594   4.072   0.068  0.3002  0.2235 -0.1354
 5582SOL    HW117988   0.562   4.010   0.003  0.6229  2.1829 -2.2550
 5582SOL    HW217989   0.515   4.099   0.116 -0.2729  0.3228 -1.1183
 5583SOL     OW17990   4.081   4.124   5.300 -0.8135  0.8708  0.1550
 5583SOL    HW117991   4.162   4.144   5.253 -0.3540 -0.0093  0.5668
 5583SOL    HW217992   4.093   4.162   5.387 -1.3534  1.8213 -0.1698
 5584SOL     OW17993   5.788   3.637   4.540 -0.0183 -0.1595 -0.0924
 5584SOL    HW117994   5.809   3.724   4.504 -0.3841  0.3875  0.9913
 5584SOL    HW217995   5.847   3.628   4.615 -0.7561 -0.3833  0.4563
 5585SOL     OW17996   7.286   3.114   6.205  0.4215 -0.7615  0.2259
 5585SOL    HW117997   7.336   3.082   6.130  1.8544  0.0118  0.8320
 5585SOL    HW217998   7.295   3.209   6.202 -0.3438 -0.6624  0.8116
 5586SOL     OW17999   7.831   5.987   0.002 -0.8256  0.1789 -0.1243
 5586SOL    HW118000   7.887   5.917  -0.031 -0.4869  0.0103  0.7972
 5586SOL    HW218001   7.744   5.966  -0.031 -0.8498 -1.0390  0.7020
 5587SOL     OW18002   0.810   4.718   6.898  0.0363  0.0506 -0.2612
 5587SOL    HW118003   0.845   4.755   6.980  3.1747 -0.9672 -1.0654
 5587SOL    HW218004   0.810   4.624   6.913 -3.4960  0.0526  0.0807
 5588SOL     OW18005   3.226   7.827   7.268 -0.2150  0.2574 -0.1694
 5588SOL    HW118006   3.194   7.916   7.286 -1.0576  0.0882 -0.8099
 5588SOL    HW218007   3.306   7.840   7.218  1.1577  0.7018  2.0408
 5589SOL     OW18008   5.921   0.015   1.859 -0.0386 -0.3137 -0.5589
 5589SOL    HW118009   5.936  -0.002   1.766 -0.0250  0.2346 -0.6540
 5589SOL    HW218010   5.828  -0.006   1.872  0.5299 -2.7975 -0.1672
 5590SOL     OW18011   7.185   6.676   1.911  0.6270  0.5652  0.7632
 5590SOL    HW118012   7.118   6.726   1.957  1.3972  0.7088  1.7413
 5590SOL    HW218013   7.236   6.741   1.863 -1.2460  0.2510 -1.7175
 5591SOL     OW18014   8.217   0.241   4.824  0.3669 -0.7005 -0.6625
 5591SOL    HW118015   8.135   0.206   4.789 -1.3212  1.4574  0.9506
 5591SOL    HW218016   8.248   0.303   4.758 -0.2992 -0.1629 -0.4790
 5592SOL     OW18017   6.403   2.290   7.712 -0.5034  0.2726  0.3447
 5592SOL    HW118018   6.380   2.288   7.619  2.5600 -0.8411 -0.4458
 5592SOL    HW218019   6.404   2.383   7.734 -0.4432  0.5974 -0.9643
 5593SOL     OW18020   2.801   5.732   7.557  0.2742  0.0395  0.2216
 5593SOL    HW118021   2.743   5.665   7.521  0.3740  0.4468 -0.7197
 5593SOL    HW218022   2.747   5.811   7.560  0.4547  0.1556  0.3814
 5594SOL     OW18023   4.714   3.843   7.927  0.0880  0.3762 -0.1292
 5594SOL    HW118024   4.805   3.864   7.950  0.4216 -0.1192 -0.9587
 5594SOL    HW218025   4.684   3.785   7.997 -0.2400  2.0882  1.1922
 5595SOL     OW18026   4.365   5.934   1.918  0.4731  0.3355 -0.1552
 5595SOL    HW118027   4.410   6.007   1.961  0.4941  1.5950 -2.2182
 5595SOL    HW218028   4.418   5.857   1.939  1.8299  1.3002  0.0236
 5596SOL     OW18029   5.054   5.283   4.495 -0.3493 -0.4371  0.3759
 5596SOL    HW118030   5.040   5.374   4.469 -2.4960 -0.9397 -0.3352
 5596SOL    HW218031   5.133   5.285   4.549 -0.3379  1.8343  0.3072
 5597SOL     OW18032   6.740   5.208   6.985 -0.4991 -0.1728 -0.3825
 5597SOL    HW118033   6.732   5.236   6.893  0.3139 -0.9713 -0.7019
 5597SOL    HW218034   6.737   5.113   6.981  0.3315 -0.2305  0.3525
 5598SOL     OW18035   4.697   0.721   5.870  0.7098 -0.3354  0.4598
 5598SOL    HW118036   4.758   0.778   5.822  0.8268 -1.9627 -1.3663
 5598SOL    HW218037   4.664   0.777   5.940  0.1518  2.2953 -1.8008
 5599SOL     OW18038   0.382   3.164   5.313 -0.4516  0.1222  0.3355
 5599SOL    HW118039   0.447   3.131   5.375  0.2011 -0.4436 -0.6285
 5599SOL    HW218040   0.300   3.125   5.342  0.0088 -0.8959  0.2960
 5600SOL     OW18041   3.337   4.196   3.049  0.5088 -0.5031 -0.3594
 5600SOL    HW118042   3.424   4.227   3.027  1.1020 -0.7949  1.4740
 5600SOL    HW218043   3.288   4.200   2.967  2.4252 -0.9848 -1.5495
 5601SOL     OW18044   2.809   3.875   6.999  0.5894  0.1695  0.1910
 5601SOL    HW118045   2.826   3.843   7.088  0.6658 -0.1525  0.0601
 5601SOL    HW218046   2.805   3.796   6.946 -0.2754  0.3148  0.0403
 5602SOL     OW18047   1.962   5.622   6.490  0.3893 -0.2685 -0.3691
 5602SOL    HW118048   2.014   5.568   6.430  1.1179  1.6290 -1.4946
 5602SOL    HW218049   1.893   5.660   6.436 -0.0915 -0.0375  0.3937
 5603SOL     OW18050   7.098   4.383   3.815  0.2898  0.7020 -0.1341
 5603SOL    HW118051   7.026   4.323   3.833  0.3276  0.9833  1.0038
 5603SOL    HW218052   7.064   4.470   3.837  0.2336  1.1141 -1.7704
 5604SOL     OW18053   4.226   4.924   7.216  0.3066  0.1392 -0.1807
 5604SOL    HW118054   4.309   4.892   7.252  0.9507 -0.2550 -1.9450
 5604SOL    HW218055   4.159   4.891   7.276  1.4419  0.7011  1.4255
 5605SOL     OW18056   2.843   0.735   3.525  0.4460  0.3022  0.3617
 5605SOL    HW118057   2.836   0.778   3.610 -0.7754  0.5904  0.1212
 5605SOL    HW218058   2.763   0.684   3.517  1.2663 -0.9604  0.0528
 5606SOL     OW18059   1.732   4.123   7.227  0.0412  0.3200 -0.1085
 5606SOL    HW118060   1.799   4.180   7.190  0.3938 -0.2663 -0.3709
 5606SOL    HW218061   1.713   4.162   7.313  1.8079 -0.3663  0.6234
 5607SOL     OW18062   5.653   0.060   0.919 -0.2233  0.5326  0.0697
 5607SOL    HW118063   5.557   0.055   0.915 -0.3385  1.6339  1.1050
 5607SOL    HW218064   5.672   0.078   1.011  1.0197 -0.3698 -0.0081
 5608SOL     OW18065   5.172   2.748   0.301  0.0351 -0.1784 -0.5654
 5608SOL    HW118066   5.164   2.657   0.273 -1.2535 -0.6094  1.1218
 5608SOL    HW218067   5.257   2.752   0.344  0.4023 -0.4041 -1.2530
 5609SOL     OW18068   0.754   5.373   5.192 -0.1151  0.0062 -0.1126
 5609SOL    HW118069   0.765   5.385   5.286  1.4731  1.3191 -0.4340
 5609SOL    HW218070   0.709   5.290   5.183  0.9583 -0.8105  1.7646
 5610SOL     OW18071   2.556   1.769   5.720  0.2147  0.1315 -0.0665
 5610SOL    HW118072   2.647   1.758   5.750  0.7847 -0.6939 -2.0234
 5610SOL    HW218073   2.533   1.684   5.684 -1.0725  0.5972 -0.3328
 5611SOL     OW18074   4.098   3.207   2.791  0.2143  0.4320  0.6808
 5611SOL    HW118075   4.029   3.242   2.847  0.6917  0.8809  0.9955
 5611SOL    HW218076   4.151   3.151   2.848  0.7029  0.8915  0.6876
 5612SOL     OW18077   1.655   5.360   8.241  0.2715 -0.4320 -0.1608
 5612SOL    HW118078   1.733   5.417   8.243  0.8405 -1.2136  0.2384
 5612SOL    HW218079   1.683   5.284   8.190 -0.3734 -0.5231 -0.3749
 5613SOL     OW18080   1.104   4.358   5.577 -0.1434  0.4430  0.0887
 5613SOL    HW118081   1.027   4.398   5.617 -0.7787  0.9938 -1.6171
 5613SOL    HW218082   1.107   4.395   5.489  0.9769 -1.0239 -0.5221
 5614SOL     OW18083   0.866   2.845   2.952  0.2685  0.2418 -0.0531
 5614SOL    HW118084   0.779   2.860   2.988 -0.1043 -1.4181 -0.2296
 5614SOL    HW218085   0.919   2.821   3.029 -0.0311 -1.1977 -0.2744
 5615SOL     OW18086   2.538   2.783   1.196 -0.1595 -0.4358  0.6470
 5615SOL    HW118087   2.597   2.763   1.269  0.3205 -0.3359  0.2938
 5615SOL    HW218088   2.585   2.752   1.118 -1.4870 -2.2574  0.5597
 5616SOL     OW18089   0.418   1.080   7.138 -0.0386  0.1626 -0.1600
 5616SOL    HW118090   0.402   1.011   7.074  1.4305  0.6953 -1.1469
 5616SOL    HW218091   0.332   1.120   7.153 -0.6007 -0.7660 -0.8801
 5617SOL     OW18092   0.881   0.999   2.058 -0.2942 -0.1634  0.3635
 5617SOL    HW118093   0.859   0.964   2.144  0.1176  0.0592  0.5603
 5617SOL    HW218094   0.884   0.922   2.001  1.8401 -0.6186  1.0490
 5618SOL     OW18095   2.450   5.664   7.373 -0.2500  0.2910 -0.1911
 5618SOL    HW118096   2.361   5.630   7.382  0.2054 -0.5811  1.0641
 5618SOL    HW218097   2.491   5.608   7.307 -0.2094 -0.1786  0.2301
 5619SOL     OW18098   2.398   5.342   6.562  0.1413  0.0970  0.4607
 5619SOL    HW118099   2.479   5.388   6.581  0.0776  0.2044  0.4703
 5619SOL    HW218100   2.329   5.402   6.589  0.0570  0.0735  0.2983
 5620SOL     OW18101   2.937   0.367   1.984  0.0909 -0.2189  0.1078
 5620SOL    HW118102   2.968   0.279   2.006 -0.2341  0.2579  2.6025
 5620SOL    HW218103   3.016   0.421   1.983  0.2186 -0.4045 -0.8801
 5621SOL     OW18104   1.632   7.048   0.335 -0.1091  0.3004  0.4547
 5621SOL    HW118105   1.650   7.025   0.426  0.7629 -0.9663 -0.0133
 5621SOL    HW218106   1.629   6.964   0.290 -1.2882  0.8732 -0.5676
 5622SOL     OW18107   3.209   4.896   6.207 -0.7122 -0.3096  0.1917
 5622SOL    HW118108   3.272   4.862   6.143 -1.2210 -2.6789  0.9080
 5622SOL    HW218109   3.259   4.958   6.259  0.4494 -0.5048 -0.6710
 5623SOL     OW18110   0.835   4.244   7.130 -0.7245  0.2315 -0.5455
 5623SOL    HW118111   0.800   4.191   7.058  0.7402 -0.1856 -0.9685
 5623SOL    HW218112   0.917   4.201   7.153 -1.3616  0.1172  1.6606
 5624SOL     OW18113   4.140   1.852   4.192  0.0563 -0.4650 -0.0900
 5624SOL    HW118114   4.047   1.875   4.202 -0.2654 -1.4134 -0.7417
 5624SOL    HW218115   4.139   1.775   4.135  1.0897 -2.0976  2.0591
 5625SOL     OW18116   7.149   4.242   3.090  0.6030 -0.1412 -0.0241
 5625SOL    HW118117   7.219   4.210   3.147  2.0309  1.4819 -0.8345
 5625SOL    HW218118   7.102   4.163   3.063  1.9148 -1.2206  0.7917
 5626SOL     OW18119   4.369   3.051   2.572 -0.6510  0.0909  0.7189
 5626SOL    HW118120   4.365   3.108   2.648 -0.0659  0.2609  0.6207
 5626SOL    HW218121   4.387   3.110   2.499  0.1915 -0.2499  0.6508
 5627SOL     OW18122   7.893   3.602   2.984 -0.1913 -0.2266  0.2311
 5627SOL    HW118123   7.867   3.537   2.919  0.3141  0.5577 -0.7825
 5627SOL    HW218124   7.914   3.680   2.932 -0.3555  0.6022  1.3886
 5628SOL     OW18125   6.726   3.337   6.913  0.4815  0.3000  0.0975
 5628SOL    HW118126   6.730   3.360   7.006  1.4360  0.6659 -0.0271
 5628SOL    HW218127   6.781   3.259   6.905 -2.6903 -2.0774  0.5065
 5629SOL     OW18128   3.370   5.730   3.951  0.1576 -0.4673  0.0579
 5629SOL    HW118129   3.432   5.784   3.999  2.3768 -1.8305 -1.2014
 5629SOL    HW218130   3.335   5.787   3.883  0.3444  0.1698  0.4951
 5630SOL     OW18131   7.268   2.387   8.164  0.0306 -0.1475  0.4403
 5630SOL    HW118132   7.260   2.313   8.103  1.1018  0.4250 -0.4233
 5630SOL    HW218133   7.305   2.458   8.111  0.0541  0.6689  1.5264
 5631SOL     OW18134   2.656   4.694   0.580 -0.0032 -0.1303  0.2566
 5631SOL    HW118135   2.670   4.631   0.650 -1.6853 -0.3670  0.4068
 5631SOL    HW218136   2.636   4.776   0.626 -0.5302 -0.1478  0.0649
 5632SOL     OW18137   5.299   3.565   3.138  0.2978  0.7933  0.3319
 5632SOL    HW118138   5.286   3.659   3.127 -0.0064  0.8787  1.3739
 5632SOL    HW218139   5.303   3.531   3.049 -2.0055  1.4453 -0.0474
 5633SOL     OW18140   3.789   5.904   5.697 -0.1214  0.0293 -0.7335
 5633SOL    HW118141   3.719   5.872   5.640  0.3271  0.6033 -1.6139
 5633SOL    HW218142   3.828   5.824   5.733 -0.7586 -0.3171 -0.8057
 5634SOL     OW18143   2.407   2.142   3.438 -0.5899  0.1810 -0.0940
 5634SOL    HW118144   2.312   2.141   3.427 -0.4452 -0.3237 -1.4550
 5634SOL    HW218145   2.436   2.058   3.402  0.3384  0.1539  0.6981
 5635SOL     OW18146   3.525   3.211   6.737 -0.3457 -0.7685 -0.1490
 5635SOL    HW118147   3.478   3.270   6.796  0.3597 -0.1868 -0.1624
 5635SOL    HW218148   3.548   3.135   6.791 -0.6167 -0.7054  0.0537
 5636SOL     OW18149   4.038   5.015   1.805  0.1678  1.1357 -0.2338
 5636SOL    HW118150   4.081   5.016   1.891 -0.5658 -0.4845  0.1765
 5636SOL    HW218151   4.100   5.057   1.746  1.1103  1.3578  0.9010
 5637SOL     OW18152   8.190   6.421   7.292 -0.3350  0.6339 -0.2838
 5637SOL    HW118153   8.257   6.482   7.321  1.2865 -1.0869 -0.2862
 5637SOL    HW218154   8.141   6.400   7.372 -0.4555  1.3845 -0.1568
 5638SOL     OW18155   2.506   0.033   7.284  0.1896  0.2658  0.0035
 5638SOL    HW118156   2.480  -0.050   7.244  0.8679  0.2847 -0.4866
 5638SOL    HW218157   2.442   0.096   7.252 -0.4025 -0.0954  0.4784
 5639SOL     OW18158   0.091   7.318   1.690  0.2470 -0.0628 -0.1568
 5639SOL    HW118159   0.103   7.359   1.776 -1.4742 -2.5157  1.3153
 5639SOL    HW218160   0.137   7.234   1.697 -1.6252 -1.1728 -0.9125
 5640SOL     OW18161   3.952   0.642   2.148 -0.8194 -0.4232  0.3570
 5640SOL    HW118162   3.882   0.581   2.169 -1.4987 -0.0790 -0.8070
 5640SOL    HW218163   4.012   0.592   2.093 -0.9096 -0.3075  0.1523
 5641SOL     OW18164   7.050   1.215   1.127  0.0872 -0.1534 -0.4487
 5641SOL    HW118165   7.139   1.243   1.145 -0.0740 -1.2568  2.3006
 5641SOL    HW218166   7.057   1.156   1.053  1.7067 -0.6221  0.0739
 5642SOL     OW18167   2.294   6.888   5.544  0.3264 -0.6087  0.0501
 5642SOL    HW118168   2.216   6.944   5.543  1.0395  0.4230  0.6226
 5642SOL    HW218169   2.296   6.848   5.457 -0.1130  0.4151 -0.4459
 5643SOL     OW18170   1.988   4.776   2.137  0.0477 -0.1938 -0.3624
 5643SOL    HW118171   2.072   4.760   2.181 -0.1857 -0.0639  0.1411
 5643SOL    HW218172   1.930   4.709   2.173 -0.5444  0.8579  0.6473
 5644SOL     OW18173   4.909   2.654   7.273  0.0298 -0.1455 -0.0221
 5644SOL    HW118174   4.835   2.686   7.221  1.2931 -0.9011 -2.3758
 5644SOL    HW218175   4.874   2.577   7.319 -0.4331 -1.1053 -1.8898
 5645SOL     OW18176   6.220   0.309   5.150 -0.5853 -0.2213 -0.2422
 5645SOL    HW118177   6.308   0.321   5.114 -0.7185 -1.0963 -0.8548
 5645SOL    HW218178   6.187   0.231   5.107 -1.5637 -0.0485  0.1950
 5646SOL     OW18179   2.829   1.659   3.838  0.6461  0.4092  0.3222
 5646SOL    HW118180   2.773   1.583   3.819  1.4549  0.0497 -0.6889
 5646SOL    HW218181   2.775   1.735   3.817  0.1159  0.0975  0.5378
 5647SOL     OW18182   7.895   2.460   4.856 -0.5832 -0.4238 -0.1183
 5647SOL    HW118183   7.922   2.460   4.948  0.6058  1.4517 -0.4320
 5647SOL    HW218184   7.814   2.510   4.855  0.2365  0.9371 -0.2826
 5648SOL     OW18185   5.122   7.091   2.686 -0.1748  0.0462 -0.6162
 5648SOL    HW118186   5.196   7.148   2.664  0.5326 -0.7323 -0.3062
 5648SOL    HW218187   5.051   7.151   2.706  1.0583  0.8659  1.4555
 5649SOL     OW18188   1.004   7.663   5.782  0.1251  0.1558 -0.0422
 5649SOL    HW118189   1.096   7.662   5.809  0.3601  3.4868 -0.5150
 5649SOL    HW218190   0.962   7.727   5.840 -1.7996 -1.0061 -0.1143
 5650SOL     OW18191   3.929   7.061   5.487  0.2927  0.1609  0.2451
 5650SOL    HW118192   3.896   6.971   5.481  0.4525  0.2755 -2.9294
 5650SOL    HW218193   4.024   7.050   5.492  0.3432  0.1466 -0.6336
 5651SOL     OW18194   2.277   4.991   7.009 -0.8546 -0.1645 -0.0936
 5651SOL    HW118195   2.236   4.957   7.089 -0.6643  1.5702  0.7565
 5651SOL    HW218196   2.366   4.958   7.011 -1.3943 -1.7078 -0.5771
 5652SOL     OW18197   0.438   4.469   6.591  0.1431  0.1563 -0.1661
 5652SOL    HW118198   0.371   4.401   6.585  0.9219 -0.6688  0.3328
 5652SOL    HW218199   0.485   4.464   6.508 -0.8561  1.2244 -0.8147
 5653SOL     OW18200   6.646   6.257   7.448  0.5160 -0.1851 -0.1713
 5653SOL    HW118201   6.599   6.184   7.406  0.7533  0.6171 -1.8866
 5653SOL    HW218202   6.736   6.248   7.417  0.6115  0.6526 -0.1511
 5654SOL     OW18203   1.613   7.424   3.501  0.3983 -0.7714  0.5573
 5654SOL    HW118204   1.568   7.407   3.418  0.8638 -1.4031  0.4238
 5654SOL    HW218205   1.695   7.468   3.475  0.0938 -0.0794  0.7591
 5655SOL     OW18206   6.233   2.216   2.267 -0.5581  0.2273 -0.1342
 5655SOL    HW118207   6.246   2.151   2.198 -0.3805 -0.4372  0.5266
 5655SOL    HW218208   6.265   2.174   2.346 -0.9462  0.9180  0.3924
 5656SOL     OW18209   5.082   3.379   3.124  0.4208  0.3165  0.5950
 5656SOL    HW118210   5.115   3.289   3.123  0.1666  0.2264  0.0269
 5656SOL    HW218211   5.156   3.431   3.156  1.2845  0.1694 -1.1041
 5657SOL     OW18212   2.307   2.879   7.890  0.0342  0.2001 -1.3470
 5657SOL    HW118213   2.234   2.833   7.848 -0.8993 -0.5561  1.0478
 5657SOL    HW218214   2.279   2.971   7.892 -1.2862 -0.2239  0.4093
 5658SOL     OW18215   6.877   4.763   1.078 -0.1183 -0.7079 -0.6141
 5658SOL    HW118216   6.871   4.771   0.983  0.2947 -1.5563 -0.7182
 5658SOL    HW218217   6.928   4.683   1.092  0.6026 -0.0941  0.3178
 5659SOL     OW18218   3.584   0.489   3.951 -0.1763 -0.4283  0.0832
 5659SOL    HW118219   3.622   0.533   3.875 -1.4554  0.7742  0.1164
 5659SOL    HW218220   3.659   0.457   4.000  0.6596 -1.1983 -1.6755
 5660SOL     OW18221   4.521   2.487   7.359  0.0334  0.3673  0.1365
 5660SOL    HW118222   4.532   2.394   7.341  0.1131  0.2322  0.8725
 5660SOL    HW218223   4.546   2.530   7.277 -0.5655 -0.2823 -0.4011
 5661SOL     OW18224   4.361   1.667   6.691 -0.3204  0.4286 -0.1385
 5661SOL    HW118225   4.268   1.652   6.709 -0.6855  0.8917 -1.5812
 5661SOL    HW218226   4.401   1.674   6.778 -1.7270  0.8078  0.4976
 5662SOL     OW18227   3.942   3.167   6.103  0.3196 -0.2049 -0.0884
 5662SOL    HW118228   3.907   3.079   6.088 -0.9866  0.3493 -0.4019
 5662SOL    HW218229   3.953   3.204   6.016 -2.1726  1.0756  0.0935
 5663SOL     OW18230   7.958   0.754   7.066  0.1515  0.0960  0.0919
 5663SOL    HW118231   7.987   0.844   7.076 -0.3893  0.2883 -0.0474
 5663SOL    HW218232   7.863   0.758   7.077  0.0345 -0.3289 -0.6988
 5664SOL     OW18233   0.699   3.319   2.764 -0.2067 -0.1536 -0.6355
 5664SOL    HW118234   0.697   3.274   2.848  0.7747  0.3519 -0.3379
 5664SOL    HW218235   0.607   3.331   2.741 -0.4805  0.3361  0.6921
 5665SOL     OW18236   8.087   3.833   2.167 -0.2739 -0.2673 -0.2915
 5665SOL    HW118237   8.032   3.806   2.240 -0.5622  0.4551 -0.2347
 5665SOL    HW218238   8.145   3.900   2.204  0.2144 -0.5658 -0.5036
 5666SOL     OW18239   4.568   2.745   6.575  0.1827  0.0647  0.2625
 5666SOL    HW118240   4.553   2.761   6.668  1.1180 -0.7252  0.5512
 5666SOL    HW218241   4.527   2.660   6.558 -1.5576  1.0120 -0.4571
 5667SOL     OW18242   0.940   2.841   7.039  0.4206  0.6402  0.2985
 5667SOL    HW118243   0.937   2.908   7.107 -2.0026  2.0463 -1.0921
 5667SOL    HW218244   0.848   2.818   7.025  0.9421 -0.1590 -1.9384
 5668SOL     OW18245   2.574   2.853   3.214 -0.3627 -0.2619  0.5361
 5668SOL    HW118246   2.548   2.836   3.124  1.3191 -1.0216  0.1721
 5668SOL    HW218247   2.650   2.911   3.207 -2.7287  3.1250  1.6183
 5669SOL     OW18248   4.716   2.218   3.279 -0.1353  0.4586  0.1008
 5669SOL    HW118249   4.751   2.268   3.353  2.2755 -0.7734 -0.1897
 5669SOL    HW218250   4.784   2.222   3.213 -0.6954 -1.6612 -0.6226
 5670SOL     OW18251   2.470   4.078   5.215  0.1501 -0.1070  0.2164
 5670SOL    HW118252   2.564   4.065   5.201  0.5411  2.2537  0.3339
 5670SOL    HW218253   2.435   4.092   5.128  0.3002  1.2121  0.3570
 5671SOL     OW18254   2.499   7.947   3.800 -0.0344  0.7207 -0.1870
 5671SOL    HW118255   2.435   7.878   3.780 -1.0355  1.4347  0.5020
 5671SOL    HW218256   2.457   7.998   3.869  1.8757  0.3827  1.2438
 5672SOL     OW18257   2.071   7.538   6.348 -0.5382 -0.3762 -0.4656
 5672SOL    HW118258   2.124   7.493   6.283 -2.5192 -0.2457 -2.2210
 5672SOL    HW218259   2.005   7.473   6.374 -0.7865  0.1246  0.1707
 5673SOL     OW18260   5.599   3.043   5.064  0.3309 -0.3871  0.0606
 5673SOL    HW118261   5.659   3.116   5.051  0.9004 -0.8544  0.0334
 5673SOL    HW218262   5.611   2.988   4.987 -0.3608 -0.3224 -0.0943
 5674SOL     OW18263   4.658   4.479   7.509  0.0041 -0.4303  0.4351
 5674SOL    HW118264   4.696   4.401   7.547 -0.6090 -0.9103  0.0701
 5674SOL    HW218265   4.686   4.550   7.567 -2.0115 -1.3060  2.5514
 5675SOL     OW18266   0.195   4.415   1.745 -0.1241  0.0849 -0.2230
 5675SOL    HW118267   0.128   4.346   1.751 -1.6131  1.4023 -1.4226
 5675SOL    HW218268   0.202   4.448   1.835 -2.2643  1.0179 -0.3732
 5676SOL     OW18269   0.086   6.718   7.961 -0.3003  0.5713  0.4063
 5676SOL    HW118270   0.051   6.639   7.921  1.1385 -0.4170  1.0412
 5676SOL    HW218271   0.158   6.745   7.904  1.5787 -0.6880  2.0776
 5677SOL     OW18272   0.384   7.102   1.167 -0.2250  0.2006 -0.3251
 5677SOL    HW118273   0.399   7.012   1.195 -0.6787  0.5162  0.9812
 5677SOL    HW218274   0.443   7.115   1.093  0.5588 -0.8551  0.1055
 5678SOL     OW18275   2.637   0.570   6.883  0.7266 -0.0473  0.0139
 5678SOL    HW118276   2.678   0.573   6.969  2.1435 -0.2835 -0.6367
 5678SOL    HW218277   2.677   0.643   6.835  0.2074 -0.1353 -0.5609
 5679SOL     OW18278   5.512   6.169   0.678  0.4734 -0.0774 -0.0715
 5679SOL    HW118279   5.598   6.131   0.692  0.7110  0.2297 -0.6679
 5679SOL    HW218280   5.529   6.262   0.662  0.0038  0.0479  0.1399
 5680SOL     OW18281   1.755   6.857   6.540  0.3831  0.0722 -0.1146
 5680SOL    HW118282   1.815   6.783   6.538  1.2454  0.7583  0.1195
 5680SOL    HW218283   1.687   6.835   6.476 -0.6010 -1.9448  1.5797
 5681SOL     OW18284   7.727   1.338   8.041  0.1336 -0.3653  0.4272
 5681SOL    HW118285   7.649   1.346   8.096  0.3254 -1.2894  0.8347
 5681SOL    HW218286   7.731   1.245   8.017  0.6920 -0.1853 -0.2006
 5682SOL     OW18287   3.483   6.527   0.015 -0.1697  0.0537 -0.5524
 5682SOL    HW118288   3.409   6.467   0.015  1.3489 -1.8910 -1.1659
 5682SOL    HW218289   3.459   6.595  -0.048 -0.9924 -1.1380 -1.5508
 5683SOL     OW18290   2.129   0.067   1.662  0.0251 -0.4345  0.2352
 5683SOL    HW118291   2.208   0.019   1.686 -0.8162 -0.9141  2.1094
 5683SOL    HW218292   2.136   0.150   1.709 -0.2889 -0.2130 -0.1041
 5684SOL     OW18293   3.500   1.836   6.418  0.1129 -0.2703 -0.3327
 5684SOL    HW118294   3.588   1.809   6.394  0.5821  0.1037  0.9310
 5684SOL    HW218295   3.449   1.755   6.419  0.5007 -0.5241 -0.7748
 5685SOL     OW18296   6.895   6.445   3.536 -0.1335 -0.0561  0.0905
 5685SOL    HW118297   6.902   6.350   3.544  0.2861  0.0345  0.8494
 5685SOL    HW218298   6.802   6.463   3.555 -0.0411 -0.2446  0.7569
 5686SOL     OW18299   7.644   3.177   4.759  0.0949  0.1868  0.3038
 5686SOL    HW118300   7.679   3.265   4.742 -0.2376  0.3593  0.5055
 5686SOL    HW218301   7.666   3.161   4.851 -0.7237  0.4677  0.5517
 5687SOL     OW18302   7.234   7.720   7.005 -0.3513 -0.0308  0.0545
 5687SOL    HW118303   7.193   7.803   6.983 -0.0055  0.0458 -0.3150
 5687SOL    HW218304   7.200   7.698   7.091 -0.5967  0.3952  0.0668
 5688SOL     OW18305   1.938   1.027   6.521 -0.0677 -0.1932 -0.6877
 5688SOL    HW118306   1.953   0.981   6.603  0.8329  0.3571 -0.5359
 5688SOL    HW218307   1.852   0.998   6.492 -0.8245  0.3598  0.9632
 5689SOL     OW18308   0.121   7.927   7.064 -0.3537 -0.4144  0.5168
 5689SOL    HW118309   0.179   7.860   7.029 -1.1251 -1.9903  2.1594
 5689SOL    HW218310   0.058   7.944   6.993  0.5511 -0.5616 -0.3241
 5690SOL     OW18311   2.387   0.863   2.858  0.5173 -0.5117 -0.1235
 5690SOL    HW118312   2.402   0.780   2.904  0.9372 -0.3488  0.0421
 5690SOL    HW218313   2.344   0.919   2.923 -1.3959 -1.1870 -0.7994
 5691SOL     OW18314   7.858   4.209   7.810  0.5110  0.3032 -0.2380
 5691SOL    HW118315   7.767   4.199   7.785  0.6833  0.6020 -0.9990
 5691SOL    HW218316   7.903   4.134   7.771  0.3598 -0.6294  1.3445
 5692SOL     OW18317   4.755   6.669   5.644 -0.2963 -0.0213 -0.3856
 5692SOL    HW118318   4.719   6.630   5.724  0.5665 -0.4285 -0.1933
 5692SOL    HW218319   4.818   6.735   5.676  0.0979 -0.2317 -0.7248
 5693SOL     OW18320   3.707   6.155   5.872 -0.3239 -0.2139 -0.8792
 5693SOL    HW118321   3.728   6.096   5.800 -1.5981 -0.3163 -1.1902
 5693SOL    HW218322   3.628   6.116   5.912 -1.1354  1.2349 -1.0453
 5694SOL     OW18323   1.025   1.322   0.839  0.7545 -0.3012  0.3595
 5694SOL    HW118324   1.073   1.280   0.766  0.3923  0.8626 -0.5645
 5694SOL    HW218325   0.981   1.249   0.882  1.7523 -1.1435  0.0080
 5695SOL     OW18326   2.543   7.011   7.785  0.5857  0.0799 -0.9339
 5695SOL    HW118327   2.514   6.948   7.719 -0.8855  0.4253 -0.6563
 5695SOL    HW218328   2.470   7.074   7.790  0.8692  0.3015  0.6943
 5696SOL     OW18329   7.852   1.747   5.856 -0.4241 -0.1613  0.0665
 5696SOL    HW118330   7.765   1.783   5.836 -0.5546  0.0347  0.9867
 5696SOL    HW218331   7.891   1.733   5.770 -0.8665  0.9804 -0.3416
 5697SOL     OW18332   6.679   1.823   0.695 -0.0762 -0.1950 -0.1961
 5697SOL    HW118333   6.690   1.739   0.650  0.2176 -0.5144  0.4663
 5697SOL    HW218334   6.756   1.873   0.671  0.6321 -0.7747  0.8355
 5698SOL     OW18335   7.888   2.073   1.136 -0.0050  0.4130 -0.2800
 5698SOL    HW118336   7.905   2.166   1.151  3.1647  0.2511 -2.4862
 5698SOL    HW218337   7.951   2.028   1.192 -0.7044 -0.4091 -0.1447
 5699SOL     OW18338   3.204   4.602   1.273  0.0378 -0.5291  0.1540
 5699SOL    HW118339   3.130   4.580   1.329  1.4112 -1.3177  1.7086
 5699SOL    HW218340   3.273   4.541   1.300  1.4119  0.5144 -0.9326
 5700SOL     OW18341   8.145   5.472   1.358  0.0554  0.7029  0.2954
 5700SOL    HW118342   8.207   5.426   1.302 -1.1754  1.0399 -1.4146
 5700SOL    HW218343   8.198   5.517   1.423  1.5809  0.9102 -1.0784
 5701SOL     OW18344   0.430   2.269   6.628 -0.5437 -0.3271  0.4070
 5701SOL    HW118345   0.413   2.349   6.578 -0.2574  0.6736  1.8823
 5701SOL    HW218346   0.519   2.244   6.604 -0.6344 -0.2080 -0.0575
 5702SOL     OW18347   2.579   7.828   5.465 -0.3875 -0.2480 -0.4768
 5702SOL    HW118348   2.661   7.788   5.493 -0.0063 -0.7619 -2.2014
 5702SOL    HW218349   2.603   7.915   5.435 -0.6367 -0.0325 -0.0549
 5703SOL     OW18350   1.735   7.519   2.417  0.8973  0.3370  0.3376
 5703SOL    HW118351   1.763   7.449   2.359  0.4408 -0.2292  0.7890
 5703SOL    HW218352   1.639   7.520   2.409  0.9738  1.6769 -0.5455
 5704SOL     OW18353   7.602   2.506   0.082 -0.3237  0.0967 -0.1348
 5704SOL    HW118354   7.663   2.536   0.149  0.8570  0.6145 -1.4217
 5704SOL    HW218355   7.618   2.563   0.007  0.0039 -1.9496 -1.6658
 5705SOL     OW18356   8.229   2.240   2.701  0.6400  0.2000  0.0681
 5705SOL    HW118357   8.238   2.317   2.757  1.5093 -1.1705  1.8766
 5705SOL    HW218358   8.143   2.204   2.722  0.6874  0.0668  0.0421
 5706SOL     OW18359   6.310   5.929   3.250  0.0466  0.0693  0.2963
 5706SOL    HW118360   6.326   5.972   3.334  2.3737  4.3174 -2.1559
 5706SOL    HW218361   6.219   5.952   3.229 -0.3469 -0.4994  1.3432
 5707SOL     OW18362   3.148   2.473   2.058 -0.3318  0.8877 -0.4716
 5707SOL    HW118363   3.165   2.463   2.151  0.3362 -1.0800 -0.7773
 5707SOL    HW218364   3.053   2.474   2.050 -0.4060 -0.9339  0.0525
 5708SOL     OW18365   7.050   7.873   6.748 -0.8487 -0.0093 -0.0583
 5708SOL    HW118366   7.050   7.854   6.655 -1.0345  1.8036 -0.4479
 5708SOL    HW218367   6.959   7.861   6.775  0.0316 -5.4464  0.9952
 5709SOL     OW18368   1.459   2.970   2.861 -0.6854  0.1563  0.1307
 5709SOL    HW118369   1.511   3.048   2.842 -0.3406 -0.3504 -1.0247
 5709SOL    HW218370   1.378   2.982   2.811 -0.6269 -0.2292 -0.0588
 5710SOL     OW18371   3.168   3.098   3.828  0.1706 -0.6340 -0.2561
 5710SOL    HW118372   3.212   3.157   3.767 -0.4235 -1.9794 -2.0693
 5710SOL    HW218373   3.198   3.011   3.802  0.0868 -1.2278  1.5614
 5711SOL     OW18374   3.929   7.482   6.862  0.0760 -0.2187 -0.2023
 5711SOL    HW118375   3.866   7.432   6.915 -0.0847  0.6978  0.4919
 5711SOL    HW218376   3.970   7.416   6.806  0.0789 -1.1766  0.8893
 5712SOL     OW18377   6.103   0.246   1.934 -0.3347  0.1672  0.1417
 5712SOL    HW118378   6.109   0.151   1.926 -1.6360 -0.0172  1.2275
 5712SOL    HW218379   6.171   0.270   1.997  0.2444  0.0134 -0.4141
 5713SOL     OW18380   1.854   0.476   6.156 -0.7871 -0.2185 -0.2631
 5713SOL    HW118381   1.937   0.436   6.130 -0.2793  0.6008  0.0800
 5713SOL    HW218382   1.840   0.546   6.092 -0.8241  0.1384  0.1302
 5714SOL     OW18383   2.403   0.739   7.077 -0.3773 -0.1375  0.6778
 5714SOL    HW118384   2.314   0.704   7.071 -0.5054  0.2485  0.2284
 5714SOL    HW218385   2.453   0.671   7.120 -0.8983 -0.3538  0.9473
 5715SOL     OW18386   6.232   1.809   0.655  0.3999  0.2246  0.0097
 5715SOL    HW118387   6.280   1.773   0.730  0.6624 -0.2894 -0.4022
 5715SOL    HW218388   6.141   1.782   0.670  0.5520 -0.3890 -0.1615
 5716SOL     OW18389   2.887   6.348   0.597 -0.2052 -0.1337  0.3406
 5716SOL    HW118390   2.982   6.335   0.596  0.0901  1.8810 -0.2256
 5716SOL    HW218391   2.876   6.442   0.611 -2.1402 -0.4491  1.1155
 5717SOL     OW18392   6.783   3.583   6.793 -0.0596 -0.1162 -0.5491
 5717SOL    HW118393   6.704   3.619   6.833  0.7115  1.0073  0.0052
 5717SOL    HW218394   6.796   3.498   6.835 -0.4474  0.1146  0.0351
 5718SOL     OW18395   0.675   0.891   4.123 -0.1842 -0.1010 -0.7002
 5718SOL    HW118396   0.599   0.909   4.179 -0.4954 -1.3325 -0.7163
 5718SOL    HW218397   0.666   0.800   4.098  0.1461  0.3431 -2.5087
 5719SOL     OW18398   4.276   4.131   6.091 -0.2815 -0.1446 -0.6914
 5719SOL    HW118399   4.186   4.100   6.078 -0.5061  1.1320 -2.4011
 5719SOL    HW218400   4.265   4.218   6.129  0.2166  0.1951 -1.3158
 5720SOL     OW18401   0.988   3.198   6.539  0.4132 -0.2396  0.2537
 5720SOL    HW118402   0.992   3.286   6.501 -0.8019 -0.6719 -0.9192
 5720SOL    HW218403   1.077   3.165   6.532  0.4298  0.0891 -1.3050
 5721SOL     OW18404   7.580   5.707   3.155  0.1086 -0.2723  0.8273
 5721SOL    HW118405   7.532   5.736   3.078  1.0728 -2.0330 -0.4658
 5721SOL    HW218406   7.619   5.787   3.191  0.6260  0.3991 -1.1810
 5722SOL     OW18407   0.093   3.132   0.906 -0.1340  0.3028  0.3872
 5722SOL    HW118408   0.115   3.095   0.992 -1.1870 -0.2624  0.4158
 5722SOL    HW218409   0.036   3.206   0.926  0.7938  1.0667  0.2468
 5723SOL     OW18410   3.584   0.512   5.230 -0.2735  0.1052  0.8815
 5723SOL    HW118411   3.635   0.559   5.296 -0.9486  1.8189  0.2333
 5723SOL    HW218412   3.503   0.487   5.275 -0.6594  1.1198  0.7771
 5724SOL     OW18413   2.489   3.293   0.942 -0.5006 -0.4551 -0.0478
 5724SOL    HW118414   2.478   3.204   0.909  0.4805  0.3273 -2.5521
 5724SOL    HW218415   2.583   3.303   0.953 -0.4093  1.0647 -2.0764
 5725SOL     OW18416   0.117   3.020   3.226  0.2002 -0.0486 -0.0540
 5725SOL    HW118417   0.122   2.943   3.169  1.5457  0.3832 -0.5386
 5725SOL    HW218418   0.044   3.071   3.190 -0.8691 -1.2264  0.4409
 5726SOL     OW18419   3.294   2.257   1.911  0.1212  0.7010 -0.0682
 5726SOL    HW118420   3.236   2.322   1.950 -2.0715 -1.3710  0.2584
 5726SOL    HW218421   3.256   2.239   1.825  1.5512  0.9118 -0.7601
 5727SOL     OW18422   6.673   1.843   0.353  0.2740  0.5876  0.2086
 5727SOL    HW118423   6.643   1.753   0.363 -0.0914  0.8084  1.0692
 5727SOL    HW218424   6.742   1.838   0.286 -1.7385  0.0981 -1.8799
 5728SOL     OW18425   6.470   7.080   0.126  0.3585  0.8855  0.2900
 5728SOL    HW118426   6.512   7.045   0.047  0.9262  0.5272  0.7494
 5728SOL    HW218427   6.522   7.047   0.198 -0.6758  0.4935  0.8733
 5729SOL     OW18428   0.268   3.087   6.890 -0.1942  1.0364  0.1358
 5729SOL    HW118429   0.350   3.132   6.870 -0.8075  1.0992 -2.3541
 5729SOL    HW218430   0.295   2.998   6.913  0.6920  1.5377  1.1212
 5730SOL     OW18431   3.107   1.036   6.967 -0.1711  0.4480  0.0001
 5730SOL    HW118432   3.044   0.967   6.946 -0.7078  0.7177  0.7150
 5730SOL    HW218433   3.053   1.111   6.993  0.2597  2.1488 -3.6453
 5731SOL     OW18434   2.042   1.013   5.240 -0.4120 -0.3264 -0.2020
 5731SOL    HW118435   2.023   0.968   5.322 -0.7964  1.4303  0.6988
 5731SOL    HW218436   2.127   1.055   5.256 -1.3208  1.4818 -0.0608
 5732SOL     OW18437   2.571   2.197   1.132  0.4068  0.2846 -0.4082
 5732SOL    HW118438   2.555   2.176   1.040 -1.4391 -0.6500  0.1143
 5732SOL    HW218439   2.656   2.157   1.151  1.1911  1.1782 -1.9162
 5733SOL     OW18440   6.499   7.840   5.126  0.1326  0.2875  0.3265
 5733SOL    HW118441   6.439   7.773   5.158 -0.1787 -0.4075 -1.6485
 5733SOL    HW218442   6.443   7.917   5.113 -0.5479 -0.6282 -2.3890
 5734SOL     OW18443   5.953   0.023   2.872 -0.0470  0.4095 -0.4692
 5734SOL    HW118444   5.923  -0.063   2.840  0.8597  0.3037 -1.0671
 5734SOL    HW218445   5.940   0.081   2.797 -2.1732  1.1615  0.4493
 5735SOL     OW18446   4.115   7.687   0.513 -0.2144  0.2585 -0.1205
 5735SOL    HW118447   4.159   7.603   0.506 -1.5135 -0.4048 -0.4314
 5735SOL    HW218448   4.085   7.692   0.604  0.5443  0.7376  0.1079
 5736SOL     OW18449   3.908   1.040   6.294  0.1770 -0.8936 -0.1042
 5736SOL    HW118450   3.918   1.054   6.200  1.0251 -0.6507  0.0179
 5736SOL    HW218451   3.818   1.011   6.304 -0.0134 -0.6181 -0.9582
 5737SOL     OW18452   3.371   0.617   5.771 -0.0985  1.0349 -0.5745
 5737SOL    HW118453   3.414   0.669   5.839 -0.3781  1.7355 -0.9272
 5737SOL    HW218454   3.289   0.587   5.811  0.6120 -0.1280  0.0276
 5738SOL     OW18455   7.924   7.904   6.113 -0.4502  0.4148  0.7744
 5738SOL    HW118456   7.941   7.851   6.191 -1.2925 -3.4779 -1.5268
 5738SOL    HW218457   8.011   7.920   6.075 -0.1942  0.4782  1.3908
 5739SOL     OW18458   4.372   3.320   7.032  0.6930 -0.2400 -0.2723
 5739SOL    HW118459   4.445   3.283   7.082 -0.8764 -0.5206  1.8935
 5739SOL    HW218460   4.305   3.252   7.035  0.1148  0.2579 -1.7373
 5740SOL     OW18461   2.834   4.089   3.737  0.1608  0.2051 -0.2350
 5740SOL    HW118462   2.771   4.139   3.789  0.1651 -0.4307  0.3881
 5740SOL    HW218463   2.919   4.109   3.776  0.1948 -0.0416 -0.1807
 5741SOL     OW18464   1.770   3.053   7.558 -0.1583  0.0174  0.0166
 5741SOL    HW118465   1.864   3.062   7.572 -0.1648  1.1138 -0.5900
 5741SOL    HW218466   1.730   3.118   7.616 -0.4376  0.9395 -1.1975
 5742SOL     OW18467   2.905   1.969   7.587 -0.3746 -0.0185 -0.2928
 5742SOL    HW118468   2.886   2.042   7.529  0.4423  1.1450  0.8832
 5742SOL    HW218469   2.933   1.898   7.528 -0.6522  0.7778 -1.3928
 5743SOL     OW18470   2.187   1.688   0.263  0.2319 -0.3153  0.4853
 5743SOL    HW118471   2.149   1.606   0.294  1.2939 -0.9056  0.2257
 5743SOL    HW218472   2.195   1.677   0.169 -0.7905  0.5807  0.2797
 5744SOL     OW18473   3.993   4.174   0.945  0.1252 -0.2882 -0.1838
 5744SOL    HW118474   4.035   4.239   0.888  0.7831  0.0732  0.6996
 5744SOL    HW218475   4.013   4.090   0.904  1.4917 -0.1031  0.0764
 5745SOL     OW18476   0.264   0.773   6.375  0.0044  0.3387  0.1269
 5745SOL    HW118477   0.265   0.724   6.293 -0.5657  3.1548 -1.6038
 5745SOL    HW218478   0.264   0.865   6.349  3.1025  1.3530  3.2904
 5746SOL     OW18479   2.379   0.978   4.351 -0.1880 -0.4061  0.1259
 5746SOL    HW118480   2.410   0.968   4.441  1.4091 -0.6384 -0.4261
 5746SOL    HW218481   2.365   0.888   4.320  2.7938 -0.5370 -1.0144
 5747SOL     OW18482   3.201   5.569   0.073 -0.1958 -0.5294  0.1332
 5747SOL    HW118483   3.211   5.642   0.134 -0.8124  0.5698 -1.0754
 5747SOL    HW218484   3.110   5.574   0.044 -0.0832 -1.4458 -0.3935
 5748SOL     OW18485   3.108   0.601   3.563  0.1825 -0.5958 -0.6329
 5748SOL    HW118486   3.040   0.668   3.557 -0.5141 -1.2343 -0.0436
 5748SOL    HW218487   3.070   0.526   3.516 -0.3759 -1.6416  1.4413
 5749SOL     OW18488   3.175   0.014   2.682  0.7272 -0.4013 -0.2989
 5749SOL    HW118489   3.107  -0.022   2.626 -0.4129 -0.6732  1.2211
 5749SOL    HW218490   3.257  -0.017   2.644 -0.0053 -0.4586 -1.8714
 5750SOL     OW18491   6.976   8.096   5.703  0.9267  0.3706 -0.2339
 5750SOL    HW118492   7.038   8.049   5.759  0.6654  3.2755  2.6535
 5750SOL    HW218493   6.891   8.057   5.723  1.1636 -0.3174 -0.5417
 5751SOL     OW18494   7.938   2.860   4.959 -0.4390 -0.2588  0.3272
 5751SOL    HW118495   7.879   2.889   4.889  0.2896 -1.9307 -1.0103
 5751SOL    HW218496   8.007   2.927   4.960 -1.4256  0.7782  0.7393
 5752SOL     OW18497   0.440   4.133   0.890  0.7246 -0.3236 -0.0816
 5752SOL    HW118498   0.486   4.216   0.899 -0.7889  0.5689 -0.4027
 5752SOL    HW218499   0.389   4.124   0.970 -0.0278 -0.3472 -0.5488
 5753SOL     OW18500   5.314   2.735   6.256  0.4799  0.4263 -0.0658
 5753SOL    HW118501   5.390   2.677   6.269  0.3293 -0.1649 -1.6942
 5753SOL    HW218502   5.242   2.676   6.238  0.1200  1.0954 -0.8105
 5754SOL     OW18503   0.658   3.665   1.508 -0.4462  0.6194 -0.1490
 5754SOL    HW118504   0.655   3.678   1.413 -0.9980 -0.3300 -0.2603
 5754SOL    HW218505   0.733   3.717   1.537  0.6242 -0.2749 -1.2923
 5755SOL     OW18506   5.396   5.048   6.974  0.0083 -0.2054 -0.1618
 5755SOL    HW118507   5.355   4.964   6.995  2.0163 -0.6345  2.3187
 5755SOL    HW218508   5.477   5.025   6.930 -0.3426  0.5202 -1.2160
 5756SOL     OW18509   2.396   3.947   1.480  0.5414 -0.3540  0.1803
 5756SOL    HW118510   2.437   3.897   1.550  0.8081 -0.4185 -0.0188
 5756SOL    HW218511   2.309   3.970   1.513  1.5558  1.7040  1.5171
 5757SOL     OW18512   0.727   2.418   6.291 -0.1196 -0.0174  0.2683
 5757SOL    HW118513   0.796   2.478   6.320 -0.4908  0.8987 -0.6954
 5757SOL    HW218514   0.726   2.348   6.357 -0.4691  1.6356  2.0749
 5758SOL     OW18515   6.040   7.029   1.365 -0.1749  0.6532  0.2300
 5758SOL    HW118516   6.097   7.056   1.293  1.9944 -0.8480  1.3116
 5758SOL    HW218517   5.967   6.983   1.323  0.8064  0.2365 -1.0438
 5759SOL     OW18518   0.961   3.309   4.377  0.4414 -0.0238 -0.7145
 5759SOL    HW118519   0.901   3.372   4.418  0.5804 -0.0436 -0.4772
 5759SOL    HW218520   0.905   3.256   4.321 -0.0358 -1.1289  0.7850
 5760SOL     OW18521   4.950   0.517   8.032 -0.0513  0.0605  0.2482
 5760SOL    HW118522   4.975   0.568   7.954  1.4359 -2.4870 -1.0196
 5760SOL    HW218523   4.885   0.572   8.077  0.6490  2.5349 -1.6406
 5761SOL     OW18524   3.928   1.620   7.353 -0.5534 -0.3995 -0.0438
 5761SOL    HW118525   3.889   1.702   7.323  0.4648  0.1167  0.0416
 5761SOL    HW218526   4.021   1.628   7.333 -0.4984 -1.6794 -0.3499
 5762SOL     OW18527   3.853   1.006   1.427  0.3374  0.1355 -0.1555
 5762SOL    HW118528   3.945   1.011   1.453 -0.1179  1.6629  1.1984
 5762SOL    HW218529   3.804   1.009   1.509 -1.0216  2.2033 -0.9958
 5763SOL     OW18530   5.822   7.151   7.897 -0.2135 -0.9098  0.3675
 5763SOL    HW118531   5.893   7.148   7.833 -0.7223  0.3476 -0.2568
 5763SOL    HW218532   5.863   7.183   7.977 -0.3418  1.1091 -0.3574
 5764SOL     OW18533   3.901   1.955   6.211  0.3362  0.2183  0.4798
 5764SOL    HW118534   3.897   2.016   6.137 -0.8390  1.5735  1.6514
 5764SOL    HW218535   3.990   1.918   6.206  0.3212  0.3682 -1.5273
 5765SOL     OW18536   1.574   1.459   6.225 -0.0884 -0.1525  0.4272
 5765SOL    HW118537   1.519   1.411   6.162 -0.4627  0.4713  0.2716
 5765SOL    HW218538   1.571   1.550   6.194 -1.8574  0.5077  2.4756
 5766SOL     OW18539   4.043   1.632   2.175 -0.0606  0.2067  0.5272
 5766SOL    HW118540   4.052   1.575   2.099  2.0274  0.5263  0.4883
 5766SOL    HW218541   3.953   1.664   2.171 -0.6081 -1.3914 -0.6346
 5767SOL     OW18542   7.966   3.244   4.062 -0.1863  0.7381  0.2470
 5767SOL    HW118543   7.872   3.255   4.066 -0.1674  0.8558  0.3809
 5767SOL    HW218544   7.987   3.238   3.969 -0.5665 -1.3575  0.2734
 5768SOL     OW18545   7.657   7.385   6.721 -0.4665 -0.1826 -0.3507
 5768SOL    HW118546   7.656   7.464   6.775  3.8023 -0.0189 -0.3356
 5768SOL    HW218547   7.621   7.412   6.637  0.8897  1.7967 -0.3169
 5769SOL     OW18548   0.636   0.980   0.225 -0.1182  0.2073  0.1397
 5769SOL    HW118549   0.628   0.971   0.320 -0.3331  0.2872  0.1289
 5769SOL    HW218550   0.628   1.073   0.208  1.1160  0.3224  0.1507
 5770SOL     OW18551   4.397   0.786   3.737  0.5380  0.1422 -0.3595
 5770SOL    HW118552   4.353   0.737   3.807 -0.4530  1.0312 -0.3470
 5770SOL    HW218553   4.477   0.737   3.720 -0.3788 -1.3996 -0.2564
 5771SOL     OW18554   1.299   3.586   7.903  0.5589 -0.6497  0.3595
 5771SOL    HW118555   1.237   3.516   7.883  0.3625  0.3980 -2.9397
 5771SOL    HW218556   1.286   3.603   7.996 -1.4484 -2.9922  0.5576
 5772SOL     OW18557   2.613   4.089   1.981  0.6526  0.3320 -0.2419
 5772SOL    HW118558   2.664   4.016   1.945  3.0642  1.6189  0.4416
 5772SOL    HW218559   2.545   4.047   2.033  0.1450 -1.4569 -2.2958
 5773SOL     OW18560   2.732   5.590   6.838  0.1538 -0.0650 -0.0856
 5773SOL    HW118561   2.782   5.656   6.792  0.8245 -0.5375 -0.0388
 5773SOL    HW218562   2.791   5.556   6.905 -0.8504  0.7032  1.2111
 5774SOL     OW18563   7.521   4.806   6.883  0.4478  0.4182  0.1593
 5774SOL    HW118564   7.616   4.816   6.889  0.2889  2.3509 -0.2336
 5774SOL    HW218565   7.489   4.832   6.970  0.3431 -1.4226  0.6989
 5775SOL     OW18566   7.757   6.582   0.119 -0.3704  1.0930  0.2760
 5775SOL    HW118567   7.696   6.509   0.133  0.1944  0.1287 -1.9507
 5775SOL    HW218568   7.829   6.544   0.068  1.2670  2.6043  1.3947
 5776SOL     OW18569   5.097   5.732   6.987  0.0901 -0.0136  0.0857
 5776SOL    HW118570   5.165   5.694   7.042 -0.3910 -0.2949  0.4806
 5776SOL    HW218571   5.142   5.753   6.905  0.6454 -0.2228  0.3356
 5777SOL     OW18572   5.703   4.591   2.358  0.0770  0.4735 -0.2574
 5777SOL    HW118573   5.786   4.575   2.403 -0.8159  0.1300  1.3462
 5777SOL    HW218574   5.670   4.673   2.397 -0.1274  0.8379 -1.1880
 5778SOL     OW18575   4.348   7.990   0.550 -0.0280 -0.5721  0.2526
 5778SOL    HW118576   4.273   7.947   0.591  0.1745 -2.5165 -1.3290
 5778SOL    HW218577   4.391   8.037   0.621 -2.2385 -0.1450  1.3475
 5779SOL     OW18578   7.216   3.551   3.579 -0.4796  0.3066 -0.2032
 5779SOL    HW118579   7.134   3.569   3.532 -0.7691 -0.5169 -0.0158
 5779SOL    HW218580   7.232   3.458   3.565  0.8702  0.6257 -0.9363
 5780SOL     OW18581   0.053   6.852   2.135  0.2187  0.1473  0.0052
 5780SOL    HW118582   0.065   6.936   2.090  0.7598 -0.8490 -1.7464
 5780SOL    HW218583  -0.001   6.800   2.076  1.7195 -1.5142  0.0422
 5781SOL     OW18584   3.826   3.756   4.615 -0.4003  0.5456 -0.0525
 5781SOL    HW118585   3.869   3.801   4.688  0.8408  0.0421 -0.4525
 5781SOL    HW218586   3.764   3.820   4.580  1.0192  1.7964 -0.3275
 5782SOL     OW18587   4.502   1.111   3.050 -0.0831  0.4212 -0.4697
 5782SOL    HW118588   4.475   1.149   2.966 -0.8257  0.6666 -0.1170
 5782SOL    HW218589   4.426   1.121   3.107  0.7241  1.0700  0.5101
 5783SOL     OW18590   1.755   2.105   5.461  0.2846  0.1901 -0.5546
 5783SOL    HW118591   1.826   2.164   5.487  0.3643 -0.5459  0.9789
 5783SOL    HW218592   1.704   2.092   5.542 -0.0344 -1.3951 -0.9939
 5784SOL     OW18593   0.195   0.446   5.854  0.9479 -0.3237 -0.3423
 5784SOL    HW118594   0.171   0.482   5.940 -1.3683  1.6624 -1.7782
 5784SOL    HW218595   0.167   0.354   5.858  1.5668 -0.4592  1.2773
 5785SOL     OW18596   7.438   5.105   5.660 -0.3567  0.1981 -0.3528
 5785SOL    HW118597   7.386   5.125   5.581  0.5077  1.5333 -0.6027
 5785SOL    HW218598   7.379   5.126   5.732 -1.0606 -0.7652 -0.6470
 5786SOL     OW18599   3.641   7.781   4.070  0.0146 -0.5666  0.0004
 5786SOL    HW118600   3.600   7.856   4.112 -0.0840 -1.1087  0.8952
 5786SOL    HW218601   3.729   7.811   4.047 -0.7085  0.4518 -1.5148
 5787SOL     OW18602   3.754   5.743   2.094 -0.0315  0.3646 -0.4145
 5787SOL    HW118603   3.808   5.680   2.046  2.2029  0.5137  1.7967
 5787SOL    HW218604   3.699   5.689   2.151  0.0451  0.3264 -0.3768
 5788SOL     OW18605   2.953   0.070   4.265 -0.1798 -0.3100 -0.2272
 5788SOL    HW118606   2.996   0.035   4.343  0.8452 -1.4336 -1.2751
 5788SOL    HW218607   3.014   0.052   4.193 -0.4518  2.0166 -1.0787
 5789SOL     OW18608   7.038   4.295   2.146  0.4971 -0.9241  0.1352
 5789SOL    HW118609   7.009   4.291   2.238  0.5017  2.1287  0.3462
 5789SOL    HW218610   7.006   4.214   2.107 -1.0385 -1.4818  2.4260
 5790SOL     OW18611   2.116   1.586   6.548  0.0847  0.5738 -0.2966
 5790SOL    HW118612   2.052   1.647   6.584 -0.4113 -0.0440 -0.1403
 5790SOL    HW218613   2.078   1.500   6.562  1.1065  0.1829  0.1030
 5791SOL     OW18614   5.141   3.043   7.330 -0.1859  0.4499 -0.2267
 5791SOL    HW118615   5.098   3.119   7.367 -0.5214  1.4844 -2.6465
 5791SOL    HW218616   5.129   2.974   7.395 -1.0477  2.0843  1.3798
 5792SOL     OW18617   2.884   7.260   1.165 -0.2713  0.4452  0.1607
 5792SOL    HW118618   2.874   7.212   1.083  1.0151  0.1202  0.1761
 5792SOL    HW218619   2.832   7.339   1.154  0.8204  0.9647 -1.4309
 5793SOL     OW18620   4.002   7.555   5.016 -0.4175  0.3318  0.3828
 5793SOL    HW118621   3.942   7.498   5.064  0.4350 -0.7698  0.1731
 5793SOL    HW218622   4.051   7.601   5.084 -0.8535  0.5443  0.5555
 5794SOL     OW18623   2.297   2.178   0.451 -0.5485 -0.1894  0.2203
 5794SOL    HW118624   2.234   2.106   0.444 -1.4243  0.5500  0.3923
 5794SOL    HW218625   2.383   2.135   0.453 -1.0406 -1.2029 -0.0793
 5795SOL     OW18626   3.668   7.217   6.389 -0.1685 -0.0986 -0.1346
 5795SOL    HW118627   3.636   7.294   6.437 -1.5786 -0.6098 -0.2069
 5795SOL    HW218628   3.740   7.184   6.442  0.6091  1.4085 -0.2335
 5796SOL     OW18629   6.263   1.777   3.518 -0.1637 -0.2185 -0.1307
 5796SOL    HW118630   6.345   1.824   3.536 -0.3062  0.3768 -1.0345
 5796SOL    HW218631   6.227   1.820   3.441 -1.4627 -0.3118  0.4197
 5797SOL     OW18632   5.678   3.694   1.042  0.3616  0.1746 -0.2204
 5797SOL    HW118633   5.624   3.622   1.074  1.0736 -1.3621 -2.3743
 5797SOL    HW218634   5.619   3.747   0.989 -0.2192  1.3601  1.5492
 5798SOL     OW18635   4.238   2.890   3.829  0.1830 -0.3333 -0.2268
 5798SOL    HW118636   4.247   2.883   3.734  1.1889 -2.3800 -0.0035
 5798SOL    HW218637   4.190   2.811   3.854  0.4765 -0.1148  1.0433
 5799SOL     OW18638   3.286   1.167   8.185  0.4877 -0.0294 -0.0700
 5799SOL    HW118639   3.356   1.223   8.219 -1.0046  0.5984  2.1034
 5799SOL    HW218640   3.218   1.229   8.159  0.5960 -0.6561 -1.8729
 5800SOL     OW18641   0.689   0.367   5.244  0.0656  0.0078 -0.7931
 5800SOL    HW118642   0.700   0.379   5.339  0.7668 -0.1412 -0.8550
 5800SOL    HW218643   0.767   0.406   5.205  0.8360 -1.8590 -1.1712
 5801SOL     OW18644   2.375   4.968   4.821 -0.3088  0.4177  0.1443
 5801SOL    HW118645   2.314   4.999   4.888 -1.9689  0.0056 -1.1146
 5801SOL    HW218646   2.349   5.016   4.742  0.1507 -0.7290 -0.7081
 5802SOL     OW18647   7.237   7.786   3.644  0.0242  0.1252 -0.3276
 5802SOL    HW118648   7.244   7.861   3.703 -1.7776 -0.0721  0.1550
 5802SOL    HW218649   7.259   7.821   3.558 -0.6160  1.1652 -0.0684
 5803SOL     OW18650   3.211   4.251   4.166  0.1173 -0.4369  0.0443
 5803SOL    HW118651   3.264   4.178   4.134  0.2960 -0.2859 -0.0020
 5803SOL    HW218652   3.127   4.211   4.190 -0.1299 -0.4961 -0.9094
 5804SOL     OW18653   4.887   4.963   1.865 -0.4393 -0.2794 -0.3025
 5804SOL    HW118654   4.837   4.883   1.882  1.9923 -1.3854  2.1648
 5804SOL    HW218655   4.973   4.931   1.836  0.5952  1.4197  0.8154
 5805SOL     OW18656   7.105   2.555   5.079  0.1450 -0.0367 -0.1740
 5805SOL    HW118657   7.179   2.508   5.042 -0.0573 -1.5058  1.2279
 5805SOL    HW218658   7.142   2.609   5.148 -0.0439 -0.6330  0.4049
 5806SOL     OW18659   6.258   6.955   6.031  0.4299  0.0877 -0.0044
 5806SOL    HW118660   6.300   6.951   6.117  1.4431  1.0862 -0.4409
 5806SOL    HW218661   6.316   7.011   5.979  0.1115 -0.9459 -1.4991
 5807SOL     OW18662   8.298   4.039   3.884  0.4476  0.2470 -0.2983
 5807SOL    HW118663   8.324   4.126   3.853  0.2874  0.4012 -0.0111
 5807SOL    HW218664   8.380   3.993   3.900  0.5391  0.5625  0.1406
 5808SOL     OW18665   0.891   0.229   6.360  0.4846  0.5166  0.7098
 5808SOL    HW118666   0.836   0.294   6.404  0.1611 -0.3479  1.5985
 5808SOL    HW218667   0.946   0.193   6.429  0.6250 -0.1946  0.2341
 5809SOL     OW18668   3.436   2.016   1.474  0.1917 -0.0148  0.7304
 5809SOL    HW118669   3.467   1.933   1.438  0.3943  0.4311 -0.1229
 5809SOL    HW218670   3.386   1.991   1.552  1.3046 -0.8505  1.1906
 5810SOL     OW18671   2.839   3.962   0.721  0.0309  0.1885 -0.0031
 5810SOL    HW118672   2.930   3.934   0.719 -0.2053 -0.6474  0.5774
 5810SOL    HW218673   2.821   3.978   0.814 -0.4019  0.3763 -0.1199
 5811SOL     OW18674   3.344   6.183   3.309 -0.1943 -0.3124  0.2157
 5811SOL    HW118675   3.305   6.151   3.228  2.8216  0.7140 -1.7280
 5811SOL    HW218676   3.337   6.279   3.302  1.1253 -0.1812  0.6258
 5812SOL     OW18677   1.571   2.942   1.720 -0.0009 -0.0139  0.0782
 5812SOL    HW118678   1.561   3.032   1.753 -1.2697 -0.0308 -0.2030
 5812SOL    HW218679   1.640   2.949   1.654 -0.7730  0.9702 -0.6544
 5813SOL     OW18680   6.719   2.402   7.504  0.1531  0.5550  0.2416
 5813SOL    HW118681   6.635   2.375   7.469  0.2090  0.9231 -0.1879
 5813SOL    HW218682   6.698   2.467   7.571 -0.0152 -1.0075  1.7361
 5814SOL     OW18683   3.406   6.333   8.112 -0.3623 -0.4973  0.1686
 5814SOL    HW118684   3.496   6.356   8.136 -0.7204  0.7797  0.3382
 5814SOL    HW218685   3.370   6.291   8.190 -0.9222  1.9403  1.2849
 5815SOL     OW18686   7.847   4.002   7.608 -0.1031 -0.2472 -0.0451
 5815SOL    HW118687   7.862   3.950   7.529  1.6336 -0.8276  0.6541
 5815SOL    HW218688   7.854   3.940   7.680  0.6369  0.6954  0.7130
 5816SOL     OW18689   4.145   0.777   0.580  0.1774 -0.1851  0.2389
 5816SOL    HW118690   4.210   0.715   0.614  0.7462  0.4098  0.2406
 5816SOL    HW218691   4.069   0.765   0.637  0.2903 -0.8512  0.2643
 5817SOL     OW18692   3.767   5.914   6.559 -0.6347 -0.2687 -0.6659
 5817SOL    HW118693   3.721   5.830   6.562 -2.8061  0.9115 -0.3796
 5817SOL    HW218694   3.704   5.978   6.591  0.3462  1.7646 -2.6517
 5818SOL     OW18695   6.285   6.438   7.764 -0.2600  0.1750 -0.0765
 5818SOL    HW118696   6.322   6.467   7.847 -0.3089 -0.7889  0.2914
 5818SOL    HW218697   6.190   6.437   7.780 -0.3604  1.4182 -0.6123
 5819SOL     OW18698   4.665   2.770   8.099 -0.1557  0.2165  0.5609
 5819SOL    HW118699   4.682   2.684   8.062  0.9501  0.3778  0.6855
 5819SOL    HW218700   4.573   2.768   8.124 -0.1052 -0.9600  0.6550
 5820SOL     OW18701   1.976   0.211   4.144  0.1161 -0.9267  0.0135
 5820SOL    HW118702   1.972   0.220   4.049  1.0939  0.3129  0.0783
 5820SOL    HW218703   2.052   0.262   4.170 -1.1016  0.1413  1.6209
 5821SOL     OW18704   0.181   1.170   0.444  0.1301 -0.7440 -0.5161
 5821SOL    HW118705   0.216   1.154   0.356 -2.9245  1.3648 -2.2100
 5821SOL    HW218706   0.110   1.106   0.454  0.7582 -1.2766  0.6153
 5822SOL     OW18707   0.876   2.842   7.355  0.0923  0.5550  0.4900
 5822SOL    HW118708   0.959   2.807   7.324  0.7000  3.3392 -1.1159
 5822SOL    HW218709   0.899   2.897   7.430 -0.4325  0.4534  0.7326
 5823SOL     OW18710   4.231   7.727   1.571 -0.2540  0.4954  0.5024
 5823SOL    HW118711   4.136   7.727   1.580 -0.2968 -1.5007  0.4361
 5823SOL    HW218712   4.264   7.704   1.658 -0.0023 -1.9400 -0.1800
 5824SOL     OW18713   8.193   0.309   1.087 -0.3115  0.5889  0.0164
 5824SOL    HW118714   8.176   0.389   1.039 -3.5317 -0.9207 -1.5758
 5824SOL    HW218715   8.238   0.252   1.025 -3.7384 -1.0562 -1.1439
 5825SOL     OW18716   0.815   1.142   4.460 -0.9730  0.1860 -0.0922
 5825SOL    HW118717   0.750   1.181   4.401  0.5990  0.5122 -1.6497
 5825SOL    HW218718   0.785   1.052   4.472 -2.5707  0.7761  0.4932
 5826SOL     OW18719   8.122   2.318   3.510 -0.2146  0.1532  0.0278
 5826SOL    HW118720   8.161   2.356   3.589 -1.1080  2.1723 -0.4569
 5826SOL    HW218721   8.028   2.324   3.525 -0.3809 -0.2953 -0.8105
 5827SOL     OW18722   2.335   1.420   2.190  0.7060 -0.2136 -0.2000
 5827SOL    HW118723   2.399   1.386   2.252  0.0841  0.9939  1.1272
 5827SOL    HW218724   2.315   1.346   2.132  3.0562 -0.6786 -0.4411
 5828SOL     OW18725   8.127   6.605   2.024 -0.7202  0.5625  0.5725
 5828SOL    HW118726   8.076   6.527   2.047 -0.9579  0.4316 -0.3645
 5828SOL    HW218727   8.138   6.599   1.929  0.3131  1.0423  0.6592
 5829SOL     OW18728   2.465   6.450   3.013 -0.3403 -0.6150  0.1401
 5829SOL    HW118729   2.533   6.419   2.953 -0.6280  1.8611 -1.5438
 5829SOL    HW218730   2.388   6.399   2.989  0.1685 -1.3976  0.1133
 5830SOL     OW18731   5.319   5.264   7.146 -0.3146 -0.2084  0.2950
 5830SOL    HW118732   5.373   5.201   7.098 -0.5524 -0.7267  0.7148
 5830SOL    HW218733   5.234   5.261   7.102 -1.1425 -2.1223  1.9575
 5831SOL     OW18734   1.102   5.676   0.166 -0.3990  0.1123  0.5403
 5831SOL    HW118735   1.117   5.750   0.108  2.3965 -1.6502 -1.0628
 5831SOL    HW218736   1.065   5.715   0.245 -2.8735  2.7163 -1.8103
 5832SOL     OW18737   2.200   1.308   4.089  0.2957  0.4518  0.1808
 5832SOL    HW118738   2.141   1.233   4.090  0.2027  0.4907 -0.9503
 5832SOL    HW218739   2.184   1.349   4.003  1.1878  1.0769  0.3096
 5833SOL     OW18740   1.072   4.309   8.167  0.1219 -0.1532  0.0028
 5833SOL    HW118741   1.117   4.393   8.175  1.6423 -0.8626 -0.8541
 5833SOL    HW218742   1.037   4.292   8.254  0.9354  0.7429  0.5116
 5834SOL     OW18743   4.636   8.241   6.886 -0.4033  0.1387 -0.2837
 5834SOL    HW118744   4.662   8.317   6.833 -0.0206  1.7488  2.1551
 5834SOL    HW218745   4.541   8.234   6.873 -0.4854  1.1998 -0.3066
 5835SOL     OW18746   2.365   0.139   0.139  0.8679  0.0894 -0.2492
 5835SOL    HW118747   2.371   0.146   0.043  0.0256  1.9893 -0.1915
 5835SOL    HW218748   2.395   0.225   0.170 -0.3502  0.0171  1.1274
 5836SOL     OW18749   3.794   5.439   8.115 -0.2297  0.5939  0.4326
 5836SOL    HW118750   3.723   5.460   8.055  1.4852  0.2736 -1.7936
 5836SOL    HW218751   3.784   5.346   8.134 -0.0460  0.4102 -0.3698
 5837SOL     OW18752   2.380   4.923   1.475  0.3254  0.9988 -0.0894
 5837SOL    HW118753   2.455   4.874   1.440  0.3713  0.9320  0.1046
 5837SOL    HW218754   2.400   5.014   1.455  1.5385  1.2241  1.9384
 5838SOL     OW18755   6.134   5.842   0.728 -0.5888  0.5638  0.2916
 5838SOL    HW118756   6.121   5.759   0.772  0.1725  0.2429 -0.0715
 5838SOL    HW218757   6.085   5.835   0.647  0.9109 -0.2337 -0.5786
 5839SOL     OW18758   3.885   3.334   2.471  0.1625  0.5841  0.2836
 5839SOL    HW118759   3.889   3.427   2.494  0.4242  0.0522  2.4899
 5839SOL    HW218760   3.923   3.329   2.383  1.6268  2.3503  0.7923
 5840SOL     OW18761   0.934   4.730   7.172  0.3813 -0.3274  0.7011
 5840SOL    HW118762   0.909   4.656   7.228  0.9304 -0.0785  1.2898
 5840SOL    HW218763   0.973   4.793   7.232  0.1367  0.3394  0.1606
 5841SOL     OW18764   7.567   0.127   6.729  0.8394 -0.6365  0.2372
 5841SOL    HW118765   7.488   0.176   6.710 -0.0813 -1.8991  0.7134
 5841SOL    HW218766   7.575   0.130   6.825  0.1928 -2.2410  0.3684
 5842SOL     OW18767   0.755   2.034   8.195 -0.4726  0.1091 -0.2239
 5842SOL    HW118768   0.789   2.018   8.107 -0.1523  0.6876 -0.2036
 5842SOL    HW218769   0.822   1.999   8.253 -0.1687  0.7505 -0.1917
 5843SOL     OW18770   3.109   8.300   4.471 -0.4558 -0.2071  0.3067
 5843SOL    HW118771   3.094   8.337   4.558  1.5907 -1.0481  1.0459
 5843SOL    HW218772   3.165   8.224   4.486 -0.3880 -0.5926 -1.7159
 5844SOL     OW18773   4.525   6.803   7.481 -0.2627  0.6788 -0.6517
 5844SOL    HW118774   4.596   6.827   7.541  0.5270 -1.4581 -0.6838
 5844SOL    HW218775   4.502   6.713   7.505 -0.4605  0.0451 -3.0061
 5845SOL     OW18776   8.288   5.492   2.110 -0.2241 -0.3026 -0.1699
 5845SOL    HW118777   8.243   5.408   2.108  0.9496 -0.9558  0.1164
 5845SOL    HW218778   8.338   5.490   2.192  2.0479 -0.5357 -1.5136
 5846SOL     OW18779   6.472   5.713   0.863 -0.1541  0.3716 -0.9362
 5846SOL    HW118780   6.405   5.719   0.794 -1.3837  2.7475  0.3724
 5846SOL    HW218781   6.471   5.621   0.890 -2.3833  0.1934 -1.4832
 5847SOL     OW18782   6.039   1.488   5.768 -0.9706  0.6626 -0.2757
 5847SOL    HW118783   6.081   1.510   5.685 -3.7570  0.3659 -1.8047
 5847SOL    HW218784   6.068   1.398   5.786 -1.1394  0.3556 -1.4622
 5848SOL     OW18785   1.150   6.520   2.982 -0.5347  0.2146  0.5301
 5848SOL    HW118786   1.054   6.519   2.986 -0.5416 -2.4269  0.6638
 5848SOL    HW218787   1.170   6.495   2.892  0.0576  1.0908  0.4083
 5849SOL     OW18788   2.977   7.138   0.939  0.1938  0.3213  0.4627
 5849SOL    HW118789   2.995   7.044   0.940  0.2584  0.2726 -2.2661
 5849SOL    HW218790   3.063   7.178   0.949  0.2373  0.0930  1.0200
 5850SOL     OW18791   5.489   2.594   3.111  0.2824 -0.2809 -0.0942
 5850SOL    HW118792   5.469   2.575   3.020 -0.2202  0.0322 -0.0491
 5850SOL    HW218793   5.448   2.522   3.160 -3.1638  1.7959  0.2213
 5851SOL     OW18794   6.217   7.136   4.272 -0.8263 -0.2123  0.0122
 5851SOL    HW118795   6.278   7.193   4.226  0.6423 -0.6497  1.3744
 5851SOL    HW218796   6.273   7.073   4.318 -2.0570  2.0322  4.8501
 5852SOL     OW18797   0.182   7.974   0.210  0.5147 -0.4955  0.2197
 5852SOL    HW118798   0.229   8.034   0.153  1.4670 -0.3115  1.1753
 5852SOL    HW218799   0.243   7.957   0.282 -0.6540 -0.7498  1.1620
 5853SOL     OW18800   7.175   7.760   4.301  0.1922  0.1671 -0.1404
 5853SOL    HW118801   7.256   7.804   4.326 -0.0798 -0.2359  1.5012
 5853SOL    HW218802   7.191   7.667   4.318 -1.0744  0.2321  1.4992
 5854SOL     OW18803   2.375   6.886   0.552  0.3522 -0.1967 -0.2414
 5854SOL    HW118804   2.283   6.861   0.565 -0.1755  0.0423 -3.2183
 5854SOL    HW218805   2.380   6.975   0.589 -0.6503 -0.1312 -0.2353
 5855SOL     OW18806   0.543   7.307   6.977 -0.4468  0.2962 -0.9688
 5855SOL    HW118807   0.507   7.223   7.008  2.3684 -0.7555 -0.3811
 5855SOL    HW218808   0.516   7.370   7.044  0.5275 -0.8590  0.5631
 5856SOL     OW18809   6.974   2.414   8.275 -0.6251 -0.6123 -0.0996
 5856SOL    HW118810   7.064   2.428   8.245 -1.2838  4.1622 -0.3608
 5856SOL    HW218811   6.925   2.394   8.195 -0.3604  0.4488 -0.5469
 5857SOL     OW18812   5.875   5.195   7.475 -0.0960  0.3083  0.4959
 5857SOL    HW118813   5.922   5.159   7.550  0.4277  0.2692  0.1431
 5857SOL    HW218814   5.844   5.119   7.426  0.4173  0.3387  0.1269
 5858SOL     OW18815   6.228   0.714   3.700  0.1203  0.0011 -0.2353
 5858SOL    HW118816   6.217   0.762   3.618 -0.6687  0.5119  0.1522
 5858SOL    HW218817   6.292   0.646   3.681 -0.4959 -0.2497 -1.4336
 5859SOL     OW18818   3.210   4.401   0.977  0.0531  0.2570 -0.1157
 5859SOL    HW118819   3.302   4.375   0.973  0.1496  0.4568  0.8312
 5859SOL    HW218820   3.164   4.323   1.006 -0.1204  0.0635 -0.9028
 5860SOL     OW18821   7.005   8.082   6.364  0.0690 -0.1788 -0.4104
 5860SOL    HW118822   6.973   8.006   6.412  0.6040  0.2856  0.6873
 5860SOL    HW218823   6.981   8.157   6.418 -0.1737  0.4131 -1.3347
 5861SOL     OW18824   1.056   3.049   0.998  0.3191  0.2929  0.0057
 5861SOL    HW118825   0.984   3.040   0.935  0.7019  1.2581 -0.5890
 5861SOL    HW218826   1.040   2.980   1.062 -0.1078 -0.6978 -1.1292
 5862SOL     OW18827   5.094   4.321   0.343 -0.3403  0.0637 -0.6253
 5862SOL    HW118828   5.158   4.250   0.348  0.8525  1.0727 -1.1285
 5862SOL    HW218829   5.052   4.310   0.258 -1.2483 -0.9360 -0.0551
 5863SOL     OW18830   5.027   0.322   1.097  0.1765 -0.0672  0.2596
 5863SOL    HW118831   5.054   0.412   1.113 -1.6006  0.5505 -0.1513
 5863SOL    HW218832   5.014   0.284   1.184  0.2076  0.3014  0.4224
 5864SOL     OW18833   5.694   3.885   2.392  0.0051  0.4846 -0.5718
 5864SOL    HW118834   5.757   3.859   2.325  1.8245  0.8251  0.9424
 5864SOL    HW218835   5.679   3.804   2.442 -1.6755  0.1264 -1.6125
 5865SOL     OW18836   0.092   0.575   6.110 -0.6840  0.1474 -0.2147
 5865SOL    HW118837   0.063   0.643   6.049 -0.7687  0.7959  0.5247
 5865SOL    HW218838   0.013   0.523   6.127 -0.8061  0.3383 -0.1908
 5866SOL     OW18839   3.654   4.749   7.042  0.2944  0.4974  0.2425
 5866SOL    HW118840   3.660   4.732   7.136 -0.1662  1.1108  0.3860
 5866SOL    HW218841   3.656   4.844   7.034  0.2844  0.4520 -0.3663
 5867SOL     OW18842   8.158   7.331   6.806  0.2141 -0.5638  0.1198
 5867SOL    HW118843   8.083   7.347   6.863 -1.3279  0.2189 -2.0223
 5867SOL    HW218844   8.124   7.348   6.718  2.6376 -1.2488 -0.9862
 5868SOL     OW18845   5.949   5.306   5.707  0.7556  0.1511 -0.0338
 5868SOL    HW118846   5.940   5.212   5.721  0.2409  0.1228 -0.5553
 5868SOL    HW218847   6.040   5.317   5.678  0.6772 -0.2323 -0.4162
 5869SOL     OW18848   6.535   2.230   6.678 -0.0664 -0.1729 -0.2159
 5869SOL    HW118849   6.588   2.290   6.626 -0.5091 -0.4650 -1.0166
 5869SOL    HW218850   6.590   2.153   6.689  0.3988  0.2592  0.5838
 5870SOL     OW18851   8.270   2.347   3.754  0.4092 -0.2351 -0.3468
 5870SOL    HW118852   8.267   2.410   3.826 -1.0249 -0.7685  0.0753
 5870SOL    HW218853   8.253   2.263   3.796  0.8472 -0.7146 -1.1320
 5871SOL     OW18854   3.503   1.939   3.548  0.1684  0.0246  0.1920
 5871SOL    HW118855   3.506   2.024   3.506 -0.5226  0.8436  1.7677
 5871SOL    HW218856   3.440   1.949   3.619  0.3696 -1.6819  0.6464
 5872SOL     OW18857   5.729   2.476   2.527  0.5095  0.3044 -0.4298
 5872SOL    HW118858   5.674   2.548   2.556 -1.1700 -0.8830 -0.6128
 5872SOL    HW218859   5.768   2.506   2.446  1.2318  1.6830  0.4083
 5873SOL     OW18860   6.321   1.132   3.612  0.3208  0.5272  0.2427
 5873SOL    HW118861   6.243   1.082   3.587 -0.5266  0.9363  1.9689
 5873SOL    HW218862   6.297   1.223   3.597  0.3199  0.6804  1.1608
 5874SOL     OW18863   2.620   1.208   7.896 -0.4579  0.1987  0.3561
 5874SOL    HW118864   2.649   1.119   7.916 -0.6838  0.3243  1.3142
 5874SOL    HW218865   2.526   1.206   7.915 -0.5334  0.5352  0.0041
 5875SOL     OW18866   2.373   7.204   4.997 -0.5456 -0.0747  0.2731
 5875SOL    HW118867   2.337   7.274   4.944 -0.0546  0.1414  0.2226
 5875SOL    HW218868   2.410   7.142   4.933  0.8770  0.6395  0.3862
 5876SOL     OW18869   3.189   4.184   2.810  0.5118  0.3255 -0.0228
 5876SOL    HW118870   3.260   4.222   2.759 -0.9835  1.9400 -0.9703
 5876SOL    HW218871   3.179   4.095   2.775  3.1368 -0.5366  1.2797
 5877SOL     OW18872   1.287   7.033   1.924 -0.0454 -0.4060 -0.3493
 5877SOL    HW118873   1.373   7.073   1.922  0.1511 -0.7514  0.6266
 5877SOL    HW218874   1.249   7.052   1.838  0.1324  1.6335  0.0033
 5878SOL     OW18875   3.882   2.758   2.861 -0.4154 -0.7631  0.3150
 5878SOL    HW118876   3.801   2.719   2.894 -0.8974 -0.5602 -0.6023
 5878SOL    HW218877   3.861   2.782   2.771 -0.1774  1.7884  0.9176
 5879SOL     OW18878   0.487   8.053   8.066  0.3618 -0.4363 -0.4552
 5879SOL    HW118879   0.460   8.111   8.137  0.4776  0.0055 -0.7666
 5879SOL    HW218880   0.582   8.047   8.073  0.3804 -0.3425 -0.6050
 5880SOL     OW18881   6.576   2.954   8.025  0.6131 -0.2458  0.2158
 5880SOL    HW118882   6.637   2.881   8.017  0.5522 -0.3726  0.8288
 5880SOL    HW218883   6.626   3.024   8.068 -0.0487 -0.8436  2.0332
 5881SOL     OW18884   2.296   7.193   2.427  0.0522 -0.4526 -0.0253
 5881SOL    HW118885   2.211   7.174   2.467  0.0046 -1.5314 -0.6225
 5881SOL    HW218886   2.360   7.155   2.486  0.0736 -0.5091 -0.0850
 5882SOL     OW18887   1.042   1.309   5.709 -0.2277  0.1459 -0.6834
 5882SOL    HW118888   1.073   1.239   5.766 -1.4007 -0.7256 -1.0840
 5882SOL    HW218889   1.120   1.359   5.687  0.4137 -0.2095  0.7348
 5883SOL     OW18890   4.637   0.927   6.730  0.0327 -0.7789  0.6896
 5883SOL    HW118891   4.601   0.970   6.652 -2.8634 -1.0488  1.8022
 5883SOL    HW218892   4.561   0.914   6.787  1.8935 -1.7011  3.0462
 5884SOL     OW18893   1.357   4.174   4.353  0.6012  0.2383  0.2493
 5884SOL    HW118894   1.399   4.114   4.292 -0.1201  0.3374 -0.3575
 5884SOL    HW218895   1.298   4.119   4.404  0.1150  0.3822 -0.1478
 5885SOL     OW18896   2.463   7.503   6.692 -0.1291  0.0738 -0.4038
 5885SOL    HW118897   2.423   7.416   6.685  0.4487 -0.1652 -0.7445
 5885SOL    HW218898   2.401   7.560   6.646  0.1503 -0.3791 -1.3788
 5886SOL     OW18899   6.275   4.903   5.492 -0.0586 -0.0713  0.1290
 5886SOL    HW118900   6.280   4.835   5.425 -0.1875  2.0658 -2.1327
 5886SOL    HW218901   6.216   4.867   5.559 -2.1072 -1.2036 -2.2132
 5887SOL     OW18902   1.652   0.919   1.845 -0.2807 -0.1601  0.0484
 5887SOL    HW118903   1.604   0.947   1.923 -1.9249 -1.0033 -0.6387
 5887SOL    HW218904   1.702   0.842   1.873 -0.9032 -0.4882  0.2641
 5888SOL     OW18905   2.814   8.070   4.265 -0.1242  0.4749  0.1306
 5888SOL    HW118906   2.761   7.993   4.242  1.1767 -0.0410 -1.2155
 5888SOL    HW218907   2.782   8.139   4.206  0.3607  0.2946 -0.3471
 5889SOL     OW18908   1.325   1.542   0.167  0.1182  0.5790  0.0705
 5889SOL    HW118909   1.320   1.549   0.262 -1.2925 -1.7016  0.1954
 5889SOL    HW218910   1.236   1.554   0.137  0.1021 -1.2943 -0.7348
 5890SOL     OW18911   5.716   2.931   1.639 -0.0997  0.1724 -0.1541
 5890SOL    HW118912   5.776   3.005   1.627  0.8638 -0.4689  0.6993
 5890SOL    HW218913   5.644   2.966   1.691  0.8406  0.2683  1.1020
 5891SOL     OW18914   1.617   6.479   6.281 -0.1324  0.3405  0.7842
 5891SOL    HW118915   1.546   6.490   6.218  0.8843  1.0079 -0.2785
 5891SOL    HW218916   1.669   6.406   6.246 -0.2545 -0.0959  1.5090
 5892SOL     OW18917   5.646   5.703   0.972 -0.1188  0.0957  0.0157
 5892SOL    HW118918   5.609   5.784   1.006  0.5141  0.5786 -0.4405
 5892SOL    HW218919   5.571   5.644   0.964 -0.7693  1.0150 -0.7410
 5893SOL     OW18920   2.924   0.663   2.266 -0.1854  0.0626 -0.1449
 5893SOL    HW118921   2.989   0.733   2.259 -3.4468  3.0983 -1.5183
 5893SOL    HW218922   2.914   0.650   2.360  0.8925  1.0568  0.1260
 5894SOL     OW18923   6.819   3.048   0.329  0.2359 -0.0439 -0.0420
 5894SOL    HW118924   6.906   3.087   0.340  0.7800 -1.6448  1.5631
 5894SOL    HW218925   6.793   3.072   0.240  2.6936 -0.2707 -0.8685
 5895SOL     OW18926   3.013   0.380   2.665  0.3258  0.1137 -0.3735
 5895SOL    HW118927   3.084   0.345   2.612 -0.1655 -0.8563 -0.3986
 5895SOL    HW218928   2.983   0.306   2.718  0.3515  0.9032  0.7560
 5896SOL     OW18929   8.197   0.606   7.397 -0.8035 -0.3136  0.3675
 5896SOL    HW118930   8.133   0.619   7.326 -0.8900 -1.4755  0.2264
 5896SOL    HW218931   8.269   0.559   7.355  0.2066  1.0749  0.5008
 5897SOL     OW18932   2.717   5.038   3.515  0.9171 -0.0233 -0.1738
 5897SOL    HW118933   2.707   5.017   3.608  1.0599  1.2416  0.1323
 5897SOL    HW218934   2.628   5.060   3.487  1.0189  0.4645 -0.1175
 5898SOL     OW18935   5.286   1.747   7.921  0.4205 -0.2018 -0.8853
 5898SOL    HW118936   5.292   1.804   7.844  0.0131  1.3414  0.2081
 5898SOL    HW218937   5.373   1.706   7.927  1.5312  2.1546 -0.2965
 5899SOL     OW18938   3.325   1.412   7.958 -0.0999  0.1503  0.3984
 5899SOL    HW118939   3.390   1.342   7.963 -0.2650  0.0672  1.5695
 5899SOL    HW218940   3.376   1.493   7.955  0.0844  0.0007 -0.5630
 5900SOL     OW18941   7.055   6.908   2.035 -0.1979  0.4297  0.4591
 5900SOL    HW118942   7.010   6.938   2.114 -0.0201  1.6327  0.1027
 5900SOL    HW218943   7.124   6.973   2.020  1.1463 -0.9508  0.5284
 5901SOL     OW18944   5.395   6.336   6.371  1.0354 -0.1508  0.2558
 5901SOL    HW118945   5.407   6.430   6.387 -1.5963  0.4662 -1.0616
 5901SOL    HW218946   5.481   6.306   6.342  1.6302  2.1310 -0.4951
 5902SOL     OW18947   7.519   1.959   0.333 -0.2250  0.5662  0.3965
 5902SOL    HW118948   7.575   1.985   0.260 -0.9485  0.3771 -0.2249
 5902SOL    HW218949   7.549   2.013   0.406  0.3442  0.9187 -0.0910
 5903SOL     OW18950   0.762   1.587   5.640 -0.0165  0.0473  0.2869
 5903SOL    HW118951   0.724   1.662   5.685  0.9632 -0.2841  1.6929
 5903SOL    HW218952   0.688   1.544   5.598 -0.5259  2.0369 -0.9161
 5904SOL     OW18953   1.277   7.275   3.150  1.0744 -0.3901  0.1653
 5904SOL    HW118954   1.239   7.188   3.140 -1.4442  0.5897  0.7967
 5904SOL    HW218955   1.253   7.302   3.238  1.1177  1.2886 -0.3197
 5905SOL     OW18956   1.773   0.448   6.974 -0.2082  0.2025  0.0336
 5905SOL    HW118957   1.771   0.531   6.927  0.6697  0.2253  0.0135
 5905SOL    HW218958   1.866   0.433   6.991 -0.4291 -0.3782  0.7469
 5906SOL     OW18959   7.284   4.443   3.331 -0.0105 -0.7104  0.5695
 5906SOL    HW118960   7.243   4.528   3.315  1.3372 -0.4818 -1.8016
 5906SOL    HW218961   7.235   4.407   3.406 -3.2614  0.3681 -0.9304
 5907SOL     OW18962   7.205   7.043   5.768 -0.1801 -0.1274 -0.2517
 5907SOL    HW118963   7.257   7.048   5.848 -0.3005 -1.3528 -0.1001
 5907SOL    HW218964   7.193   6.950   5.752 -0.1355  0.1009 -1.7104
 5908SOL     OW18965   8.245   6.869   1.475 -0.7271 -0.3345  0.2962
 5908SOL    HW118966   8.333   6.842   1.499  0.2930  2.3409 -0.1974
 5908SOL    HW218967   8.189   6.834   1.544  0.6880 -2.2458  0.4915
 5909SOL     OW18968   4.318   8.210   7.826  0.4944  0.5001 -0.2030
 5909SOL    HW118969   4.360   8.159   7.757  1.5851  0.7863  0.2536
 5909SOL    HW218970   4.288   8.290   7.783  0.4387  0.3135 -0.5113
 5910SOL     OW18971   1.525   2.431   5.025  0.3983  0.0120 -0.0609
 5910SOL    HW118972   1.596   2.370   5.007 -0.4729 -0.8144 -0.7124
 5910SOL    HW218973   1.469   2.426   4.949  0.5391  1.9691 -0.3184
 5911SOL     OW18974   6.748   5.622   7.001 -0.1816  0.3009 -0.1155
 5911SOL    HW118975   6.821   5.675   7.033  0.8226 -1.0842 -0.0599
 5911SOL    HW218976   6.729   5.561   7.072  1.0764 -1.8032 -1.5411
 5912SOL     OW18977   2.120   5.547   6.946  0.2679 -0.0875  0.2255
 5912SOL    HW118978   2.097   5.626   6.897  0.1369  0.4993  1.2160
 5912SOL    HW218979   2.046   5.534   7.006 -0.7144 -2.1808 -1.4006
 5913SOL     OW18980   1.568   7.055   3.258  0.5674  0.7246 -0.8408
 5913SOL    HW118981   1.555   7.110   3.180 -0.3878  1.4677 -0.1677
 5913SOL    HW218982   1.516   7.098   3.326  2.1139  0.5936  0.4502
 5914SOL     OW18983   4.465   6.991   4.395 -0.0035 -0.2769 -0.0300
 5914SOL    HW118984   4.550   6.987   4.440 -0.5985 -0.6987  1.0870
 5914SOL    HW218985   4.470   6.922   4.329  0.0461 -1.2064  0.9188
 5915SOL     OW18986   7.739   5.967   0.670 -0.6836 -0.3687  0.0218
 5915SOL    HW118987   7.695   6.045   0.637 -1.9579 -0.6530  1.0146
 5915SOL    HW218988   7.800   5.942   0.600 -0.7212  1.1350 -0.5544
 5916SOL     OW18989   5.434   7.878   5.028 -0.0213  0.3994 -0.3517
 5916SOL    HW118990   5.425   7.967   4.994 -0.4146  0.4392 -0.1385
 5916SOL    HW218991   5.397   7.882   5.116  0.7208  0.2238 -0.0238
 5917SOL     OW18992   0.801   4.620   6.093  0.0556  0.1171 -0.0889
 5917SOL    HW118993   0.835   4.665   6.016  0.3865  0.0393  0.0133
 5917SOL    HW218994   0.748   4.687   6.138  1.6624  0.8184  0.7918
 5918SOL     OW18995   1.325   0.525   2.850  0.1597  0.3264  0.2443
 5918SOL    HW118996   1.411   0.508   2.890  0.3455  1.0883  0.1824
 5918SOL    HW218997   1.268   0.544   2.924  0.1759  0.3603  0.2480
 5919SOL     OW18998   2.221   2.174   6.616  0.0796  0.2445  0.1621
 5919SOL    HW118999   2.158   2.227   6.664  0.0271  1.0578 -0.7953
 5919SOL    HW219000   2.270   2.128   6.684 -0.4642  0.8482  0.9705
 5920SOL     OW19001   7.540   6.327   7.993  0.2925 -0.2594 -0.3062
 5920SOL    HW119002   7.546   6.236   7.963 -0.4186  0.4507 -2.6599
 5920SOL    HW219003   7.466   6.363   7.946  1.4632  1.9782 -0.4963
 5921SOL     OW19004   8.282   6.518   5.576  0.1054 -0.5820  0.4292
 5921SOL    HW119005   8.360   6.514   5.521 -0.1019 -1.2069  0.1747
 5921SOL    HW219006   8.209   6.522   5.514 -0.0631  0.1365  0.6680
 5922SOL     OW19007   1.002   3.859   5.017  0.0761 -0.4297 -0.3218
 5922SOL    HW119008   0.931   3.899   4.966 -0.5773  0.9942  1.6441
 5922SOL    HW219009   1.050   3.806   4.953 -1.1707  0.6852 -2.2478
 5923SOL     OW19010   4.161   2.296   5.264  0.4681 -0.2479  0.1554
 5923SOL    HW119011   4.149   2.226   5.329  0.3345  0.7061  1.1886
 5923SOL    HW219012   4.254   2.293   5.242  0.8568  0.4677  1.6370
 5924SOL     OW19013   2.517   3.299   5.845  0.3449 -0.5032 -0.7543
 5924SOL    HW119014   2.431   3.282   5.806  0.2841 -1.0661 -0.3739
 5924SOL    HW219015   2.564   3.349   5.778 -0.3888  0.0886 -0.8373
 5925SOL     OW19016   7.042   5.883   7.907 -0.1405  0.1448 -0.3987
 5925SOL    HW119017   6.957   5.892   7.952  0.0360 -0.0936 -0.0112
 5925SOL    HW219018   7.079   5.803   7.943  0.2047  0.1939 -0.6460
 5926SOL     OW19019   4.225   0.558   6.100  0.1399 -0.0439  0.4912
 5926SOL    HW119020   4.239   0.511   6.018  1.5694  3.0192 -1.0814
 5926SOL    HW219021   4.307   0.547   6.148 -0.4540 -1.2715  1.2454
 5927SOL     OW19022   0.231   2.235   5.220  0.3584 -0.5958 -0.0948
 5927SOL    HW119023   0.204   2.247   5.129  0.1081  0.7796  0.1618
 5927SOL    HW219024   0.300   2.300   5.234 -0.7306  0.2985  1.1847
 5928SOL     OW19025   5.049   1.781   0.034  0.0621  0.0712  0.0844
 5928SOL    HW119026   5.126   1.827  -0.000  0.0152  0.1872  0.1342
 5928SOL    HW219027   5.086   1.710   0.087  0.1415  0.6505  0.8152
 5929SOL     OW19028   8.152   1.354   4.078  0.0171 -0.3006 -0.1314
 5929SOL    HW119029   8.187   1.322   4.161  0.2703  0.8558  0.2117
 5929SOL    HW219030   8.082   1.414   4.103  0.5947  0.6329 -0.7394
 5930SOL     OW19031   0.526   0.887   4.561  1.0539 -0.0451  0.3367
 5930SOL    HW119032   0.499   0.913   4.649 -1.2226 -0.6482 -0.1563
 5930SOL    HW219033   0.583   0.811   4.574  0.4092 -0.3745  1.2782
 5931SOL     OW19034   1.779   6.268   5.054 -0.2989 -0.5215  0.6561
 5931SOL    HW119035   1.825   6.330   4.996 -0.1401  0.0522  1.3953
 5931SOL    HW219036   1.697   6.312   5.076 -1.6411 -1.8938 -1.3469
 5932SOL     OW19037   7.247   4.374   7.189 -0.1771  0.2515  0.0810
 5932SOL    HW119038   7.227   4.329   7.107 -0.3574  0.4382  0.0202
 5932SOL    HW219039   7.164   4.373   7.237 -0.3044  0.9101 -0.1133
 5933SOL     OW19040   5.202   8.012   0.396 -0.7377 -0.2298 -0.9066
 5933SOL    HW119041   5.246   8.032   0.479 -2.0483  0.4276 -0.3468
 5933SOL    HW219042   5.175   7.920   0.405  1.5216 -0.9972 -1.7327
 5934SOL     OW19043   4.955   4.273   0.099  0.3918  0.6132  0.1454
 5934SOL    HW119044   4.938   4.188   0.057  2.0834  0.3888 -0.1121
 5934SOL    HW219045   4.869   4.316   0.101 -0.3753 -0.8509 -0.2644
 5935SOL     OW19046   0.159   8.121   5.578 -0.1293  0.6344 -0.2550
 5935SOL    HW119047   0.249   8.095   5.558  1.7315  3.8030  3.1912
 5935SOL    HW219048   0.146   8.203   5.530 -0.7475  0.7851  0.1600
 5936SOL     OW19049   3.974   0.054   0.504 -0.1625  0.0281  0.0836
 5936SOL    HW119050   4.066   0.080   0.510  0.1984 -1.3947  0.8364
 5936SOL    HW219051   3.958   0.047   0.410  1.1527 -1.8865 -0.0356
 5937SOL     OW19052   6.276   7.882   5.741  0.3927 -0.1083  0.0320
 5937SOL    HW119053   6.245   7.810   5.687 -0.0512 -0.1912  0.3980
 5937SOL    HW219054   6.370   7.865   5.751  0.3404 -0.4895 -0.0989
 5938SOL     OW19055   6.530   0.258   6.677  0.0316  0.5436  0.1430
 5938SOL    HW119056   6.545   0.204   6.598  1.3075  2.1686 -0.7561
 5938SOL    HW219057   6.522   0.194   6.748 -0.2637 -0.9167 -1.1712
 5939SOL     OW19058   7.133   0.188   6.124 -0.3718 -0.4597 -0.4476
 5939SOL    HW119059   7.154   0.264   6.070 -3.6703  0.9338  0.1574
 5939SOL    HW219060   7.197   0.191   6.196 -0.9913  2.2209  0.0257
 5940SOL     OW19061   1.892   1.993   3.655 -0.5284 -0.6397 -0.3779
 5940SOL    HW119062   1.802   2.017   3.677  0.1456  0.4469  1.3232
 5940SOL    HW219063   1.928   1.961   3.737  1.2259  0.8016 -0.5614
 5941SOL     OW19064   6.630   5.244   1.775 -0.2504 -0.0552  0.3378
 5941SOL    HW119065   6.584   5.216   1.696  0.5976 -1.1184  0.2096
 5941SOL    HW219066   6.719   5.209   1.765  0.5614  1.8923  0.6333
 5942SOL     OW19067   8.231   7.443   7.435  0.1019 -0.3645 -0.1738
 5942SOL    HW119068   8.238   7.538   7.426 -0.7965 -0.3970 -1.2962
 5942SOL    HW219069   8.194   7.414   7.352  0.8537 -1.7572 -0.0408
 5943SOL     OW19070   4.046   2.559   2.926  0.1990  0.1174  0.3981
 5943SOL    HW119071   3.988   2.630   2.899  0.3449 -0.4678 -1.4797
 5943SOL    HW219072   4.070   2.515   2.845  1.9852 -0.6375  1.3083
 5944SOL     OW19073   8.133   1.172   0.807 -0.2307 -0.1594 -0.0093
 5944SOL    HW119074   8.147   1.206   0.719  0.1524 -0.6492 -0.1398
 5944SOL    HW219075   8.161   1.080   0.802 -0.1338 -0.1663  0.6365
 5945SOL     OW19076   1.862   3.309   6.009  0.0571 -0.0780 -0.2677
 5945SOL    HW119077   1.938   3.301   5.952  0.0241  2.9958 -0.8430
 5945SOL    HW219078   1.889   3.371   6.077 -1.6594  0.5036 -0.0843
 5946SOL     OW19079   7.887   0.030   1.318  0.3673  0.2058 -0.3615
 5946SOL    HW119080   7.923   0.116   1.295 -0.2377  0.6959  0.4991
 5946SOL    HW219081   7.817   0.049   1.380  0.0605 -0.8978 -0.3552
 5947SOL     OW19082   8.080   0.145   0.630  0.1970  0.1324 -0.0227
 5947SOL    HW119083   8.047   0.229   0.661 -1.7094 -0.9896  1.0951
 5947SOL    HW219084   8.169   0.141   0.665 -0.0750  1.2180  0.8396
 5948SOL     OW19085   5.505   1.508   1.393 -0.4705 -0.1074 -0.5929
 5948SOL    HW119086   5.511   1.598   1.362  0.5414 -0.3690 -1.1919
 5948SOL    HW219087   5.425   1.506   1.445  0.1753  1.4499  0.4938
 5949SOL     OW19088   0.652   1.239   3.768  0.3131 -0.1955  0.3175
 5949SOL    HW119089   0.740   1.201   3.769  0.1830 -0.5096  2.4196
 5949SOL    HW219090   0.600   1.179   3.821 -0.5007  1.4899  1.4688
 5950SOL     OW19091   2.638   6.666   6.603 -0.0746 -0.0705 -0.5634
 5950SOL    HW119092   2.676   6.749   6.575 -1.1471  0.9756  0.9919
 5950SOL    HW219093   2.573   6.646   6.536  0.6795 -0.0418 -1.3216
 5951SOL     OW19094   7.905   7.869   0.178 -0.1831 -0.6073 -0.6917
 5951SOL    HW119095   7.846   7.849   0.105  0.1463  1.0232 -1.4128
 5951SOL    HW219096   7.884   7.959   0.202  0.6712 -0.6753  0.3300
 5952SOL     OW19097   0.225   8.288   7.192 -0.3206 -0.7955  0.3026
 5952SOL    HW119098   0.314   8.253   7.186  0.0410  0.1557 -0.0394
 5952SOL    HW219099   0.183   8.263   7.110 -0.6472 -1.9618  0.8084
 5953SOL     OW19100   2.109   2.153   3.685  0.2437  0.1328  0.2502
 5953SOL    HW119101   2.111   2.210   3.762  2.2038 -0.0236  0.3390
 5953SOL    HW219102   2.017   2.127   3.677 -0.5106  2.5366  0.7593
 5954SOL     OW19103   2.855   7.898   7.610 -0.1719 -0.0347  0.1076
 5954SOL    HW119104   2.781   7.839   7.594 -1.8062  2.0592 -0.2951
 5954SOL    HW219105   2.887   7.872   7.696 -2.1033 -0.2617  0.7909
 5955SOL     OW19106   0.292   0.020   4.431 -0.0292  0.0471 -0.4141
 5955SOL    HW119107   0.267  -0.007   4.519 -0.9816 -1.3075 -1.0854
 5955SOL    HW219108   0.281   0.116   4.431  1.1498  0.2086  1.2774
 5956SOL     OW19109   7.612   6.900   7.700  0.0041  0.4368  0.3489
 5956SOL    HW119110   7.589   6.808   7.694  0.2389  0.5570 -3.5114
 5956SOL    HW219111   7.528   6.946   7.705 -0.1111  0.0571  2.3113
 5957SOL     OW19112   6.704   3.684   4.538 -0.2700 -0.2857 -0.4761
 5957SOL    HW119113   6.639   3.669   4.469  0.3954 -0.4912 -1.0621
 5957SOL    HW219114   6.756   3.758   4.506 -1.8902  1.6376  1.2097
 5958SOL     OW19115   1.929   0.225   7.869 -0.1624 -0.3027 -0.2314
 5958SOL    HW119116   2.015   0.266   7.863 -0.0793 -0.7285 -2.8584
 5958SOL    HW219117   1.947   0.131   7.860 -0.7993 -0.4976  0.4895
 5959SOL     OW19118   7.409   4.916   1.727 -0.1876  0.1094 -0.3577
 5959SOL    HW119119   7.349   4.869   1.785  0.1715  1.4717  1.1579
 5959SOL    HW219120   7.425   5.000   1.772  1.3231  0.5474 -1.6720
 5960SOL     OW19121   7.451   0.347   2.851  0.0254  0.0890  0.2627
 5960SOL    HW119122   7.448   0.290   2.774  2.3742 -0.5494  0.5899
 5960SOL    HW219123   7.470   0.289   2.924  3.5752  1.3066  0.4447
 5961SOL     OW19124   1.786   1.682   1.899  0.1563 -0.0898  0.2084
 5961SOL    HW119125   1.869   1.710   1.861 -0.3185 -0.6960 -1.3333
 5961SOL    HW219126   1.732   1.660   1.823 -1.2760 -0.0716  1.2119
 5962SOL     OW19127   3.983   3.745   0.404 -0.5416  0.0916  0.2762
 5962SOL    HW119128   3.977   3.808   0.332 -0.8854  0.8446  0.9581
 5962SOL    HW219129   3.997   3.660   0.360 -0.9533  0.5085 -0.6838
 5963SOL     OW19130   7.845   1.774   7.701  0.2185  0.9054 -0.6964
 5963SOL    HW119131   7.845   1.770   7.796 -0.8286 -3.2685 -0.7650
 5963SOL    HW219132   7.937   1.779   7.677  0.6858 -1.5900  0.4904
 5964SOL     OW19133   0.747   4.682   6.508 -0.3770  0.1774  0.1938
 5964SOL    HW119134   0.753   4.587   6.515  0.9706  0.1699 -0.8994
 5964SOL    HW219135   0.810   4.715   6.573 -1.9441  0.3749  1.6701
 5965SOL     OW19136   7.209   7.165   1.102  0.5057  0.0294 -0.0931
 5965SOL    HW119137   7.222   7.115   1.022 -1.9499 -1.4219  0.3894
 5965SOL    HW219138   7.275   7.132   1.162  1.0861 -0.2464 -0.8793
 5966SOL     OW19139   2.938   3.361   5.406  0.2097 -0.1124  0.1557
 5966SOL    HW119140   2.974   3.365   5.494 -0.5523  1.1829  0.4200
 5966SOL    HW219141   2.969   3.441   5.363  1.6311 -1.3398 -1.1814
 5967SOL     OW19142   6.442   1.871   1.146  0.2062  0.1277  0.2903
 5967SOL    HW119143   6.491   1.894   1.068 -1.8138  0.1502 -1.0020
 5967SOL    HW219144   6.432   1.954   1.194  0.1970  0.3871 -0.1586
 5968SOL     OW19145   3.857   5.439   0.706 -0.3210  0.1872 -0.3789
 5968SOL    HW119146   3.828   5.522   0.744  0.6400  0.0708  0.6325
 5968SOL    HW219147   3.776   5.393   0.684 -0.8462  1.6959 -1.6324
 5969SOL     OW19148   7.604   1.641   6.787  0.5266 -0.3747 -0.0896
 5969SOL    HW119149   7.673   1.578   6.766 -1.6745 -2.4268 -1.3557
 5969SOL    HW219150   7.602   1.701   6.713 -1.2426 -2.3212 -1.6855
 5970SOL     OW19151   7.603   4.972   0.802  0.6632 -0.0656 -0.3917
 5970SOL    HW119152   7.600   4.917   0.723 -0.0842  1.8323 -1.7106
 5970SOL    HW219153   7.524   4.948   0.851  0.4304 -0.2881 -0.8713
 5971SOL     OW19154   7.858   3.851   1.980 -0.1992 -0.2398  0.0464
 5971SOL    HW119155   7.945   3.841   2.018  0.0279  1.3143 -0.0463
 5971SOL    HW219156   7.852   3.780   1.916 -0.0973 -2.0678  2.0187
 5972SOL     OW19157   5.059   4.708   1.921 -0.1191 -0.2118 -0.4533
 5972SOL    HW119158   5.050   4.614   1.932 -0.3647 -0.1808 -0.3799
 5972SOL    HW219159   5.142   4.719   1.875 -1.1429 -0.6203 -2.5007
 5973SOL     OW19160   7.911   3.818   7.378 -0.7331 -0.0319  0.6519
 5973SOL    HW119161   7.835   3.786   7.329 -1.3983  2.0230  0.2870
 5973SOL    HW219162   7.930   3.904   7.340  1.6137 -0.3812  0.9451
 5974SOL     OW19163   2.215   4.402   1.658  0.2328 -0.1149  0.1718
 5974SOL    HW119164   2.175   4.452   1.587  0.6632  1.6361  1.1370
 5974SOL    HW219165   2.290   4.455   1.685  0.6704 -1.2726  1.2595
 5975SOL     OW19166   3.453   7.543   7.060  0.3894  0.4350 -0.6449
 5975SOL    HW119167   3.359   7.526   7.060  0.6211 -0.9932 -0.4005
 5975SOL    HW219168   3.486   7.493   7.135  1.1302  2.2376  0.2666
 5976SOL     OW19169   0.850   2.570   2.487  0.4654 -0.1882 -0.2264
 5976SOL    HW119170   0.871   2.629   2.560  1.3923 -0.7837 -0.0035
 5976SOL    HW219171   0.755   2.577   2.477  0.4317  0.5005  0.5197
 5977SOL     OW19172   5.441   0.894   6.416  0.4134  0.0774 -0.4992
 5977SOL    HW119173   5.419   0.962   6.352 -0.5770  1.2321  1.0631
 5977SOL    HW219174   5.532   0.870   6.395  0.8091  1.9525 -0.9907
 5978SOL     OW19175   0.408   5.772   4.049  0.7224  0.0028 -0.3830
 5978SOL    HW119176   0.449   5.688   4.025 -0.3004 -0.4693 -0.4771
 5978SOL    HW219177   0.334   5.748   4.104  1.6025  0.9617  1.2427
 5979SOL     OW19178   1.369   0.689   2.150  0.6063  0.1862  1.0556
 5979SOL    HW119179   1.293   0.708   2.095  1.3214 -1.3218 -0.4903
 5979SOL    HW219180   1.340   0.710   2.238 -1.0815  1.1581  0.2985
 5980SOL     OW19181   6.360   4.246   4.149 -0.4157  0.1186 -0.6889
 5980SOL    HW119182   6.408   4.214   4.073 -1.6760 -0.8777 -1.0883
 5980SOL    HW219183   6.418   4.231   4.223  0.9772  1.4405 -1.4935
 5981SOL     OW19184   1.071   4.983   3.342  0.5920  0.1366  0.0770
 5981SOL    HW119185   1.116   4.914   3.293 -2.2212  0.3193 -2.8704
 5981SOL    HW219186   0.999   4.938   3.385  1.2414  0.5489  1.6690
 5982SOL     OW19187   2.138   4.321   2.305  0.1868  0.1734  0.2948
 5982SOL    HW119188   2.232   4.302   2.305 -0.0376 -0.9880  0.4496
 5982SOL    HW219189   2.097   4.236   2.290 -0.8576  0.6006  0.7114
 5983SOL     OW19190   1.970   0.854   6.984 -0.3449  0.2177 -0.5194
 5983SOL    HW119191   2.037   0.903   6.936  1.0259 -0.9316  0.1985
 5983SOL    HW219192   2.012   0.829   7.067 -1.4181 -1.0819 -0.3384
 5984SOL     OW19193   4.191   2.085   6.032 -0.4425 -0.0140  0.5837
 5984SOL    HW119194   4.140   2.165   6.018  1.1742  0.6109 -2.1249
 5984SOL    HW219195   4.247   2.078   5.954  1.3363 -2.3792  1.9981
 5985SOL     OW19196   6.122   4.901   0.790 -0.2304  0.0204  0.5966
 5985SOL    HW119197   6.141   4.815   0.828  2.0084  0.2639  0.0631
 5985SOL    HW219198   6.065   4.882   0.716 -2.1480 -0.7153  2.1858
 5986SOL     OW19199   3.474   1.341   7.494 -0.3694 -0.0309  0.0284
 5986SOL    HW119200   3.544   1.370   7.553 -0.0127  0.6488 -0.7113
 5986SOL    HW219201   3.508   1.359   7.406 -0.9794 -0.8308 -0.3817
 5987SOL     OW19202   5.653   2.451   8.049 -0.0447 -0.8553  0.1261
 5987SOL    HW119203   5.563   2.440   8.082  0.2194  0.3159  1.2910
 5987SOL    HW219204   5.682   2.534   8.088  0.8143 -0.1780 -1.9096
 5988SOL     OW19205   0.888   2.113   5.906 -0.0122 -0.5277  0.5667
 5988SOL    HW119206   0.820   2.103   5.840 -0.2266  0.2465  0.6581
 5988SOL    HW219207   0.970   2.103   5.858 -0.1744 -0.3703  0.2566
 5989SOL     OW19208   5.874   5.438   1.666  0.0995 -0.7085  0.0295
 5989SOL    HW119209   5.851   5.368   1.728  0.2889 -2.2145 -1.5907
 5989SOL    HW219210   5.899   5.393   1.586  0.3071  1.2237 -1.0240
 5990SOL     OW19211   1.357   4.216   5.654  0.2324 -0.0227  0.3301
 5990SOL    HW119212   1.295   4.288   5.643 -1.2642 -1.1521  1.1604
 5990SOL    HW219213   1.359   4.172   5.569  1.4536  1.2095 -0.2994
 5991SOL     OW19214   5.924   1.594   8.093  0.7322  0.2646  0.0806
 5991SOL    HW119215   5.916   1.643   8.175 -0.4106  0.2930 -0.0426
 5991SOL    HW219216   5.944   1.661   8.027  1.9591  0.2033  0.3783
 5992SOL     OW19217   4.010   0.419   6.600  0.2599 -0.3358  0.4763
 5992SOL    HW119218   4.035   0.326   6.600  2.3549  0.2127  0.1880
 5992SOL    HW219219   4.016   0.446   6.509 -0.3974  0.0864  0.5535
 5993SOL     OW19220   2.621   2.627   5.691 -0.0014  0.3697 -0.3645
 5993SOL    HW119221   2.595   2.714   5.662 -0.5343  0.7540  1.2197
 5993SOL    HW219222   2.715   2.624   5.674 -0.2900  0.5389 -2.1674
 5994SOL     OW19223   0.296   7.899   3.388  0.0266 -0.0914 -0.6361
 5994SOL    HW119224   0.205   7.896   3.360 -0.4585  0.6360  0.8065
 5994SOL    HW219225   0.347   7.893   3.307 -1.3169  0.8974 -1.5594
 5995SOL     OW19226   6.352   2.990   2.818  0.6898 -0.5274 -0.3786
 5995SOL    HW119227   6.288   2.957   2.755 -1.0901  1.3098  0.4053
 5995SOL    HW219228   6.376   2.914   2.871 -0.2221 -1.4037 -1.2015
 5996SOL     OW19229   5.152   3.569   7.966 -0.2162 -0.0164 -0.4965
 5996SOL    HW119230   5.161   3.611   8.051  0.7962 -0.2505 -0.4757
 5996SOL    HW219231   5.242   3.546   7.941 -0.7068 -1.7274 -0.7304
 5997SOL     OW19232   5.420   2.973   7.375  0.2172  0.3832 -0.3465
 5997SOL    HW119233   5.429   2.998   7.467  0.1072  0.2760 -0.3064
 5997SOL    HW219234   5.365   3.042   7.338 -0.0407  0.2358 -0.2476
 5998SOL     OW19235   6.321   7.629   5.193  0.6570  0.3937  0.3908
 5998SOL    HW119236   6.373   7.555   5.225  1.5468 -0.2798 -2.4412
 5998SOL    HW219237   6.243   7.588   5.156  1.4395  0.7686 -1.7509
 5999SOL     OW19238   4.712   5.853   7.357  0.2310  0.4207 -0.3957
 5999SOL    HW119239   4.666   5.796   7.419 -1.4465  0.4507 -1.5801
 5999SOL    HW219240   4.780   5.798   7.319 -0.4586 -0.3709 -0.4826
 6000SOL     OW19241   3.115   5.482   0.376  0.2554 -0.5600  0.4899
 6000SOL    HW119242   3.087   5.484   0.467 -1.5259 -0.4087 -0.0413
 6000SOL    HW219243   3.087   5.566   0.340  2.6343  0.1519  0.2830
 6001SOL     OW19244   4.489   5.804   5.622 -0.7042  0.4897 -0.1208
 6001SOL    HW119245   4.474   5.818   5.529 -0.5969  1.7155  0.0328
 6001SOL    HW219246   4.574   5.760   5.626 -0.6181  0.6092 -0.5895
 6002SOL     OW19247   7.803   4.887   2.150 -0.3181 -0.1575  0.1339
 6002SOL    HW119248   7.830   4.918   2.237  1.1728  1.4737 -0.8479
 6002SOL    HW219249   7.711   4.864   2.160 -0.4587  1.0213  1.8901
 6003SOL     OW19250   2.118   0.436   2.092 -0.8198 -0.1864  0.2325
 6003SOL    HW119251   2.155   0.359   2.136 -1.4380  0.7206  2.3935
 6003SOL    HW219252   2.029   0.443   2.127 -0.1163  2.6607  1.5671
 6004SOL     OW19253   0.773   2.806   4.017 -0.4996  0.8385 -0.8831
 6004SOL    HW119254   0.745   2.892   3.985  0.4891  2.5613  2.6935
 6004SOL    HW219255   0.737   2.800   4.105  2.2841 -0.9593  0.1943
 6005SOL     OW19256   1.465   2.646   6.622  1.0416  0.0547 -0.0642
 6005SOL    HW119257   1.506   2.685   6.546 -0.2743  2.1250  0.2490
 6005SOL    HW219258   1.417   2.570   6.588 -0.2834  1.5000 -1.4379
 6006SOL     OW19259   7.645   7.353   5.161 -0.1414  0.0032 -0.0838
 6006SOL    HW119260   7.738   7.331   5.153 -0.3224 -0.4966 -0.9424
 6006SOL    HW219261   7.600   7.275   5.128 -0.9009 -0.3947  1.8726
 6007SOL     OW19262   5.784   6.678   1.602 -0.5405 -0.0806  0.0008
 6007SOL    HW119263   5.697   6.642   1.590 -1.6779  2.6950 -0.5899
 6007SOL    HW219264   5.771   6.773   1.599  2.1755  0.4303  2.1414
 6008SOL     OW19265   6.616   2.433   4.568  0.3863  0.2541  0.1510
 6008SOL    HW119266   6.581   2.349   4.537  1.0342  0.3687 -0.9182
 6008SOL    HW219267   6.711   2.423   4.562  0.4726  1.0102  0.1872
 6009SOL     OW19268   3.837   6.736   7.241 -0.2372 -0.2095  0.2493
 6009SOL    HW119269   3.850   6.745   7.335 -0.0773 -0.2095  0.2258
 6009SOL    HW219270   3.907   6.678   7.212  0.2762  0.5356 -0.0207
 6010SOL     OW19271   4.387   0.883   1.124  0.2408  0.0510  0.0535
 6010SOL    HW119272   4.376   0.801   1.076 -2.2790  0.3338  0.1126
 6010SOL    HW219273   4.386   0.857   1.216  1.3795 -0.0473  0.0530
 6011SOL     OW19274   1.218   3.271   0.552  0.7199 -0.3586  0.5359
 6011SOL    HW119275   1.273   3.232   0.484  0.1295 -1.0737  0.4638
 6011SOL    HW219276   1.266   3.256   0.633  1.8809  1.3355  0.1738
 6012SOL     OW19277   1.917   1.565   7.368  0.5533  0.3814  0.2649
 6012SOL    HW119278   1.823   1.577   7.382  0.2574 -1.2276 -0.2264
 6012SOL    HW219279   1.931   1.588   7.276  0.3327 -0.9851 -0.1244
 6013SOL     OW19280   0.732   5.328   4.304  0.2093  0.1288 -0.5410
 6013SOL    HW119281   0.747   5.252   4.361  0.0060 -0.1662 -0.8799
 6013SOL    HW219282   0.655   5.371   4.340 -0.3526 -0.4676 -1.0233
 6014SOL     OW19283   4.686   1.406   7.797 -0.1969  0.3816 -0.1579
 6014SOL    HW119284   4.632   1.367   7.728 -0.4900  0.5701 -0.0387
 6014SOL    HW219285   4.691   1.499   7.773 -1.3100  0.6782  0.7257
 6015SOL     OW19286   1.200   7.097   7.730  0.0927 -0.0153  0.4361
 6015SOL    HW119287   1.285   7.063   7.703 -0.4484 -0.1208 -1.1750
 6015SOL    HW219288   1.214   7.127   7.820  2.0886  0.8838 -0.1374
 6016SOL     OW19289   5.464   0.487   1.610 -0.5822  0.4068  0.0882
 6016SOL    HW119290   5.525   0.509   1.539  0.9971 -0.7709  1.0579
 6016SOL    HW219291   5.521   0.463   1.683 -2.2307 -0.8002  0.9837
 6017SOL     OW19292   4.923   1.215   4.829 -0.1651  0.5643 -0.1679
 6017SOL    HW119293   4.861   1.272   4.873 -0.3841  0.3679 -0.2238
 6017SOL    HW219294   4.911   1.234   4.736  0.1830  0.8598 -0.1532
 6018SOL     OW19295   5.650   1.727   7.910 -0.1875 -0.3330 -0.1947
 6018SOL    HW119296   5.601   1.660   7.956 -0.2300 -0.8384 -0.9598
 6018SOL    HW219297   5.669   1.794   7.976 -2.8698  0.4185 -0.1336
 6019SOL     OW19298   3.171   2.317   5.353  0.2491 -0.0268  0.0272
 6019SOL    HW119299   3.107   2.370   5.401  2.4079 -0.1510  3.2602
 6019SOL    HW219300   3.130   2.231   5.344 -1.7960  1.1129 -1.9870
 6020SOL     OW19301   3.836   1.325   0.365  0.3913 -0.1294 -0.1279
 6020SOL    HW119302   3.786   1.397   0.404  1.1743  1.0997 -1.3652
 6020SOL    HW219303   3.841   1.346   0.272 -0.4709 -2.4611 -0.7322
 6021SOL     OW19304   2.259   7.196   5.659 -0.1853  0.0627 -0.2975
 6021SOL    HW119305   2.213   7.259   5.715  0.3103 -0.1192  0.3191
 6021SOL    HW219306   2.336   7.171   5.709  1.3941  1.5008 -1.9429
 6022SOL     OW19307   1.390   5.687   5.426  0.2068 -0.7162 -0.5207
 6022SOL    HW119308   1.308   5.643   5.403 -0.3351 -0.6342  1.2047
 6022SOL    HW219309   1.442   5.618   5.468  0.4822 -0.4277 -0.3937
 6023SOL     OW19310   4.461   1.166   5.548  0.4942  0.5377 -0.3271
 6023SOL    HW119311   4.377   1.121   5.536  0.4319  0.6893 -0.4630
 6023SOL    HW219312   4.527   1.101   5.527  0.4201  0.2642  0.2826
 6024SOL     OW19313   0.600   1.311   7.450  0.1368 -0.3795 -0.3632
 6024SOL    HW119314   0.605   1.316   7.546 -0.7479 -1.0172 -0.2778
 6024SOL    HW219315   0.642   1.391   7.419  3.6888 -1.8500  0.4710
 6025SOL     OW19316   6.339   8.105   7.850 -0.4228  0.0666 -0.7930
 6025SOL    HW119317   6.367   8.023   7.890  1.6545  0.5181 -1.2477
 6025SOL    HW219318   6.296   8.078   7.769 -2.7593 -0.7312  0.6653
 6026SOL     OW19319   7.633   6.894   0.940 -0.0544  0.2775 -0.1892
 6026SOL    HW119320   7.699   6.884   0.872 -2.1761  2.5680 -2.6770
 6026SOL    HW219321   7.564   6.831   0.915 -0.9117  1.2418 -0.2741
 6027SOL     OW19322   6.999   1.238   1.411  0.7286  0.1790 -0.1440
 6027SOL    HW119323   6.990   1.233   1.315  0.1819  0.5009 -0.1127
 6027SOL    HW219324   6.952   1.318   1.435  0.9205  0.1320  0.3896
 6028SOL     OW19325   7.742   0.293   5.353 -0.3497  0.3370  0.4442
 6028SOL    HW119326   7.736   0.199   5.338 -1.0957  0.6456 -1.2816
 6028SOL    HW219327   7.780   0.301   5.441  1.5393 -1.5367 -0.1640
 6029SOL     OW19328   8.010   8.100   7.998 -0.0093 -0.1239 -0.1524
 6029SOL    HW119329   8.054   8.079   7.916 -0.4217 -0.3584 -0.3121
 6029SOL    HW219330   7.927   8.138   7.972  1.0003  2.3590  0.1102
 6030SOL     OW19331   7.556   4.398   2.241 -0.0104  0.3765  0.2641
 6030SOL    HW119332   7.588   4.465   2.181  1.5534  0.9462  1.6810
 6030SOL    HW219333   7.464   4.385   2.217  0.2750  1.4229 -1.4585
 6031SOL     OW19334   0.353   3.961   1.188  0.1645  0.3624 -0.0188
 6031SOL    HW119335   0.313   3.890   1.137  0.3330  0.3492 -0.1327
 6031SOL    HW219336   0.283   4.025   1.198 -0.5205 -0.5929  1.5690
 6032SOL     OW19337   2.625   4.864   0.828  0.2640 -0.0986  0.2296
 6032SOL    HW119338   2.571   4.844   0.905  0.2413  1.1478  0.5461
 6032SOL    HW219339   2.713   4.835   0.852  0.1684 -0.1221  0.5529
 6033SOL     OW19340   3.498   0.135   2.571 -0.3219  0.1133 -0.6226
 6033SOL    HW119341   3.457   0.169   2.650 -0.8781 -1.4400 -0.2054
 6033SOL    HW219342   3.448   0.055   2.552  0.4156 -0.0258 -2.0014
 6034SOL     OW19343   8.130   3.879   1.533 -0.0147 -0.0386 -0.8304
 6034SOL    HW119344   8.060   3.943   1.534  0.5965  0.6452  1.9803
 6034SOL    HW219345   8.181   3.900   1.455 -0.2189  2.4859 -0.3220
 6035SOL     OW19346   2.149   3.133   5.058  0.3639  0.0399  0.1943
 6035SOL    HW119347   2.063   3.173   5.045 -0.3676 -1.7501 -0.6442
 6035SOL    HW219348   2.156   3.068   4.989  1.8683 -0.7309  1.0395
 6036SOL     OW19349   4.349   4.952   1.307  0.3822  0.2461 -0.0251
 6036SOL    HW119350   4.395   4.880   1.351  0.2442 -0.9133 -1.7501
 6036SOL    HW219351   4.309   5.002   1.379  1.3819 -0.7501  1.2602
 6037SOL     OW19352   8.216   7.555   4.484 -0.4423 -0.1406 -0.0434
 6037SOL    HW119353   8.248   7.534   4.571  0.1658 -0.2741 -0.2950
 6037SOL    HW219354   8.121   7.562   4.494 -0.3150  0.5430  0.7703
 6038SOL     OW19355   8.247   4.147   1.455  0.6457 -0.1281 -0.3654
 6038SOL    HW119356   8.175   4.173   1.511 -0.3432 -0.5408 -1.4089
 6038SOL    HW219357   8.323   4.193   1.489 -0.2722  0.9234  0.2673
 6039SOL     OW19358   7.482   4.437   5.098 -0.4179 -0.5047  0.4669
 6039SOL    HW119359   7.536   4.450   5.020 -0.3924 -0.2863  0.5176
 6039SOL    HW219360   7.449   4.525   5.119  1.8783 -0.0418  2.3604
 6040SOL     OW19361   8.229   6.562   0.196  0.6101  0.1210 -0.1143
 6040SOL    HW119362   8.254   6.505   0.269 -0.2721 -1.1239 -0.7543
 6040SOL    HW219363   8.296   6.545   0.130  1.0474  0.7618  0.1653
 6041SOL     OW19364   0.894   5.829   7.670  0.0220  0.0157 -0.3291
 6041SOL    HW119365   0.884   5.894   7.740  0.3572  0.3316 -0.5756
 6041SOL    HW219366   0.978   5.787   7.689  0.4291  0.5595 -0.9260
 6042SOL     OW19367   2.158   6.395   2.148 -0.1833 -0.4087  0.7766
 6042SOL    HW119368   2.094   6.456   2.112  0.5596 -0.1102 -0.0536
 6042SOL    HW219369   2.238   6.446   2.156  0.5651 -1.3816 -0.3393
 6043SOL     OW19370   7.299   1.865   4.084 -0.5777  0.1436  0.7466
 6043SOL    HW119371   7.288   1.947   4.132  1.4505  1.8884 -1.6175
 6043SOL    HW219372   7.223   1.861   4.026  0.4104  1.5932 -0.7415
 6044SOL     OW19373   7.027   2.406   2.519 -0.0856  0.0624 -0.5849
 6044SOL    HW119374   7.054   2.445   2.435  0.1430 -0.0079 -0.5450
 6044SOL    HW219375   6.950   2.457   2.545  1.5988  2.0745  0.6351
 6045SOL     OW19376   7.293   1.023   0.242 -0.2150 -0.6626  0.7187
 6045SOL    HW119377   7.387   1.023   0.227 -0.5217 -0.4075 -1.4540
 6045SOL    HW219378   7.259   1.086   0.178 -2.1752 -3.3744 -1.0143
 6046SOL     OW19379   6.500   4.749   0.657  0.1417  0.0414  0.5055
 6046SOL    HW119380   6.542   4.674   0.698 -0.1593 -0.1837  0.4081
 6046SOL    HW219381   6.415   4.716   0.627  0.6892 -0.0204 -1.0520
 6047SOL     OW19382   6.650   6.760   4.259 -0.0347 -0.2694  0.3182
 6047SOL    HW119383   6.674   6.669   4.279 -0.1280 -0.9518 -2.5084
 6047SOL    HW219384   6.730   6.799   4.225 -0.0834  0.6515  1.2082
 6048SOL     OW19385   1.821   3.427   4.437 -1.1388  0.4613  0.0682
 6048SOL    HW119386   1.872   3.472   4.369 -0.5387 -0.5660 -0.1774
 6048SOL    HW219387   1.738   3.407   4.395 -0.8484  0.0167 -0.3011
 6049SOL     OW19388   2.492   6.171   4.746  0.2168  0.5198  0.1633
 6049SOL    HW119389   2.520   6.180   4.837  0.8623  0.9956 -0.0792
 6049SOL    HW219390   2.437   6.248   4.730 -0.0555  0.3356  0.2056
 6050SOL     OW19391   0.425   7.494   7.133  0.3551 -0.5728 -0.1220
 6050SOL    HW119392   0.350   7.482   7.191 -0.1037 -0.1457 -0.6200
 6050SOL    HW219393   0.404   7.572   7.082  0.9882 -0.6435 -0.5022
 6051SOL     OW19394   0.139   3.790   7.949 -0.0705 -0.0682 -0.0337
 6051SOL    HW119395   0.148   3.883   7.930  2.7508 -0.7739 -2.4127
 6051SOL    HW219396   0.128   3.749   7.864 -1.1337 -1.9593  0.9860
 6052SOL     OW19397   5.150   7.759   5.053  0.2407  0.0700  0.8555
 6052SOL    HW119398   5.225   7.740   5.109  1.3060  0.0524 -0.5546
 6052SOL    HW219399   5.074   7.728   5.103  1.2728 -0.9655  1.8001
 6053SOL     OW19400   3.930   3.365   7.406  0.7781  0.6547  0.6885
 6053SOL    HW119401   3.939   3.442   7.350  0.7213  0.1109 -0.0760
 6053SOL    HW219402   3.838   3.367   7.434  0.5283  0.3418 -0.1003
 6054SOL     OW19403   7.773   6.876   5.914 -0.7820 -0.3203 -0.2231
 6054SOL    HW119404   7.781   6.972   5.909 -0.4451 -0.2559  1.2089
 6054SOL    HW219405   7.767   6.848   5.823 -0.2697  1.0148 -0.6922
 6055SOL     OW19406   5.839   4.672   1.685 -0.2306  0.2936 -0.1871
 6055SOL    HW119407   5.802   4.652   1.599 -0.1438  0.4083 -0.2504
 6055SOL    HW219408   5.860   4.586   1.722 -2.0102  0.1372  0.4966
 6056SOL     OW19409   7.413   4.451   1.633 -0.0118  0.1232  0.1171
 6056SOL    HW119410   7.390   4.543   1.617  2.1976  0.5153 -0.9214
 6056SOL    HW219411   7.507   4.453   1.649 -0.0912 -1.8844  0.8959
 6057SOL     OW19412   2.921   8.109   5.590 -0.2471 -0.3543  0.0765
 6057SOL    HW119413   3.015   8.119   5.598 -0.2323  0.9398 -1.3940
 6057SOL    HW219414   2.909   8.042   5.523 -0.3860 -1.3761  1.1042
 6058SOL     OW19415   3.536   8.163   3.805 -0.0697 -0.0282  0.5628
 6058SOL    HW119416   3.597   8.172   3.731  1.1009  1.1936  1.6613
 6058SOL    HW219417   3.560   8.079   3.846 -0.4037 -0.4731 -0.1311
 6059SOL     OW19418   1.484   5.597   3.226  0.1183 -0.2045 -0.4490
 6059SOL    HW119419   1.442   5.680   3.245 -2.0689 -1.6474  1.3365
 6059SOL    HW219420   1.413   5.533   3.231  1.6741 -2.1267 -2.1873
 6060SOL     OW19421   0.768   6.096   2.554 -0.3404  0.0333  0.1371
 6060SOL    HW119422   0.678   6.078   2.582 -0.0387 -0.5502  0.7344
 6060SOL    HW219423   0.764   6.094   2.458 -1.2398  1.3518  0.1191
 6061SOL     OW19424   7.888   5.308   1.032  0.0226 -0.7362 -0.1310
 6061SOL    HW119425   7.891   5.226   0.982  0.5564 -0.1522 -1.0644
 6061SOL    HW219426   7.951   5.365   0.989 -1.0197  0.4948 -0.0713
 6062SOL     OW19427   0.771   7.131   8.256  0.2091 -0.2357  0.1852
 6062SOL    HW119428   0.846   7.180   8.290  1.5451 -1.5974 -0.7840
 6062SOL    HW219429   0.778   7.138   8.161 -1.2012  0.0494  0.0783
 6063SOL     OW19430   2.662   5.694   1.477 -0.1749 -0.0997 -0.5879
 6063SOL    HW119431   2.719   5.707   1.553  0.7147  0.5117 -1.3481
 6063SOL    HW219432   2.703   5.623   1.428 -0.7835 -0.5391 -0.4641
 6064SOL     OW19433   0.963   4.042   2.797  0.3807  0.1077  0.2445
 6064SOL    HW119434   1.031   3.975   2.794  0.6257  0.3874 -1.0064
 6064SOL    HW219435   0.980   4.096   2.720 -1.1820  0.2503 -0.0166
 6065SOL     OW19436   0.452   4.180   7.693 -0.7912  0.5680  0.2505
 6065SOL    HW119437   0.517   4.236   7.649  2.5397 -0.3665  3.6470
 6065SOL    HW219438   0.405   4.239   7.752  1.5125  0.2221  2.5297
 6066SOL     OW19439   6.135   6.007   5.684 -0.0631 -0.0880  0.4000
 6066SOL    HW119440   6.058   5.953   5.665  0.4384 -1.2757  1.6303
 6066SOL    HW219441   6.099   6.094   5.701 -0.8948 -0.0216 -1.5847
 6067SOL     OW19442   5.714   1.976   0.998  0.0970  0.2693  0.1344
 6067SOL    HW119443   5.733   2.042   0.932 -0.3468  0.0808 -0.1826
 6067SOL    HW219444   5.779   1.908   0.983 -1.3306 -0.7683 -1.4946
 6068SOL     OW19445   0.116   7.815   6.017  0.0721 -0.3742 -0.0167
 6068SOL    HW119446   0.083   7.737   5.975  0.6799 -2.6049  3.4630
 6068SOL    HW219447   0.212   7.805   6.014  0.1442  0.0457  0.7780
 6069SOL     OW19448   1.981   6.676   5.344 -0.7513 -0.2794 -0.0455
 6069SOL    HW119449   1.960   6.758   5.388  0.2492  0.9125 -1.7062
 6069SOL    HW219450   1.896   6.636   5.326 -1.1763 -0.7059  2.7214
 6070SOL     OW19451   6.449   4.690   3.034  0.0225 -0.1597  0.5898
 6070SOL    HW119452   6.381   4.622   3.034 -0.7195  0.5718  1.8793
 6070SOL    HW219453   6.519   4.653   2.980 -1.4586 -0.8508 -0.9111
 6071SOL     OW19454   2.592   4.364   2.860 -0.0111 -0.1550  0.3979
 6071SOL    HW119455   2.642   4.414   2.925  0.8500 -0.4898  0.0087
 6071SOL    HW219456   2.659   4.319   2.808 -0.7027 -0.1940 -0.4767
 6072SOL     OW19457   5.335   4.707   3.785  0.0109  0.0730 -0.1678
 6072SOL    HW119458   5.397   4.737   3.718 -0.6732  1.1336 -0.3408
 6072SOL    HW219459   5.380   4.722   3.868  0.3350  0.0023 -0.3298
 6073SOL     OW19460   1.960   1.119   7.869  0.2961  0.5731 -0.1451
 6073SOL    HW119461   1.941   1.125   7.776 -0.3510  1.5190  0.0440
 6073SOL    HW219462   1.877   1.093   7.909  0.3259  1.1232  0.2755
 6074SOL     OW19463   3.418   5.240   1.560 -0.3927 -0.4213 -0.1297
 6074SOL    HW119464   3.345   5.295   1.531 -0.6897 -0.4460  0.5535
 6074SOL    HW219465   3.379   5.179   1.623  0.0899 -0.8794 -0.2749
 6075SOL     OW19466   2.769   2.133   5.476 -0.2697 -0.3465  0.1405
 6075SOL    HW119467   2.678   2.112   5.455 -0.8963  1.0560  1.3150
 6075SOL    HW219468   2.775   2.228   5.463  0.5438 -0.1580  1.7189
 6076SOL     OW19469   2.614   7.850   0.919  0.0554 -0.5057 -0.8203
 6076SOL    HW119470   2.542   7.870   0.859 -0.1252 -0.1049 -0.4714
 6076SOL    HW219471   2.690   7.892   0.879 -0.0495 -0.3056 -0.8122
 6077SOL     OW19472   6.693   6.030   2.350  0.4549 -0.3745  0.4534
 6077SOL    HW119473   6.737   6.089   2.289  1.5624 -2.2755 -0.6480
 6077SOL    HW219474   6.642   5.972   2.295  0.5047 -1.3503  1.4113
 6078SOL     OW19475   1.570   1.878   5.811 -0.0717 -0.0616  0.0016
 6078SOL    HW119476   1.665   1.874   5.807  0.0454  0.8240  1.4619
 6078SOL    HW219477   1.549   1.969   5.789 -0.5735 -0.2177 -0.1804
 6079SOL     OW19478   3.064   5.807   3.978 -0.2628 -0.2153 -0.1771
 6079SOL    HW119479   3.041   5.757   4.056  2.1872 -0.7813  0.2268
 6079SOL    HW219480   3.157   5.792   3.966 -0.4683  0.3383 -2.8942
 6080SOL     OW19481   5.869   1.505   5.293 -0.1669 -0.3841 -0.0248
 6080SOL    HW119482   5.903   1.450   5.222 -0.4009  2.0665 -2.1158
 6080SOL    HW219483   5.936   1.571   5.306 -0.3557 -0.5297  1.7275
 6081SOL     OW19484   7.484   7.875   6.903 -0.2905 -0.1751  0.0349
 6081SOL    HW119485   7.438   7.799   6.867 -0.8918  0.4152 -0.4500
 6081SOL    HW219486   7.449   7.950   6.855 -0.1183  0.4765  0.9042
 6082SOL     OW19487   4.511   8.287   0.367  0.2137  0.4663 -0.7199
 6082SOL    HW119488   4.439   8.336   0.327 -0.2876 -0.4877 -1.0021
 6082SOL    HW219489   4.509   8.312   0.460 -2.2253 -1.6022 -0.1584
 6083SOL     OW19490   2.135   7.755   3.970  0.0212 -0.0574 -0.7716
 6083SOL    HW119491   2.088   7.672   3.969  0.1364 -0.1167 -1.6635
 6083SOL    HW219492   2.066   7.821   3.981 -0.0216 -0.2977  0.4147
 6084SOL     OW19493   3.644   6.636   0.346  0.1818 -0.5556  0.1505
 6084SOL    HW119494   3.666   6.691   0.420 -0.4676 -1.3431  0.9428
 6084SOL    HW219495   3.581   6.688   0.295  2.5066  1.0101 -1.2312
 6085SOL     OW19496   3.081   5.177   0.867  0.0855 -0.2214  0.0106
 6085SOL    HW119497   3.046   5.090   0.884  1.1755 -0.7596 -0.4450
 6085SOL    HW219498   3.006   5.236   0.874 -0.2038 -0.8645  3.0188
 6086SOL     OW19499   4.739   3.876   4.468  0.4552  0.1479 -0.6929
 6086SOL    HW119500   4.744   3.872   4.372 -1.1695  1.6481 -0.8600
 6086SOL    HW219501   4.666   3.818   4.490 -1.4726  2.4933 -0.6679
 6087SOL     OW19502   6.814   0.290   0.249 -0.4993  0.0618 -0.8225
 6087SOL    HW119503   6.781   0.252   0.330  1.0640  1.1033  0.3451
 6087SOL    HW219504   6.863   0.219   0.207 -1.3406 -0.4858 -0.8848
 6088SOL     OW19505   0.223   3.832   2.757  0.3858 -0.6149  0.4415
 6088SOL    HW119506   0.317   3.827   2.776  0.5230  0.7358  0.1557
 6088SOL    HW219507   0.190   3.899   2.817 -0.6166 -1.9048  1.3513
 6089SOL     OW19508   6.388   5.289   3.375 -0.0714  0.7216 -0.5917
 6089SOL    HW119509   6.295   5.303   3.394  0.2677  1.4851  0.5707
 6089SOL    HW219510   6.390   5.267   3.282 -1.5805 -1.0304 -0.2525
 6090SOL     OW19511   5.042   6.985   7.447 -0.3724 -0.2408  0.3859
 6090SOL    HW119512   4.974   7.033   7.495  1.0262  0.9226  1.2206
 6090SOL    HW219513   5.003   6.968   7.362 -1.7510  0.3297  0.8872
 6091SOL     OW19514   7.716   5.118   5.713 -0.1911 -0.1721 -0.4682
 6091SOL    HW119515   7.621   5.111   5.706 -0.2884 -1.0458  1.2823
 6091SOL    HW219516   7.732   5.211   5.728 -0.9605 -0.2935  1.3104
 6092SOL     OW19517   1.048   6.562   0.299  0.6469  0.1952 -0.1385
 6092SOL    HW119518   1.067   6.641   0.249 -0.2769 -0.0175 -0.8422
 6092SOL    HW219519   1.009   6.502   0.236 -0.4554 -0.1077  0.8093
 6093SOL     OW19520   4.002   7.072   0.845 -0.7912  0.0787  0.5218
 6093SOL    HW119521   4.069   7.009   0.870  0.5611  1.0436 -0.6397
 6093SOL    HW219522   3.990   7.126   0.923 -0.1488 -0.0255  0.6961
 6094SOL     OW19523   7.202   4.113   2.470  0.2360  0.2961 -0.0191
 6094SOL    HW119524   7.202   4.026   2.510  0.7493  0.6698  0.8023
 6094SOL    HW219525   7.239   4.170   2.537  1.0211  0.9497 -0.9988
 6095SOL     OW19526   0.850   4.585   5.236  0.0601 -0.2633  0.1834
 6095SOL    HW119527   0.886   4.498   5.253  1.4760 -0.0826 -1.7402
 6095SOL    HW219528   0.890   4.612   5.154 -1.4701  1.6246  0.0191
 6096SOL     OW19529   1.521   6.295   8.286 -0.1261 -0.3901 -0.8747
 6096SOL    HW119530   1.536   6.201   8.295 -1.2695 -0.5237 -0.1332
 6096SOL    HW219531   1.549   6.316   8.197  1.4979 -1.1462 -0.5650
 6097SOL     OW19532   5.716   7.760   4.015  0.3299 -0.4026 -0.0421
 6097SOL    HW119533   5.709   7.671   4.051 -1.3432  0.7050  2.5437
 6097SOL    HW219534   5.643   7.766   3.954  0.0049 -0.5499  0.3309
 6098SOL     OW19535   2.343   3.473   0.808 -0.0527  0.0568 -0.2585
 6098SOL    HW119536   2.399   3.498   0.735 -1.4714  1.3835 -0.9100
 6098SOL    HW219537   2.403   3.433   0.871  1.4907  0.6712 -1.3027
 6099SOL     OW19538   4.668   2.754   3.331  0.4199 -0.4060 -0.4324
 6099SOL    HW119539   4.742   2.710   3.289  1.3129  1.9293 -1.4090
 6099SOL    HW219540   4.616   2.787   3.258 -0.3700 -0.0878  0.2727
 6100SOL     OW19541   4.340   3.790   3.557  0.3082 -0.6532 -0.4137
 6100SOL    HW119542   4.290   3.712   3.582  1.1757 -1.0091  0.2304
 6100SOL    HW219543   4.274   3.854   3.531 -0.3947 -1.7580 -1.4000
 6101SOL     OW19544   4.209   1.455   5.979  0.0759 -0.1753  1.1546
 6101SOL    HW119545   4.213   1.382   5.917  0.4071  1.5833 -0.9658
 6101SOL    HW219546   4.272   1.432   6.047  1.6093 -0.9533 -0.4964
 6102SOL     OW19547   6.467   1.519   1.636  0.3439 -0.2752 -0.1762
 6102SOL    HW119548   6.501   1.608   1.621  0.5549 -0.4549 -0.7662
 6102SOL    HW219549   6.377   1.533   1.666  0.7375  0.1804  0.8091
 6103SOL     OW19550   7.802   1.044   0.134  0.0458 -0.3714  0.0995
 6103SOL    HW119551   7.849   1.060   0.052  0.1536 -0.8069  0.0720
 6103SOL    HW219552   7.862   1.074   0.202 -0.6556  1.3776 -0.0465
 6104SOL     OW19553   6.894   6.298   6.782  0.1455 -0.0614  0.0266
 6104SOL    HW119554   6.932   6.311   6.695 -0.9917  2.3079 -0.1558
 6104SOL    HW219555   6.963   6.324   6.843  0.7541 -1.1984 -0.1702
 6105SOL     OW19556   6.819   2.406   6.115  0.1241  0.0692 -0.2967
 6105SOL    HW119557   6.759   2.453   6.173 -0.4677 -1.7077  0.5741
 6105SOL    HW219558   6.774   2.404   6.031 -1.1648 -1.4147  0.3996
 6106SOL     OW19559   1.271   3.122   5.238  0.1193 -0.1317 -0.2604
 6106SOL    HW119560   1.295   3.209   5.268  0.0108  0.0450 -0.6807
 6106SOL    HW219561   1.335   3.063   5.279  1.5104  0.3732 -1.6802
 6107SOL     OW19562   7.855   0.268   7.441  0.2644  0.1082 -0.4483
 6107SOL    HW119563   7.812   0.345   7.478 -0.9217 -1.9930  2.7142
 6107SOL    HW219564   7.947   0.277   7.466  0.0961  0.4011  0.0567
 6108SOL     OW19565   5.270   3.999   7.927 -0.7213 -0.2725  0.0429
 6108SOL    HW119566   5.364   4.015   7.928 -0.7160  0.1053 -2.8022
 6108SOL    HW219567   5.239   4.032   8.011  1.5888  0.2116  0.7255
 6109SOL     OW19568   5.081   0.771   1.389  0.2518  0.4691 -0.1098
 6109SOL    HW119569   5.068   0.847   1.333 -2.2778  0.5331  0.4914
 6109SOL    HW219570   5.159   0.791   1.440  0.5229  1.9515 -1.0973
 6110SOL     OW19571   6.180   7.088   8.255 -0.3334 -0.2545  0.6885
 6110SOL    HW119572   6.097   7.091   8.301 -1.5286  0.0535 -1.4474
 6110SOL    HW219573   6.217   7.002   8.278 -2.1387 -1.2034  0.1061
 6111SOL     OW19574   1.474   2.209   6.012  0.4246  0.5994  0.9349
 6111SOL    HW119575   1.397   2.177   5.966  0.8207  0.8181  0.1019
 6111SOL    HW219576   1.512   2.274   5.953  0.4445  1.5543  1.9626
 6112SOL     OW19577   3.251   7.259   0.921  0.4886  0.3293  0.0742
 6112SOL    HW119578   3.210   7.344   0.904 -0.4752 -0.2753 -0.7088
 6112SOL    HW219579   3.314   7.248   0.849  2.0370  1.2560  1.2751
 6113SOL     OW19580   4.888   2.662   0.362  0.1707  0.1024  0.3369
 6113SOL    HW119581   4.973   2.702   0.345 -0.1951  0.6565 -0.1985
 6113SOL    HW219582   4.836   2.682   0.284 -0.8675  0.9042  1.2229
 6114SOL     OW19583   5.438   1.148   7.356  0.2300  0.4515 -1.1841
 6114SOL    HW119584   5.360   1.132   7.409  0.3819 -0.5937 -1.2487
 6114SOL    HW219585   5.448   1.243   7.354  0.6600  0.4958  1.2965
 6115SOL     OW19586   7.773   6.783   6.887  0.2663 -0.1234  0.3425
 6115SOL    HW119587   7.830   6.759   6.960  0.8029 -2.3039 -0.7347
 6115SOL    HW219588   7.829   6.772   6.809 -0.9186  0.0820 -0.5553
 6116SOL     OW19589   5.527   4.723   1.570  0.1397 -0.3140  0.4390
 6116SOL    HW119590   5.456   4.681   1.521 -0.5208  0.9557  0.2888
 6116SOL    HW219591   5.575   4.650   1.609 -0.4760 -1.2526 -0.5093
 6117SOL     OW19592   3.106   4.308   1.497  0.0660  0.2488 -0.0737
 6117SOL    HW119593   3.172   4.252   1.539  0.4176  1.4994  1.0814
 6117SOL    HW219594   3.149   4.337   1.416  0.8975  0.9497  0.6061
 6118SOL     OW19595   3.951   4.710   1.696  0.1911  0.0196  0.2161
 6118SOL    HW119596   3.951   4.805   1.704  0.1821  0.0378  0.0261
 6118SOL    HW219597   3.861   4.688   1.668  0.0748 -0.0831  0.6765
 6119SOL     OW19598   0.739   7.855   5.076 -0.8235 -0.3171  0.5204
 6119SOL    HW119599   0.780   7.891   5.154  0.0131 -1.9990  0.8718
 6119SOL    HW219600   0.779   7.769   5.065 -0.2884  0.2385 -2.2659
 6120SOL     OW19601   4.975   2.770   4.601  0.0613 -0.2974  0.0863
 6120SOL    HW119602   4.942   2.680   4.598  1.5141 -0.7928 -1.3491
 6120SOL    HW219603   4.917   2.818   4.542  0.0208 -0.5433 -0.0777
 6121SOL     OW19604   2.325   6.075   5.859  0.6643  0.6550 -0.3915
 6121SOL    HW119605   2.269   6.133   5.911 -0.8796 -0.7018 -0.4887
 6121SOL    HW219606   2.280   5.990   5.861  2.5023 -0.3523 -0.8568
 6122SOL     OW19607   1.256   8.094   0.902  0.4114  0.7308  0.4276
 6122SOL    HW119608   1.270   8.029   0.834  1.3205  1.3163  0.0414
 6122SOL    HW219609   1.162   8.094   0.917  0.3582 -0.3303  0.0969
 6123SOL     OW19610   4.050   7.129   6.391 -0.2054 -0.1824  0.1165
 6123SOL    HW119611   4.066   7.221   6.371 -0.5510 -0.5736 -2.1628
 6123SOL    HW219612   3.959   7.126   6.419 -1.3357 -0.2731 -3.3002
 6124SOL     OW19613   7.481   3.372   1.660  0.2351  0.3323  0.0512
 6124SOL    HW119614   7.485   3.411   1.573 -1.0112 -0.0659 -0.2013
 6124SOL    HW219615   7.404   3.315   1.657  0.1008  0.4158  1.4472
 6125SOL     OW19616   3.766   4.586   5.236 -0.3760  0.3433 -0.0962
 6125SOL    HW119617   3.697   4.518   5.237 -1.3062  1.2658 -0.5061
 6125SOL    HW219618   3.768   4.619   5.326  0.7440 -0.8684  0.3452
 6126SOL     OW19619   0.478   3.032   7.622 -0.2898 -0.4356  0.0882
 6126SOL    HW119620   0.436   2.946   7.613  1.2242 -1.3864  1.9195
 6126SOL    HW219621   0.530   3.041   7.542 -0.8738 -0.9940 -0.3626
 6127SOL     OW19622   3.558   2.297   1.456  0.4424  0.0373  0.5306
 6127SOL    HW119623   3.490   2.331   1.515  0.2853  0.3123  0.1892
 6127SOL    HW219624   3.536   2.204   1.445 -2.2587  0.9992 -2.8331
 6128SOL     OW19625   7.195   7.892   7.446 -0.2854 -0.1059  0.0604
 6128SOL    HW119626   7.256   7.829   7.484 -0.4744  1.2225  2.7017
 6128SOL    HW219627   7.249   7.948   7.390  0.8198  0.5779  1.7640
 6129SOL     OW19628   4.665   3.484   2.366  0.0604  0.0202 -0.8335
 6129SOL    HW119629   4.638   3.404   2.410 -0.3259  0.3532 -0.4594
 6129SOL    HW219630   4.638   3.554   2.425 -1.2601  0.5113 -1.9898
 6130SOL     OW19631   7.772   3.371   1.271 -0.7101  0.5692  0.0474
 6130SOL    HW119632   7.738   3.296   1.222 -0.6539  0.6103 -0.0546
 6130SOL    HW219633   7.845   3.335   1.322 -0.0813  0.7460 -0.7128
 6131SOL     OW19634   4.080   7.925   8.012  0.5870  0.2135  0.3621
 6131SOL    HW119635   3.999   7.908   7.965 -0.3429 -0.5383  2.1611
 6131SOL    HW219636   4.051   7.952   8.100  2.2452  1.8493  0.4383
 6132SOL     OW19637   5.446   3.742   7.831 -0.0476 -0.3107  0.0727
 6132SOL    HW119638   5.441   3.791   7.749 -0.1036  0.3515  0.4685
 6132SOL    HW219639   5.371   3.774   7.882  0.3195 -0.3044  0.6064
 6133SOL     OW19640   3.997   3.490   2.750 -0.0136 -0.1043  0.5405
 6133SOL    HW119641   3.921   3.447   2.788 -0.2776  0.7470  0.9736
 6133SOL    HW219642   3.963   3.540   2.676  0.6307 -2.5308 -1.4740
 6134SOL     OW19643   0.629   7.604   2.608  0.0667 -0.3775 -0.1177
 6134SOL    HW119644   0.697   7.581   2.671 -1.7225 -2.1838  1.1982
 6134SOL    HW219645   0.580   7.675   2.651  1.5755  1.5394 -1.4307
 6135SOL     OW19646   5.784   4.605   2.080 -0.0496  0.3973 -0.2942
 6135SOL    HW119647   5.752   4.616   2.169  0.0081 -0.4708 -0.1687
 6135SOL    HW219648   5.874   4.573   2.090 -0.6901 -1.5702 -0.6590
 6136SOL     OW19649   5.206   8.215   1.092 -0.1862 -0.3456  0.2312
 6136SOL    HW119650   5.129   8.177   1.134  0.1838 -1.7142 -0.3079
 6136SOL    HW219651   5.207   8.177   1.004  0.4480  0.5738 -0.1712
 6137SOL     OW19652   1.127   0.317   7.860 -0.1719  0.8776 -0.5234
 6137SOL    HW119653   1.186   0.247   7.888  0.1872  1.8939  1.3225
 6137SOL    HW219654   1.045   0.272   7.840  0.7379 -0.3483 -1.5935
 6138SOL     OW19655   3.757   7.279   7.449 -0.0380 -0.3887 -0.3698
 6138SOL    HW119656   3.706   7.198   7.461  0.6787 -0.7202  0.5368
 6138SOL    HW219657   3.841   7.260   7.492  1.0336 -0.0159 -2.2645
 6139SOL     OW19658   3.933   6.643   4.098 -0.2987  0.5800  0.1373
 6139SOL    HW119659   3.926   6.659   4.004 -0.1569  0.7759  0.1598
 6139SOL    HW219660   3.970   6.555   4.104  1.4556  1.2843 -0.0042
 6140SOL     OW19661   6.030   3.762   4.327 -0.3832 -0.2980  0.6334
 6140SOL    HW119662   5.945   3.755   4.282  0.1952  0.7382 -0.6775
 6140SOL    HW219663   6.063   3.673   4.329 -0.8685 -0.5057 -0.1585
 6141SOL     OW19664   7.720   7.561   0.159 -0.3846 -0.3363  0.0307
 6141SOL    HW119665   7.815   7.569   0.155 -0.4656  2.2343  1.8228
 6141SOL    HW219666   7.689   7.611   0.084 -0.3353 -1.7153 -0.9290
 6142SOL     OW19667   8.043   8.165   1.624 -0.2014  0.2066  0.0689
 6142SOL    HW119668   7.957   8.185   1.662 -0.0000  0.9111  0.1487
 6142SOL    HW219669   8.082   8.104   1.686 -0.4594  0.2303  0.2567
 6143SOL     OW19670   2.340   7.113   0.708  0.0511 -0.4959  0.4004
 6143SOL    HW119671   2.277   7.137   0.641 -1.3130 -2.6265  0.8692
 6143SOL    HW219672   2.362   7.196   0.751 -1.4450  0.4455 -0.6038
 6144SOL     OW19673   3.967   1.206   3.296  0.1317  0.0511  0.8481
 6144SOL    HW119674   3.958   1.193   3.201 -0.0729 -0.9128  0.9981
 6144SOL    HW219675   3.911   1.139   3.335 -0.4904  1.0137  1.6521
 6145SOL     OW19676   5.865   2.717   1.710 -0.1565 -0.2530 -0.2208
 6145SOL    HW119677   5.810   2.795   1.696  1.0849  0.3386 -1.9501
 6145SOL    HW219678   5.822   2.648   1.660 -1.1495 -0.6620  1.1557
 6146SOL     OW19679   1.079   5.828   7.183 -0.1625  0.0609 -0.2476
 6146SOL    HW119680   1.035   5.846   7.267  0.7180  1.0792  0.0103
 6146SOL    HW219681   1.160   5.783   7.208 -0.3126 -0.4118 -0.6144
 6147SOL     OW19682   7.113   1.114   4.322 -0.1846 -0.1555 -0.7948
 6147SOL    HW119683   7.022   1.086   4.314  0.0819 -1.2682 -0.0189
 6147SOL    HW219684   7.162   1.049   4.272  0.5276 -1.6338  1.7524
 6148SOL     OW19685   0.769   8.134   7.293  0.7398 -0.1942  0.2887
 6148SOL    HW119686   0.835   8.110   7.227  1.1194 -0.8194  0.8922
 6148SOL    HW219687   0.813   8.200   7.347  1.5280 -1.9451  1.8164
 6149SOL     OW19688   6.117   0.749   6.063 -0.0629 -0.2758  0.0336
 6149SOL    HW119689   6.118   0.696   5.983  0.5083  1.9820 -1.5073
 6149SOL    HW219690   6.209   0.770   6.078 -0.1867 -0.5389  1.2087
 6150SOL     OW19691   0.122   1.343   6.786 -0.5195  0.0714  0.0867
 6150SOL    HW119692   0.084   1.321   6.701  0.5571 -0.1921 -0.3333
 6150SOL    HW219693   0.217   1.345   6.770 -0.2855 -0.3692  1.3592
 6151SOL     OW19694   0.276   7.186   5.809 -0.3598 -0.3295 -0.4413
 6151SOL    HW119695   0.220   7.120   5.767  0.7692 -2.2332  0.9353
 6151SOL    HW219696   0.361   7.176   5.765 -0.1900  0.2120 -0.2336
 6152SOL     OW19697   6.929   7.200   1.150  0.1577 -0.7036  0.2799
 6152SOL    HW119698   6.881   7.167   1.074 -2.2980  2.3292  0.4246
 6152SOL    HW219699   7.021   7.193   1.125 -0.5645 -0.8572 -2.5185
 6153SOL     OW19700   4.391   4.307   4.887  0.2190 -0.1056 -0.3327
 6153SOL    HW119701   4.471   4.312   4.834 -0.5825  0.3970 -1.5216
 6153SOL    HW219702   4.372   4.397   4.911  0.1105 -0.2434  0.1088
 6154SOL     OW19703   6.137   6.000   4.357  0.6189  0.1729 -0.0272
 6154SOL    HW119704   6.083   6.076   4.378 -0.1036 -0.3168 -0.0679
 6154SOL    HW219705   6.073   5.930   4.338  1.2662 -0.7903  1.2724
 6155SOL     OW19706   2.266   5.459   3.528  0.0850 -0.0101  0.0342
 6155SOL    HW119707   2.308   5.472   3.443  1.5747 -1.7649  0.4714
 6155SOL    HW219708   2.205   5.532   3.536 -0.2981  0.0128 -2.6710
 6156SOL     OW19709   8.108   0.535   2.744  0.4580  0.1390  0.4136
 6156SOL    HW119710   8.083   0.619   2.783  0.9492 -0.0519  1.1451
 6156SOL    HW219711   8.141   0.484   2.818  0.0517 -0.7370 -0.0158
 6157SOL     OW19712   7.613   8.246   5.193 -0.6931 -0.2790 -0.2030
 6157SOL    HW119713   7.541   8.235   5.256 -0.9409 -1.0558 -0.6229
 6157SOL    HW219714   7.570   8.245   5.107 -0.2257 -0.2872 -0.4358
 6158SOL     OW19715   3.693   3.780   5.867 -0.2230  0.7394  0.1809
 6158SOL    HW119716   3.783   3.794   5.898 -0.1788  0.5671  0.1263
 6158SOL    HW219717   3.702   3.721   5.792 -0.5026 -0.3807  1.0148
 6159SOL     OW19718   0.609   3.708   7.386  0.6604  0.1414  0.2860
 6159SOL    HW119719   0.596   3.800   7.410 -2.1454 -0.4488  1.2922
 6159SOL    HW219720   0.562   3.699   7.303  1.1900 -0.3147  0.0393
 6160SOL     OW19721   7.501   1.018   3.060 -0.4665 -0.1868 -0.0810
 6160SOL    HW119722   7.465   0.963   2.991  0.2904  0.6144 -1.1383
 6160SOL    HW219723   7.548   1.087   3.013  1.2996 -0.4659  1.2427
 6161SOL     OW19724   1.606   0.173   6.322  0.2636  0.1257 -0.1381
 6161SOL    HW119725   1.545   0.156   6.251  1.5242  0.7364 -1.3892
 6161SOL    HW219726   1.615   0.268   6.325  1.0686  0.0480  0.1116
 6162SOL     OW19727   0.595   5.145   6.388  0.4925  0.3106 -0.2867
 6162SOL    HW119728   0.565   5.130   6.299  0.5364  1.5475 -0.5193
 6162SOL    HW219729   0.592   5.240   6.399  0.1959  0.1568  1.1292
 6163SOL     OW19730   1.493   5.443   7.561 -0.5762  0.3198  0.0974
 6163SOL    HW119731   1.499   5.362   7.611  0.6230  0.7273  0.6403
 6163SOL    HW219732   1.434   5.422   7.488 -1.1537 -0.7070  0.8407
 6164SOL     OW19733   1.048   3.076   4.540  0.6531  0.2160 -0.2790
 6164SOL    HW119734   0.983   3.098   4.606  0.5440 -1.3991  0.1478
 6164SOL    HW219735   1.040   3.146   4.475 -0.9347  0.4560  0.1675
 6165SOL     OW19736   0.832   4.500   1.561  0.3294 -0.3759  0.1196
 6165SOL    HW119737   0.764   4.448   1.517 -0.6125  0.1038  0.9758
 6165SOL    HW219738   0.812   4.591   1.537  1.1271 -0.2889 -0.2329
 6166SOL     OW19739   7.377   3.882   2.161  0.4532 -0.2377 -0.2250
 6166SOL    HW119740   7.349   3.894   2.251 -0.2139  2.1501 -0.7280
 6166SOL    HW219741   7.448   3.946   2.149 -0.3915  0.4324 -1.7885
 6167SOL     OW19742   5.484   4.897   0.655 -0.2980  0.2559  0.2480
 6167SOL    HW119743   5.474   4.919   0.562 -2.9771  0.4739  0.5631
 6167SOL    HW219744   5.480   4.981   0.700 -0.7244  0.0020  0.6914
 6168SOL     OW19745   4.990   5.907   7.840 -0.5458 -0.2879  0.3995
 6168SOL    HW119746   5.056   5.936   7.776 -0.7465 -2.3422 -0.7845
 6168SOL    HW219747   5.027   5.932   7.925  0.8078  0.4078 -0.3716
 6169SOL     OW19748   2.748   4.467   3.484 -0.3003 -0.2651 -0.5118
 6169SOL    HW119749   2.786   4.546   3.444 -0.1320  0.2515  0.6615
 6169SOL    HW219750   2.731   4.492   3.575  1.2891 -2.0881  0.3146
 6170SOL     OW19751   5.287   7.060   5.005  0.2664 -0.4069 -0.5416
 6170SOL    HW119752   5.362   7.091   5.055 -0.6675  1.6849 -0.4004
 6170SOL    HW219753   5.316   7.063   4.914  0.5207 -0.0529 -0.4515
 6171SOL     OW19754   1.641   0.437   6.317 -0.3345 -0.3111 -0.1423
 6171SOL    HW119755   1.557   0.480   6.303 -0.1603  0.4072  1.0121
 6171SOL    HW219756   1.700   0.477   6.253 -0.7099 -0.4177 -0.5648
 6172SOL     OW19757   0.216   3.225   2.428 -0.2836 -0.8754 -0.2405
 6172SOL    HW119758   0.158   3.154   2.403  0.3274 -2.0499  1.5386
 6172SOL    HW219759   0.250   3.259   2.346 -1.7584 -1.6318 -1.1828
 6173SOL     OW19760   6.122   0.543   7.740  0.3010 -0.0647 -0.0490
 6173SOL    HW119761   6.124   0.509   7.651  2.0059 -0.1192 -0.0154
 6173SOL    HW219762   6.139   0.467   7.795 -0.3581  0.0370  0.2982
 6174SOL     OW19763   6.318   4.291   7.267  0.3536 -0.9837  0.4360
 6174SOL    HW119764   6.315   4.373   7.318 -0.3877 -1.9966  2.0616
 6174SOL    HW219765   6.412   4.276   7.252  0.5201 -0.0807  0.5254
 6175SOL     OW19766   2.696   0.886   1.564  0.4485  0.0724  0.2395
 6175SOL    HW119767   2.624   0.841   1.608  0.1964  2.0509  1.9358
 6175SOL    HW219768   2.773   0.868   1.618  0.3630  1.5438  0.8895
 6176SOL     OW19769   5.938   0.932   5.947  0.0487 -0.0089  0.1887
 6176SOL    HW119770   6.003   0.933   5.875 -1.7194 -2.1676 -1.5078
 6176SOL    HW219771   5.989   0.906   6.024  1.3212 -1.3352 -1.0460
 6177SOL     OW19772   5.831   7.946   5.615 -0.0061 -0.3163 -0.3660
 6177SOL    HW119773   5.873   7.890   5.681 -1.4787 -1.1191 -0.0869
 6177SOL    HW219774   5.844   8.035   5.648 -0.2052 -0.6779  0.7084
 6178SOL     OW19775   2.152   5.700   1.028 -0.1777  0.5632  0.2931
 6178SOL    HW119776   2.213   5.739   1.090  0.2693  0.1046  0.1421
 6178SOL    HW219777   2.067   5.704   1.073  0.1831  0.0182  1.0340
 6179SOL     OW19778   7.043   1.352   7.692  0.7447 -0.0696  0.0647
 6179SOL    HW119779   7.010   1.368   7.780 -1.2467 -0.0741 -0.6553
 6179SOL    HW219780   7.136   1.374   7.697  0.3855  1.1609  1.8395
 6180SOL     OW19781   0.284   0.199   5.546  0.0624 -0.0961 -0.4374
 6180SOL    HW119782   0.330   0.135   5.491 -1.5411 -0.7573 -1.0414
 6180SOL    HW219783   0.192   0.176   5.537 -0.5551  2.4239 -0.7590
 6181SOL     OW19784   0.102   8.290   6.909 -0.7948  0.1939  0.2018
 6181SOL    HW119785   0.168   8.236   6.866  0.6785  1.0035  1.4134
 6181SOL    HW219786   0.134   8.380   6.898 -0.9452  0.4939  2.0326
 6182SOL     OW19787   7.182   5.674   0.558 -0.1369 -0.1104 -0.5009
 6182SOL    HW119788   7.173   5.754   0.610 -2.3847 -1.1841  0.8723
 6182SOL    HW219789   7.275   5.654   0.559  0.2334  1.6074  0.5242
 6183SOL     OW19790   4.136   1.742   7.008 -0.2069 -1.1108  0.6834
 6183SOL    HW119791   4.130   1.817   6.949  0.2475 -0.9990  0.7790
 6183SOL    HW219792   4.128   1.665   6.952 -0.0894 -0.9988  0.5161
 6184SOL     OW19793   6.323   7.638   4.197  0.2969  0.2728 -0.3821
 6184SOL    HW119794   6.308   7.714   4.141  0.1968 -0.1010 -0.8510
 6184SOL    HW219795   6.379   7.672   4.267 -0.2484  0.9256 -0.2605
 6185SOL     OW19796   2.261   5.663   3.838  0.2283 -0.1300 -0.5584
 6185SOL    HW119797   2.313   5.738   3.866  2.0635 -0.3754 -3.0567
 6185SOL    HW219798   2.204   5.698   3.769 -0.8726 -0.4709  0.1704
 6186SOL     OW19799   8.247   1.177   8.115  0.0332  0.2517  0.1478
 6186SOL    HW119800   8.247   1.143   8.204  0.0449 -0.1389 -0.0030
 6186SOL    HW219801   8.154   1.189   8.094 -0.2402 -3.6630 -1.3150
 6187SOL     OW19802   4.847   5.479   7.914 -0.1692  0.3622  0.5470
 6187SOL    HW119803   4.874   5.389   7.899 -0.7613 -0.1459  2.3689
 6187SOL    HW219804   4.752   5.474   7.920 -0.2656  1.2481 -0.1325
 6188SOL     OW19805   1.245   3.584   6.310  0.0653  0.1373  0.5028
 6188SOL    HW119806   1.293   3.654   6.266  0.4661 -0.1262  0.5207
 6188SOL    HW219807   1.312   3.522   6.336 -0.4782 -1.3406 -1.4578
 6189SOL     OW19808   6.910   2.221   1.359  0.5420 -0.1020  0.0598
 6189SOL    HW119809   6.983   2.194   1.305  1.1012 -0.6923  1.0966
 6189SOL    HW219810   6.904   2.154   1.428 -0.7836  0.0867  0.1534
 6190SOL     OW19811   4.902   1.318   6.801  0.2027  0.1552 -0.1544
 6190SOL    HW119812   4.856   1.393   6.763 -0.2766 -0.3658 -0.6099
 6190SOL    HW219813   4.911   1.256   6.728  0.9317 -0.0697  0.1258
 6191SOL     OW19814   0.297   2.920   0.429 -0.0794  0.2983 -0.2542
 6191SOL    HW119815   0.246   2.975   0.371 -0.5072  0.0322 -0.1322
 6191SOL    HW219816   0.238   2.848   0.453 -0.4834  1.3004  1.8687
 6192SOL     OW19817   1.296   5.338   6.217 -0.6662 -0.1495 -0.0645
 6192SOL    HW119818   1.273   5.315   6.127  0.2484 -1.1878 -0.0402
 6192SOL    HW219819   1.225   5.300   6.269 -0.6342 -0.4875 -0.2612
 6193SOL     OW19820   1.177   5.486   6.868  0.1117  0.4203  0.0153
 6193SOL    HW119821   1.243   5.438   6.819 -0.9332 -0.2528 -0.7661
 6193SOL    HW219822   1.174   5.444   6.953 -0.4361 -0.5755 -0.4936
 6194SOL     OW19823   5.815   6.140   5.336  0.1012 -0.1691 -0.0108
 6194SOL    HW119824   5.824   6.046   5.318 -0.5656  0.3707 -3.5926
 6194SOL    HW219825   5.905   6.169   5.356  0.5977 -1.2438 -0.6485
 6195SOL     OW19826   1.670   6.964   1.542 -0.3672  0.3619 -0.2185
 6195SOL    HW119827   1.760   6.972   1.508 -0.5657 -1.5214 -1.2148
 6195SOL    HW219828   1.675   6.892   1.605 -0.6758  1.8528  1.5684
 6196SOL     OW19829   3.160   5.387   8.111 -0.0583  0.0277 -0.6758
 6196SOL    HW119830   3.144   5.301   8.071  0.2068 -0.2522 -0.1831
 6196SOL    HW219831   3.184   5.367   8.202 -1.4717  0.6992 -0.1379
 6197SOL     OW19832   7.320   5.146   8.285  0.4061  0.1686 -0.1818
 6197SOL    HW119833   7.406   5.143   8.327  1.1603  0.8092 -1.6199
 6197SOL    HW219834   7.326   5.220   8.224 -1.1075  0.1126 -0.4191
 6198SOL     OW19835   4.317   3.801   0.920  0.1056 -0.0929  0.2087
 6198SOL    HW119836   4.373   3.879   0.930 -1.0037  0.6483  0.6816
 6198SOL    HW219837   4.346   3.742   0.990  1.6310 -0.5402 -0.7646
 6199SOL     OW19838   2.750   4.557   1.805  0.3631 -0.1343 -0.5187
 6199SOL    HW119839   2.827   4.562   1.862  0.8283  0.7892 -1.2160
 6199SOL    HW219840   2.695   4.489   1.846  1.9424 -1.4514 -0.4996
 6200SOL     OW19841   7.112   5.083   1.361  0.3554 -0.2891 -0.3583
 6200SOL    HW119842   7.117   5.178   1.368  0.9116 -0.2089 -1.7289
 6200SOL    HW219843   7.180   5.050   1.419  0.9172  0.1783 -0.7573
 6201SOL     OW19844   3.698   8.257   8.154  0.5187 -0.1087 -0.0746
 6201SOL    HW119845   3.666   8.185   8.099  1.2063  0.0753 -0.7135
 6201SOL    HW219846   3.658   8.335   8.117  0.8807  0.0022 -0.2235
 6202SOL     OW19847   1.006   0.298   0.378  0.1266  0.0357 -0.2209
 6202SOL    HW119848   1.086   0.342   0.351  1.7296 -1.7390  1.4676
 6202SOL    HW219849   0.973   0.350   0.451 -0.1669  0.6444 -0.7776
 6203SOL     OW19850   7.779   6.400   3.984  0.1906 -0.1277 -0.6211
 6203SOL    HW119851   7.713   6.331   3.994 -0.5739  0.3934 -1.9530
 6203SOL    HW219852   7.728   6.480   3.970  1.1055  0.0878 -2.9292
 6204SOL     OW19853   0.535   5.122   5.835  0.1500 -0.9500  0.2921
 6204SOL    HW119854   0.609   5.182   5.827 -1.3665  0.6022 -2.5334
 6204SOL    HW219855   0.570   5.049   5.886  2.6767  1.2437  1.8579
 6205SOL     OW19856   7.236   2.342   4.624 -0.1767 -0.1755 -0.1899
 6205SOL    HW119857   7.292   2.267   4.604 -3.2011 -2.5593 -0.2333
 6205SOL    HW219858   7.220   2.384   4.540  1.0801  0.2186 -0.2433
 6206SOL     OW19859   3.872   6.835   4.290 -0.3573  0.4563 -0.1719
 6206SOL    HW119860   3.864   6.779   4.367 -1.7329  1.1719  0.2245
 6206SOL    HW219861   3.873   6.774   4.216  1.3259 -0.2512  0.4122
 6207SOL     OW19862   4.499   4.613   3.613  0.0312 -0.7974 -0.0100
 6207SOL    HW119863   4.545   4.609   3.697 -1.3742  1.3448  0.8927
 6207SOL    HW219864   4.440   4.688   3.622  1.6707  1.0569 -3.8338
 6208SOL     OW19865   2.611   2.466   4.888 -0.3283  0.0483  0.3025
 6208SOL    HW119866   2.577   2.419   4.812  0.2047  1.8217 -1.0611
 6208SOL    HW219867   2.702   2.437   4.895 -1.0155 -1.9191  1.7495
 6209SOL     OW19868   1.614   5.810   2.029  0.8482  0.2479  0.1073
 6209SOL    HW119869   1.680   5.803   1.960  1.9618  0.1210  1.1675
 6209SOL    HW219870   1.532   5.788   1.986  1.4046  0.9962 -1.3813
 6210SOL     OW19871   3.349   1.634   7.720 -0.2666  0.2991  0.0808
 6210SOL    HW119872   3.422   1.685   7.685 -0.7683  0.3939 -0.8512
 6210SOL    HW219873   3.322   1.681   7.798  0.3525  0.5329  0.1577
 6211SOL     OW19874   5.313   2.023   6.613 -0.1942  0.5263 -0.3667
 6211SOL    HW119875   5.304   2.045   6.706 -1.9896  1.1837 -0.6629
 6211SOL    HW219876   5.388   2.075   6.583  0.5299  0.1352  0.7567
 6212SOL     OW19877   5.486   2.679   7.782 -0.4410 -0.3654  0.4139
 6212SOL    HW119878   5.475   2.584   7.779 -0.0066 -0.4132  0.2101
 6212SOL    HW219879   5.471   2.702   7.874 -1.1263 -0.5555  0.3501
 6213SOL     OW19880   2.702   5.188   6.971 -0.5852  0.0334 -0.6357
 6213SOL    HW119881   2.616   5.193   6.928 -0.4980  0.4796 -0.7656
 6213SOL    HW219882   2.756   5.138   6.911 -0.9233 -0.7711 -0.2706
 6214SOL     OW19883   8.105   1.790   0.673 -0.5694 -0.8173  0.2724
 6214SOL    HW119884   8.134   1.876   0.640  0.8275 -0.5824  2.0111
 6214SOL    HW219885   8.114   1.731   0.598  1.3077 -0.0382 -0.1470
 6215SOL     OW19886   6.672   4.173   4.592 -0.4590  0.1241  0.1315
 6215SOL    HW119887   6.764   4.154   4.609 -0.3736  0.1563 -0.2790
 6215SOL    HW219888   6.639   4.094   4.549 -1.4130 -1.1246  3.0429
 6216SOL     OW19889   7.545   8.011   3.441 -0.5866 -0.3225  0.5682
 6216SOL    HW119890   7.494   8.052   3.512 -0.0268  1.7679 -0.2146
 6216SOL    HW219891   7.535   8.070   3.367  0.5145 -1.4637 -0.5118
 6217SOL     OW19892   3.913   4.373   6.893  0.0152 -0.0675 -0.3465
 6217SOL    HW119893   3.945   4.461   6.918  0.8328 -0.2897 -0.5847
 6217SOL    HW219894   3.882   4.384   6.803  0.5094 -0.1169 -0.5252
 6218SOL     OW19895   7.277   1.515   3.327  0.3040 -0.2263 -0.0370
 6218SOL    HW119896   7.368   1.543   3.330  0.0414  0.7327 -0.6441
 6218SOL    HW219897   7.244   1.552   3.245 -1.0734  0.8187  0.9731
 6219SOL     OW19898   8.170   0.965   4.320 -0.7715 -0.6836  0.6118
 6219SOL    HW119899   8.098   1.028   4.316 -0.3528 -0.1541  1.2081
 6219SOL    HW219900   8.184   0.951   4.414 -0.5969 -1.3619  0.4843
 6220SOL     OW19901   8.297   4.543   0.541 -0.2233 -0.5105 -0.0456
 6220SOL    HW119902   8.278   4.451   0.525 -2.4255  0.0722 -1.0352
 6220SOL    HW219903   8.246   4.565   0.619  0.3435 -0.1467  0.2240
 6221SOL     OW19904   1.508   6.569   2.138 -0.0268 -0.3808  0.1972
 6221SOL    HW119905   1.495   6.583   2.232  1.0369 -0.2450  0.3340
 6221SOL    HW219906   1.584   6.622   2.116 -1.7355  1.5423 -1.2666
 6222SOL     OW19907   5.421   2.165   0.972 -0.7816 -0.3554  0.0284
 6222SOL    HW119908   5.476   2.118   0.909 -0.1616  0.5535 -0.1164
 6222SOL    HW219909   5.437   2.121   1.056  0.8775  0.4769  0.1649
 6223SOL     OW19910   2.883   7.937   5.797  0.4293 -0.0213  0.2923
 6223SOL    HW119911   2.883   8.014   5.741  1.9673  0.1038  0.4562
 6223SOL    HW219912   2.891   7.972   5.886  0.6016 -0.3470  0.4048
 6224SOL     OW19913   3.539   7.909   0.906  0.0855 -0.4643 -0.3372
 6224SOL    HW119914   3.564   7.998   0.882 -0.7224 -0.6206 -1.7966
 6224SOL    HW219915   3.459   7.892   0.857 -1.9351 -0.6448  2.8355
 6225SOL     OW19916   3.427   2.087   4.135 -0.1230  0.1950 -0.1628
 6225SOL    HW119917   3.416   2.108   4.227 -0.6863 -1.0119  0.0569
 6225SOL    HW219918   3.456   1.995   4.135  0.4762  0.3733 -1.1585
 6226SOL     OW19919   6.928   5.250   3.021  0.1420 -0.2047  0.1642
 6226SOL    HW119920   6.955   5.309   3.092  0.2788 -0.0693  0.0010
 6226SOL    HW219921   7.011   5.217   2.985  0.1496  1.1746 -1.1525
 6227SOL     OW19922   6.935   4.754   7.738 -0.3640 -0.1830 -0.4892
 6227SOL    HW119923   6.987   4.834   7.744 -0.5783  0.2057 -3.2846
 6227SOL    HW219924   6.975   4.705   7.666 -0.8282 -2.1725  0.5677
 6228SOL     OW19925   1.701   7.840   4.864 -0.3928 -0.2716  0.0548
 6228SOL    HW119926   1.612   7.807   4.868 -0.1221 -0.9330  0.4890
 6228SOL    HW219927   1.757   7.763   4.874  0.2535 -0.2527 -2.7523
 6229SOL     OW19928   5.147   7.760   0.470 -0.1420 -0.4043  0.5851
 6229SOL    HW119929   5.093   7.700   0.521 -0.5397 -0.8416 -0.3332
 6229SOL    HW219930   5.236   7.727   0.479  0.2009  1.1603  3.3102
 6230SOL     OW19931   7.207   6.001   7.719 -0.7444  0.0746 -0.1436
 6230SOL    HW119932   7.216   6.096   7.733 -1.7875  0.3312 -1.1969
 6230SOL    HW219933   7.154   5.971   7.793 -0.1421  0.2514  0.3693
 6231SOL     OW19934   1.638   0.207   3.986 -0.1268 -0.2072  0.2003
 6231SOL    HW119935   1.651   0.261   4.064  2.0622 -1.2798  0.6148
 6231SOL    HW219936   1.723   0.208   3.942 -0.4795 -2.1023 -0.5678
 6232SOL     OW19937   6.723   0.562   3.641  0.6226 -0.0422  0.1256
 6232SOL    HW119938   6.779   0.548   3.565  1.6095  1.0420  0.6275
 6232SOL    HW219939   6.675   0.480   3.652 -0.6786  0.2989 -2.5883
 6233SOL     OW19940   2.220   2.335   4.534  0.1628  0.1711  0.2872
 6233SOL    HW119941   2.171   2.382   4.466  0.8422 -0.1880 -0.4571
 6233SOL    HW219942   2.214   2.243   4.509  0.7938  0.0808  0.4527
 6234SOL     OW19943   1.390   7.418   4.109 -0.8241 -0.7818  0.1502
 6234SOL    HW119944   1.306   7.375   4.096 -0.0173 -2.5392  0.5815
 6234SOL    HW219945   1.411   7.457   4.024 -2.0653 -0.3415  0.0491
 6235SOL     OW19946   4.220   2.934   6.181 -0.7771 -0.3709 -0.1926
 6235SOL    HW119947   4.136   2.908   6.221 -0.2521 -0.3819  0.9236
 6235SOL    HW219948   4.281   2.938   6.255 -0.3659  2.0757 -0.6488
 6236SOL     OW19949   2.095   1.338   7.956 -0.2205 -0.3871  0.2114
 6236SOL    HW119950   2.048   1.262   7.921 -0.4228 -0.4256  0.5688
 6236SOL    HW219951   2.044   1.365   8.032 -1.0631  1.1147 -0.8832
 6237SOL     OW19952   4.611   3.725   6.112 -0.4528 -0.3099  0.3813
 6237SOL    HW119953   4.693   3.686   6.143  0.3863  0.4055 -0.8837
 6237SOL    HW219954   4.615   3.816   6.142 -0.6181 -0.1833  0.0291
 6238SOL     OW19955   3.241   6.125   5.441  0.1756  0.1067 -0.5110
 6238SOL    HW119956   3.330   6.152   5.463  1.5571 -2.0049 -3.1789
 6238SOL    HW219957   3.229   6.040   5.484 -0.6231  0.4783  0.0146
 6239SOL     OW19958   0.029   7.900   4.647  0.2175  0.3423  0.3733
 6239SOL    HW119959   0.066   7.945   4.724  3.3799 -0.4797 -0.6026
 6239SOL    HW219960   0.005   7.813   4.680 -1.0538  0.9190  1.0359
 6240SOL     OW19961   0.553   4.078   3.744 -0.1062  0.2427  0.6815
 6240SOL    HW119962   0.533   4.166   3.775 -0.2123  0.5360 -0.2143
 6240SOL    HW219963   0.513   4.020   3.809 -0.3969  0.8534  1.0472
 6241SOL     OW19964   4.920   5.204   2.008  0.2961 -0.0493  0.3154
 6241SOL    HW119965   4.921   5.117   1.969 -0.2154 -0.8852  2.1274
 6241SOL    HW219966   4.871   5.258   1.945 -0.7246 -1.4293 -0.0939
 6242SOL     OW19967   4.433   6.592   2.363 -0.0512  0.3567  0.5365
 6242SOL    HW119968   4.494   6.653   2.404  0.2289 -0.2849  1.0843
 6242SOL    HW219969   4.422   6.624   2.274  0.3264  1.0339  0.7353
 6243SOL     OW19970   7.280   4.767   2.993  0.1414  0.2389 -0.3688
 6243SOL    HW119971   7.361   4.748   2.947  0.9612 -0.2048  1.2176
 6243SOL    HW219972   7.227   4.817   2.930 -0.0579 -2.9536 -2.8715
 6244SOL     OW19973   3.747   7.038   1.039 -0.0693 -0.7321 -0.5285
 6244SOL    HW119974   3.745   6.979   0.964  0.8593  0.1258 -1.2444
 6244SOL    HW219975   3.675   7.099   1.023 -0.0465 -0.7168 -0.5693
 6245SOL     OW19976   1.237   0.585   7.798  0.0964  0.0380  0.1050
 6245SOL    HW119977   1.206   0.495   7.804  1.3533 -0.4148  0.1125
 6245SOL    HW219978   1.164   0.634   7.761 -1.7066 -0.3743  3.0178
 6246SOL     OW19979   5.969   6.501   5.156 -0.2840  0.5418 -0.6527
 6246SOL    HW119980   5.971   6.588   5.117 -1.6505  0.0333 -1.9247
 6246SOL    HW219981   5.879   6.489   5.184  0.5514  0.6588  2.2073
 6247SOL     OW19982   4.180   4.648   1.325  0.0732 -0.4015 -0.1465
 6247SOL    HW119983   4.232   4.590   1.269 -0.2289  0.2827 -1.1525
 6247SOL    HW219984   4.238   4.721   1.345  0.8210 -1.5568  2.0265
 6248SOL     OW19985   0.257   5.303   5.340  0.6822  0.0056 -0.0085
 6248SOL    HW119986   0.256   5.213   5.371 -0.5962  0.2936  0.8033
 6248SOL    HW219987   0.325   5.346   5.393  1.6081 -0.5729 -0.7062
 6249SOL     OW19988   0.208   1.209   4.491  0.0601 -1.0374 -0.3973
 6249SOL    HW119989   0.161   1.135   4.528 -0.1370 -0.8926 -0.3616
 6249SOL    HW219990   0.194   1.280   4.553 -0.6728 -0.6580 -0.9882
 6250SOL     OW19991   7.282   2.462   0.771 -0.1666  0.4651  0.5638
 6250SOL    HW119992   7.189   2.477   0.755 -0.5070 -0.4753  1.5836
 6250SOL    HW219993   7.287   2.370   0.798  0.8704  0.8981  1.8959
 6251SOL     OW19994   7.508   4.739   2.850  0.0280 -0.2890 -0.0864
 6251SOL    HW119995   7.565   4.700   2.917  0.0443 -0.3892 -0.1587
 6251SOL    HW219996   7.487   4.666   2.792 -0.9233 -0.4617  0.4560
 6252SOL     OW19997   0.369   2.888   0.050  0.3113  0.5666  0.6615
 6252SOL    HW119998   0.289   2.836   0.037  0.5450  0.7257 -1.5298
 6252SOL    HW219999   0.337   2.979   0.052  0.3383  0.5762  0.6574
 6253SOL     OW20000   3.043   6.071   3.615 -0.3035 -0.2682  0.5719
 6253SOL    HW120001   3.021   5.989   3.658  1.5821 -1.3399 -0.4471
 6253SOL    HW220002   3.132   6.091   3.646 -0.9801  1.7589  1.3382
 6254SOL     OW20003   7.530   3.536   0.742  0.1761  0.5003 -0.1089
 6254SOL    HW120004   7.478   3.567   0.668 -2.3914 -1.4726  0.7719
 6254SOL    HW220005   7.590   3.609   0.761 -0.6190  1.9155 -2.6738
 6255SOL     OW20006   0.449   2.986   6.157  0.0450  0.3406 -0.0207
 6255SOL    HW120007   0.478   2.967   6.246 -0.7197 -0.8424 -0.0214
 6255SOL    HW220008   0.417   3.076   6.162  2.2586  1.1405  0.3239
 6256SOL     OW20009   2.818   8.103   6.696  0.0668  0.0003  0.4564
 6256SOL    HW120010   2.811   8.119   6.602 -0.5332  1.0746  0.6808
 6256SOL    HW220011   2.880   8.169   6.728  0.1785 -0.2828  0.8310
 6257SOL     OW20012   2.750   0.118   7.250  0.2162 -0.1379 -0.3274
 6257SOL    HW120013   2.662   0.093   7.276 -0.2354  1.3824 -0.3860
 6257SOL    HW220014   2.805   0.091   7.324 -0.0321 -2.5841 -0.9682
 6258SOL     OW20015   3.228   5.735   2.022  0.2966  0.6079  0.3008
 6258SOL    HW120016   3.156   5.775   2.069  0.8957  2.4872 -0.3585
 6258SOL    HW220017   3.296   5.722   2.088 -0.5523 -1.0214  0.8873
 6259SOL     OW20018   3.515   1.299   7.020  0.1696 -0.5859 -0.4045
 6259SOL    HW120019   3.459   1.363   6.976  0.7160 -0.9466 -1.6594
 6259SOL    HW220020   3.467   1.217   7.013 -1.4765 -0.0042  2.9703
 6260SOL     OW20021   7.066   5.284   0.455  0.0357 -0.7798  0.5665
 6260SOL    HW120022   7.144   5.297   0.510  1.3989 -3.8026 -0.5741
 6260SOL    HW220023   7.096   5.300   0.366 -1.3845  0.8945  0.3652
 6261SOL     OW20024   0.156   4.812   7.285  0.2011 -0.1324  0.1108
 6261SOL    HW120025   0.136   4.723   7.257  0.3248 -0.9541  2.5146
 6261SOL    HW220026   0.077   4.862   7.263 -0.3384 -1.0845 -0.1529
 6262SOL     OW20027   6.064   6.256   5.400 -0.0269  0.6235  0.5996
 6262SOL    HW120028   6.046   6.346   5.373 -1.1596 -0.1675 -1.4000
 6262SOL    HW220029   6.127   6.224   5.335 -2.7337 -1.3037 -1.1452
 6263SOL     OW20030   5.373   2.059   6.888  0.1111  0.1984 -0.1241
 6263SOL    HW120031   5.442   2.101   6.939  0.9863 -2.4388  0.9419
 6263SOL    HW220032   5.389   1.965   6.899 -2.7376 -0.4384 -1.1144
 6264SOL     OW20033   7.765   3.095   8.141  0.0145 -0.1648  0.0051
 6264SOL    HW120034   7.735   3.071   8.053 -3.3215  0.9870  0.7631
 6264SOL    HW220035   7.763   3.013   8.191  1.8926 -0.8185 -0.9288
 6265SOL     OW20036   2.727   0.087   6.986  0.4664  0.5915  0.2124
 6265SOL    HW120037   2.640   0.116   6.957 -0.2354 -1.6908 -0.0214
 6265SOL    HW220038   2.715   0.065   7.078  0.2926 -1.6398 -0.3270
 6266SOL     OW20039   6.301   5.329   3.921  0.6643 -0.0415  0.2073
 6266SOL    HW120040   6.369   5.313   3.986 -0.2012  1.5149  1.5399
 6266SOL    HW220041   6.225   5.355   3.973 -0.3232  0.2882 -1.3907
 6267SOL     OW20042   3.240   1.209   2.600  0.3748  0.1379  0.4239
 6267SOL    HW120043   3.274   1.294   2.573  1.2336 -0.2991  0.0866
 6267SOL    HW220044   3.263   1.150   2.528  0.8957 -0.6249  1.2047
 6268SOL     OW20045   3.443   6.415   1.601  0.0669 -0.0816  0.4876
 6268SOL    HW120046   3.478   6.491   1.555 -0.0804 -0.7880 -0.8287
 6268SOL    HW220047   3.395   6.452   1.675  0.0634  1.1115 -0.0867
 6269SOL     OW20048   3.737   1.476   0.012  0.1359 -0.3913  0.0844
 6269SOL    HW120049   3.823   1.517   0.018 -0.1281  0.3145 -0.8369
 6269SOL    HW220050   3.677   1.540   0.050 -0.4596  0.6909 -2.6172
 6270SOL     OW20051   3.657   4.400   4.617 -0.4258 -0.2258  1.2459
 6270SOL    HW120052   3.683   4.490   4.600 -1.8196 -0.2510 -1.2677
 6270SOL    HW220053   3.565   4.406   4.643 -0.7526 -0.9741  0.2949
 6271SOL     OW20054   4.844   5.611   3.016  0.5762  0.2016  0.5531
 6271SOL    HW120055   4.754   5.625   3.046  0.3270  1.0492 -0.5443
 6271SOL    HW220056   4.835   5.554   2.940  1.1292 -1.2107  1.5354
 6272SOL     OW20057   0.658   8.032   3.743  0.2371  0.2018 -0.2438
 6272SOL    HW120058   0.586   8.057   3.685 -0.4952  1.1713  1.0334
 6272SOL    HW220059   0.684   8.113   3.786  2.8419  0.0437 -1.4760
 6273SOL     OW20060   4.626   6.106   2.382 -0.2830 -0.3435  0.3299
 6273SOL    HW120061   4.712   6.070   2.359  0.3482  0.6001  1.1826
 6273SOL    HW220062   4.639   6.200   2.383 -1.4729 -0.1725 -0.0662
 6274SOL     OW20063   4.103   7.871   7.228  0.1715 -0.6111  0.2054
 6274SOL    HW120064   4.128   7.869   7.320 -0.0314 -2.0828  0.2462
 6274SOL    HW220065   4.010   7.893   7.229 -0.0872 -1.6922  0.4176
 6275SOL     OW20066   4.968   4.287   4.672 -0.2316 -0.0218  0.0444
 6275SOL    HW120067   4.998   4.196   4.681  1.1927  0.3350 -1.0472
 6275SOL    HW220068   4.902   4.283   4.602 -0.2514 -0.2306  0.0732
 6276SOL     OW20069   0.887   6.626   5.833  0.3002  0.0729 -0.1779
 6276SOL    HW120070   0.841   6.625   5.917 -0.0432 -1.2620 -0.3649
 6276SOL    HW220071   0.926   6.713   5.827 -1.5654  0.9532  0.3347
 6277SOL     OW20072   2.032   7.263   4.653  0.1712  0.0768  0.1652
 6277SOL    HW120073   2.026   7.185   4.599  0.2203 -0.2936  0.6970
 6277SOL    HW220074   1.960   7.318   4.623  0.3502 -0.0197 -0.4487
 6278SOL     OW20075   3.422   5.830   1.832 -0.2544  0.8648  0.2365
 6278SOL    HW120076   3.364   5.831   1.756  0.3872  1.4454 -0.2523
 6278SOL    HW220077   3.381   5.770   1.893  0.5373 -1.6235 -1.6037
 6279SOL     OW20078   0.979   5.552   1.023 -0.2135 -0.1840 -0.1585
 6279SOL    HW120079   1.041   5.624   1.036  0.3034 -0.6282 -0.1436
 6279SOL    HW220080   0.921   5.584   0.953 -1.7393  1.3633  1.7541
 6280SOL     OW20081   1.157   1.158   5.078 -0.3447 -0.2235 -0.0905
 6280SOL    HW120082   1.228   1.149   5.015  1.0700 -0.7695  1.5556
 6280SOL    HW220083   1.127   1.068   5.093 -0.1466 -0.1788  0.5973
 6281SOL     OW20084   6.739   7.284   0.683  0.0161 -0.3271  0.0618
 6281SOL    HW120085   6.658   7.301   0.634  0.9933 -1.3851 -2.0015
 6281SOL    HW220086   6.772   7.371   0.704 -0.1253  0.1702 -1.7051
 6282SOL     OW20087   8.274   2.856   6.790  0.7538 -0.2902  0.1751
 6282SOL    HW120088   8.309   2.807   6.865 -0.5526  0.7700  1.5005
 6282SOL    HW220089   8.307   2.945   6.802  0.4345 -0.0866 -0.4427
 6283SOL     OW20090   3.656   3.034   2.256 -0.7001 -0.0884  0.0683
 6283SOL    HW120091   3.704   2.987   2.323  0.4440 -0.5344 -1.0458
 6283SOL    HW220092   3.720   3.095   2.219 -0.4948 -1.8026 -2.5152
 6284SOL     OW20093   1.357   2.948   7.729  0.0597 -0.0772  0.9922
 6284SOL    HW120094   1.367   2.905   7.814 -0.4090 -1.7040  0.2452
 6284SOL    HW220095   1.302   2.888   7.679  0.1783  0.9670 -0.4025
 6285SOL     OW20096   0.516   2.974   4.508 -0.4921 -0.3101  0.5294
 6285SOL    HW120097   0.607   2.948   4.493 -0.1411  1.5368 -0.7502
 6285SOL    HW220098   0.465   2.916   4.451 -0.0695 -0.8883  0.7310
 6286SOL     OW20099   5.558   2.848   4.033 -0.0188 -0.5533  0.4655
 6286SOL    HW120100   5.572   2.871   4.125 -3.2170  1.0327  0.6389
 6286SOL    HW220101   5.602   2.918   3.985  1.0481 -0.9945  0.7787
 6287SOL     OW20102   6.740   3.190   2.080 -0.8413  0.3309 -1.1237
 6287SOL    HW120103   6.711   3.255   2.016 -2.1920  0.9394  0.0609
 6287SOL    HW220104   6.741   3.237   2.163 -0.0120 -0.6817 -0.5488
 6288SOL     OW20105   4.154   0.722   4.177  0.4896  0.4996  0.0299
 6288SOL    HW120106   4.140   0.740   4.270 -0.2885  1.1038 -0.2011
 6288SOL    HW220107   4.066   0.703   4.143  0.7403  0.4903 -0.6236
 6289SOL     OW20108   3.342   7.069   2.654  0.3505  0.8111 -0.2158
 6289SOL    HW120109   3.410   7.006   2.678 -1.0957 -0.1846  1.3812
 6289SOL    HW220110   3.260   7.026   2.678 -0.7747  2.5026 -0.9488
 6290SOL     OW20111   0.628   6.650   1.539 -0.3910  0.2076  0.0973
 6290SOL    HW120112   0.550   6.597   1.526  1.2328 -2.0770 -0.7119
 6290SOL    HW220113   0.700   6.586   1.540  1.4684  2.2600  0.7099
 6291SOL     OW20114   0.738   5.195   8.207 -0.1852 -0.3520 -0.1948
 6291SOL    HW120115   0.760   5.179   8.115 -0.6542  0.6593 -0.4931
 6291SOL    HW220116   0.775   5.282   8.225 -1.8184  0.3318 -0.0154
 6292SOL     OW20117   7.343   5.740   0.144  0.0172  0.1533  0.0593
 6292SOL    HW120118   7.425   5.784   0.167  0.1882 -1.1942  2.1770
 6292SOL    HW220119   7.276   5.786   0.195 -0.2228 -0.1362  0.0030
 6293SOL     OW20120   0.029   4.450   0.896 -0.4318 -0.0359 -0.1558
 6293SOL    HW120121   0.002   4.421   0.983 -0.7381  0.2705 -0.1514
 6293SOL    HW220122  -0.039   4.510   0.867  0.2352  0.7384 -0.1472
 6294SOL     OW20123   4.391   5.305   3.850 -0.3891 -0.3120  0.2993
 6294SOL    HW120124   4.404   5.337   3.761 -0.1024  0.2398  0.5376
 6294SOL    HW220125   4.468   5.252   3.869 -0.8749 -1.1763 -0.1046
 6295SOL     OW20126   6.295   4.754   5.261 -0.4837  0.1431  0.7222
 6295SOL    HW120127   6.281   4.666   5.296 -0.9183  0.2286  0.7655
 6295SOL    HW220128   6.208   4.785   5.238 -0.0263 -0.8152 -2.6303
 6296SOL     OW20129   1.902   4.527   0.072 -0.3326 -0.7480 -0.3470
 6296SOL    HW120130   1.871   4.617   0.075  1.5620 -0.0890  3.1039
 6296SOL    HW220131   1.835   4.476   0.119  0.5319 -0.3958  1.3322
 6297SOL     OW20132   5.818   8.075   0.638 -0.7180  0.5183  0.0919
 6297SOL    HW120133   5.892   8.056   0.695 -0.8062  0.5201  0.2079
 6297SOL    HW220134   5.770   7.992   0.632 -1.2979  0.7860  0.8791
 6298SOL     OW20135   5.281   4.994   3.636 -0.1086 -0.0610  0.0079
 6298SOL    HW120136   5.296   5.068   3.695 -0.6921  0.2117 -0.1820
 6298SOL    HW220137   5.192   5.008   3.603  0.2336 -0.1820 -0.9774
 6299SOL     OW20138   0.788   7.244   3.651  0.2740 -0.3242 -0.2394
 6299SOL    HW120139   0.728   7.176   3.680 -0.1987  0.2034  0.0352
 6299SOL    HW220140   0.744   7.285   3.576 -0.8405  1.6781  1.4667
 6300SOL     OW20141   0.638   1.256   2.606 -0.0591  0.5350 -0.8011
 6300SOL    HW120142   0.731   1.276   2.614  0.2047 -0.5681 -1.0454
 6300SOL    HW220143   0.602   1.267   2.694  0.3174  0.8697 -0.6909
 6301SOL     OW20144   6.566   3.591   5.313 -0.2961 -0.0722  0.0454
 6301SOL    HW120145   6.504   3.548   5.371 -0.5114  1.6683  1.1463
 6301SOL    HW220146   6.619   3.646   5.371 -0.1729  1.3058 -1.3390
 6302SOL     OW20147   1.766   6.474   1.120  0.4634 -0.0159 -0.2797
 6302SOL    HW120148   1.760   6.402   1.058  0.1448  1.4825 -2.0304
 6302SOL    HW220149   1.675   6.497   1.139  0.5371  1.3225 -1.4319
 6303SOL     OW20150   0.912   0.189   4.975 -0.2957  0.1709 -0.2382
 6303SOL    HW120151   0.922   0.241   5.054  0.4168  0.5016 -0.5495
 6303SOL    HW220152   0.817   0.176   4.968 -0.3159 -0.5640  1.1139
 6304SOL     OW20153   6.518   4.715   6.953  0.8358 -0.2536  0.4665
 6304SOL    HW120154   6.581   4.701   7.023  0.1098  0.1789  1.2076
 6304SOL    HW220155   6.566   4.766   6.888  0.9170  1.0725  1.5431
 6305SOL     OW20156   5.542   5.116   3.938  0.0398 -0.4746 -0.5267
 6305SOL    HW120157   5.580   5.198   3.908  0.1659 -1.1761 -2.3159
 6305SOL    HW220158   5.454   5.113   3.899 -0.3900 -0.6861  0.4221
 6306SOL     OW20159   8.269   4.884   2.513 -0.3225  0.3379 -0.0383
 6306SOL    HW120160   8.337   4.951   2.509 -0.2546  0.2108 -1.2878
 6306SOL    HW220161   8.214   4.909   2.587 -0.2077  1.6994 -0.4000
 6307SOL     OW20162   6.206   4.274   8.004 -0.2403  0.1485  0.4929
 6307SOL    HW120163   6.214   4.220   7.925  4.5398  0.8909  0.2777
 6307SOL    HW220164   6.153   4.221   8.064  1.0344 -3.1046 -1.0889
 6308SOL     OW20165   0.096   7.425   1.451  0.1423 -0.1645  0.1574
 6308SOL    HW120166   0.185   7.401   1.426  1.4417  1.7704  2.7887
 6308SOL    HW220167   0.075   7.366   1.524 -1.3343 -1.6010 -1.3655
 6309SOL     OW20168   1.182   4.024   5.169  0.2048 -0.1240  0.5735
 6309SOL    HW120169   1.225   4.031   5.083 -1.0585  1.6750  0.0572
 6309SOL    HW220170   1.099   3.980   5.150 -0.7128  1.5548  0.6188
 6310SOL     OW20171   4.591   5.376   5.802 -0.2680  0.4024  0.1819
 6310SOL    HW120172   4.606   5.471   5.809  0.6426  0.1968  1.2540
 6310SOL    HW220173   4.659   5.338   5.858 -0.2832 -0.9085 -0.6950
 6311SOL     OW20174   3.308   7.493   2.948 -0.1375 -0.1529  0.1031
 6311SOL    HW120175   3.309   7.570   3.005  0.2761 -0.1748  0.1243
 6311SOL    HW220176   3.215   7.478   2.932 -0.2518 -0.0326  0.6171
 6312SOL     OW20177   3.215   5.515   3.242 -0.3336  0.0728 -0.9824
 6312SOL    HW120178   3.134   5.466   3.257  0.0374 -0.0935  0.6031
 6312SOL    HW220179   3.188   5.607   3.245  0.1304  0.2031  4.0199
 6313SOL     OW20180   1.361   4.305   2.754  0.2958 -0.1023 -0.1834
 6313SOL    HW120181   1.340   4.295   2.661 -0.5943  2.1058 -0.2572
 6313SOL    HW220182   1.277   4.325   2.796  0.8589  0.0171  0.9110
 6314SOL     OW20183   3.788   7.155   5.246  0.2700 -0.0254 -0.1105
 6314SOL    HW120184   3.814   7.150   5.338  1.7544 -1.9182 -0.6021
 6314SOL    HW220185   3.820   7.240   5.216  2.4209 -0.6453  0.3573
 6315SOL     OW20186   3.440   5.702   4.388  0.2355  0.0154 -0.2817
 6315SOL    HW120187   3.494   5.755   4.446  0.3196  0.0676 -0.4084
 6315SOL    HW220188   3.365   5.758   4.366 -0.1866 -0.2781  0.3879
 6316SOL     OW20189   6.410   1.804   6.031  0.6759 -0.5979  0.0084
 6316SOL    HW120190   6.442   1.838   6.115  1.2655  0.5246 -0.6535
 6316SOL    HW220191   6.482   1.752   5.997  0.1005 -1.7985  0.6094
 6317SOL     OW20192   0.820   7.783   1.436 -0.1430  0.1806  0.0597
 6317SOL    HW120193   0.904   7.829   1.440  0.1275 -0.5091  2.7245
 6317SOL    HW220194   0.755   7.851   1.453 -0.1398  0.6326 -1.5952
 6318SOL     OW20195   4.473   8.021   0.314 -0.1131 -0.4614  0.0012
 6318SOL    HW120196   4.418   8.003   0.391  0.0507 -0.6905  0.0654
 6318SOL    HW220197   4.508   8.109   0.329  1.6258 -1.3432  1.2093
 6319SOL     OW20198   6.001   1.751   5.370  0.1565  0.7474 -0.3284
 6319SOL    HW120199   5.950   1.800   5.306 -0.8315  0.5629  0.3217
 6319SOL    HW220200   5.957   1.765   5.453 -0.4198 -1.6211 -0.2049
 6320SOL     OW20201   5.209   2.849   3.395 -0.3519 -0.0022  0.1616
 6320SOL    HW120202   5.280   2.798   3.435 -0.8952 -0.0994  1.0131
 6320SOL    HW220203   5.194   2.921   3.457  0.3676  1.1694 -1.0038
 6321SOL     OW20204   5.075   4.612   8.051 -0.0662 -0.0990 -0.6358
 6321SOL    HW120205   5.025   4.691   8.073  0.7524  0.3531 -0.3648
 6321SOL    HW220206   5.166   4.640   8.052  0.3094 -1.2800  0.4942
 6322SOL     OW20207   0.817   5.107   3.506  0.3355 -0.1106  0.1407
 6322SOL    HW120208   0.742   5.163   3.489  0.7326  0.8290  1.3581
 6322SOL    HW220209   0.872   5.115   3.428 -1.3272 -1.6707 -1.2196
 6323SOL     OW20210   5.135   2.528   6.763 -0.2833 -0.7851  0.4616
 6323SOL    HW120211   5.077   2.568   6.828 -2.2107  0.0623 -1.7091
 6323SOL    HW220212   5.077   2.504   6.691  1.8133 -1.6506 -0.9729
 6324SOL     OW20213   4.886   6.616   4.326 -0.3092 -0.0571 -0.3663
 6324SOL    HW120214   4.895   6.709   4.306  0.6727 -0.0156  0.2560
 6324SOL    HW220215   4.930   6.571   4.254  2.1887  0.0631  1.0433
 6325SOL     OW20216   5.010   6.314   2.782  0.4056 -0.3750  0.0145
 6325SOL    HW120217   4.970   6.300   2.867 -0.3759  0.0938 -0.2738
 6325SOL    HW220218   4.959   6.385   2.742  0.9042 -0.4331 -0.7481
 6326SOL     OW20219   4.835   3.951   2.246 -0.0158  0.2661 -0.1912
 6326SOL    HW120220   4.825   3.979   2.155 -0.2138 -2.1913 -0.9612
 6326SOL    HW220221   4.746   3.934   2.275  0.0066  1.5102  0.6365
 6327SOL     OW20222   7.721   3.655   7.271 -0.2506  0.0603 -0.0213
 6327SOL    HW120223   7.721   3.612   7.185 -1.0673 -1.9527  0.9362
 6327SOL    HW220224   7.672   3.595   7.327  1.4181  0.6707  2.1749
 6328SOL     OW20225   0.707   1.741   1.153  0.2166 -0.8426  0.3724
 6328SOL    HW120226   0.669   1.669   1.103  0.4910 -1.5063  1.1025
 6328SOL    HW220227   0.753   1.698   1.225  0.7531  0.0457  0.5645
 6329SOL     OW20228   0.604   7.326   5.869 -0.6737  0.2516  0.0372
 6329SOL    HW120229   0.613   7.275   5.949  0.0875 -0.0408 -0.2356
 6329SOL    HW220230   0.651   7.407   5.887  0.3998 -0.2504 -0.4944
 6330SOL     OW20231   1.067   4.442   3.582  0.0979 -0.3509 -0.0483
 6330SOL    HW120232   1.110   4.356   3.589  0.7291 -0.0119  0.3783
 6330SOL    HW220233   1.045   4.465   3.673  0.8568  0.3890 -0.0389
 6331SOL     OW20234   4.441   7.664   8.241  0.5368 -0.0150 -0.2452
 6331SOL    HW120235   4.433   7.729   8.311 -0.9000  0.1898 -0.5889
 6331SOL    HW220236   4.393   7.701   8.168  1.5948 -0.4675 -1.1821
 6332SOL     OW20237   4.037   4.933   2.574 -0.4976  0.3386 -0.2483
 6332SOL    HW120238   4.007   5.020   2.547 -1.0828 -0.3382 -1.8175
 6332SOL    HW220239   3.957   4.888   2.601 -0.0015  0.7898  2.0458
 6333SOL     OW20240   6.035   3.970   1.134  0.1030  0.0024  0.4507
 6333SOL    HW120241   6.115   4.009   1.168 -1.4689  1.6854  2.3656
 6333SOL    HW220242   6.015   3.899   1.195 -0.9868  0.9547  1.2166
 6334SOL     OW20243   3.209   5.807   4.315 -0.0307 -0.2095 -0.2170
 6334SOL    HW120244   3.185   5.760   4.395 -0.4613  0.2788 -0.0595
 6334SOL    HW220245   3.126   5.843   4.283  0.0415 -0.8968 -1.2024
 6335SOL     OW20246   6.611   3.581   5.805 -0.0891 -0.0096 -1.1620
 6335SOL    HW120247   6.706   3.589   5.799  0.0587 -1.3480 -0.8215
 6335SOL    HW220248   6.596   3.489   5.828 -1.4036  0.5612  0.3439
 6336SOL     OW20249   3.810   3.280   4.552 -0.2803  0.1254  1.1086
 6336SOL    HW120250   3.746   3.329   4.501 -0.2330 -1.2515 -0.3130
 6336SOL    HW220251   3.758   3.219   4.604 -0.1737 -0.4975  0.4917
 6337SOL     OW20252   6.760   3.128   3.252 -0.5160  0.0437 -0.4147
 6337SOL    HW120253   6.688   3.068   3.271 -0.1780 -0.5219 -0.9348
 6337SOL    HW220254   6.718   3.208   3.221 -1.0656  0.7308  1.9578
 6338SOL     OW20255   4.890   2.027   4.452  0.0005 -0.2299  0.1259
 6338SOL    HW120256   4.850   2.108   4.421 -0.1503  1.4746  4.4196
 6338SOL    HW220257   4.983   2.037   4.432 -0.1502  0.6556 -0.1504
 6339SOL     OW20258   3.549   2.889   0.849  0.1919 -0.0788  0.2112
 6339SOL    HW120259   3.539   2.979   0.879 -0.3334 -0.3722  0.9339
 6339SOL    HW220260   3.493   2.883   0.771 -0.1961  0.0657  0.4809
 6340SOL     OW20261   3.310   3.640   2.059  0.3739 -0.3308  0.7952
 6340SOL    HW120262   3.328   3.723   2.015  0.1504 -0.6209  0.1479
 6340SOL    HW220263   3.293   3.579   1.987 -0.4150 -0.7112  1.3095
 6341SOL     OW20264   1.604   2.024   4.951  0.3433  0.2370 -0.6063
 6341SOL    HW120265   1.662   2.100   4.958 -0.1450  0.5750 -0.1392
 6341SOL    HW220266   1.516   2.060   4.966  0.0289 -0.2927 -1.1601
 6342SOL     OW20267   6.685   4.384   6.058 -0.2063 -0.0313 -0.0562
 6342SOL    HW120268   6.656   4.410   6.146  0.4721  0.9837 -0.1197
 6342SOL    HW220269   6.699   4.290   6.065 -1.2184 -0.1468  0.6222
 6343SOL     OW20270   4.134   6.331   4.816 -0.1130  0.1768  0.2069
 6343SOL    HW120271   4.150   6.395   4.885 -0.4825  0.1357  0.3303
 6343SOL    HW220272   4.060   6.280   4.847 -1.8950  1.7530 -1.2952
 6344SOL     OW20273   5.114   8.243   4.930  0.4197  0.0813  0.1201
 6344SOL    HW120274   5.093   8.273   5.019  1.9194  0.1954  0.4386
 6344SOL    HW220275   5.106   8.148   4.935  1.8557 -0.0123  0.7373
 6345SOL     OW20276   7.360   5.185   1.823 -0.2207  0.1320  0.5167
 6345SOL    HW120277   7.431   5.172   1.887  0.2404  0.6921  0.1200
 6345SOL    HW220278   7.290   5.226   1.874  0.5935  1.7047  0.4081
 6346SOL     OW20279   5.706   0.587   0.173  0.0629 -0.8220 -0.0883
 6346SOL    HW120280   5.738   0.591   0.083  0.9297  0.4621  0.2638
 6346SOL    HW220281   5.786   0.590   0.226 -0.5201  0.1496  0.7537
 6347SOL     OW20282   6.997   3.556   6.994  0.3599 -0.5735 -0.0773
 6347SOL    HW120283   7.082   3.525   7.023  1.0409  0.1755 -1.2260
 6347SOL    HW220284   7.014   3.601   6.911 -1.2462 -0.9990 -0.6802
 6348SOL     OW20285   8.138   2.335   4.687 -0.0713 -0.1501  0.5301
 6348SOL    HW120286   8.126   2.333   4.782  0.4055 -0.6981  0.5825
 6348SOL    HW220287   8.059   2.377   4.654 -0.1340  0.2707  1.1871
 6349SOL     OW20288   4.449   7.978   4.823  0.4524 -0.1190 -0.2360
 6349SOL    HW120289   4.493   7.894   4.836 -0.8209 -0.9287 -1.0324
 6349SOL    HW220290   4.421   8.004   4.911  1.1830 -0.3345  0.0670
 6350SOL     OW20291   7.263   0.587   3.605 -0.4206  0.5325  1.0899
 6350SOL    HW120292   7.242   0.564   3.514 -1.7134 -0.4121  1.6191
 6350SOL    HW220293   7.357   0.600   3.605 -0.2355 -0.7070 -0.1268
 6351SOL     OW20294   0.077   3.390   4.702 -0.0178 -0.1141  0.0090
 6351SOL    HW120295   0.017   3.393   4.627  1.7784  1.7103 -1.4217
 6351SOL    HW220296   0.158   3.355   4.666  1.0190  1.2596  0.9818
 6352SOL     OW20297   7.125   3.922   3.083 -0.2455 -0.7237 -0.4035
 6352SOL    HW120298   7.098   3.831   3.094  1.2216 -1.1350 -0.0226
 6352SOL    HW220299   7.204   3.917   3.028  1.5342  0.0569  1.9646
 6353SOL     OW20300   1.089   2.202   4.414  0.4755  0.4738 -0.7212
 6353SOL    HW120301   1.043   2.129   4.455  1.2331  0.0526 -0.6227
 6353SOL    HW220302   1.020   2.250   4.368 -0.0839 -0.0976 -0.4921
 6354SOL     OW20303   6.529   5.535   1.271  1.0170  0.0596  0.0864
 6354SOL    HW120304   6.597   5.572   1.214  0.9870  0.3887  0.2641
 6354SOL    HW220305   6.495   5.460   1.222  1.4248 -0.0325 -0.0566
 6355SOL     OW20306   1.000   0.133   3.751 -0.3882  0.7084 -0.2375
 6355SOL    HW120307   0.936   0.204   3.763  0.1351  1.1881 -0.2952
 6355SOL    HW220308   1.085   0.176   3.751 -0.1546  0.2733 -1.9430
 6356SOL     OW20309   2.971   6.424   5.529  0.0534 -0.1846  0.0948
 6356SOL    HW120310   2.959   6.481   5.453 -1.3713 -0.3455  0.1803
 6356SOL    HW220311   3.055   6.450   5.566 -1.2165  2.8528  0.9792
 6357SOL     OW20312   0.789   8.241   3.565 -0.1603  0.3676 -0.7354
 6357SOL    HW120313   0.711   8.192   3.539  0.3056 -0.8614  0.1372
 6357SOL    HW220314   0.862   8.187   3.534  0.3845 -0.2603  1.5378
 6358SOL     OW20315   1.261   5.286   2.252 -0.2251  0.4839  0.2615
 6358SOL    HW120316   1.292   5.323   2.170 -0.4144 -0.3051 -0.1771
 6358SOL    HW220317   1.252   5.192   2.234 -1.0114  0.4209  0.9550
 6359SOL     OW20318   4.662   4.549   3.832  0.5805  0.2959 -0.5794
 6359SOL    HW120319   4.730   4.523   3.770  0.5152 -0.3870 -0.3699
 6359SOL    HW220320   4.639   4.468   3.878 -0.1210  0.5930 -0.3977
 6360SOL     OW20321   6.843   4.572   3.897 -0.1719 -0.1547 -0.1788
 6360SOL    HW120322   6.759   4.591   3.855 -0.1248  0.5888  0.0533
 6360SOL    HW220323   6.895   4.652   3.885  0.2390 -0.3427  0.3200
 6361SOL     OW20324   4.936   3.490   4.155  0.3264 -0.0292  0.0544
 6361SOL    HW120325   4.964   3.567   4.107  0.3863  0.4112  0.7829
 6361SOL    HW220326   4.845   3.477   4.131  0.4385  0.0111 -0.3950
 6362SOL     OW20327   2.001   2.314   7.952  0.0079 -0.0063  0.1265
 6362SOL    HW120328   2.069   2.253   7.922  0.4671 -0.4328  1.9761
 6362SOL    HW220329   2.013   2.391   7.897  1.5186 -0.3675 -0.0828
 6363SOL     OW20330   6.948   3.247   5.736  0.1808 -0.0795 -0.3602
 6363SOL    HW120331   7.002   3.253   5.814 -0.2589 -1.1273  0.0242
 6363SOL    HW220332   6.979   3.319   5.680  2.1492 -0.8268 -0.2593
 6364SOL     OW20333   7.583   1.360   5.775  0.1988 -0.1004  0.0949
 6364SOL    HW120334   7.492   1.352   5.748 -0.2283 -0.0955  1.5177
 6364SOL    HW220335   7.626   1.403   5.701 -1.1698  0.9233 -0.1192
 6365SOL     OW20336   7.989   3.837   1.126  0.0065  0.0984 -0.0285
 6365SOL    HW120337   8.075   3.820   1.087  0.0175 -0.6526  0.3105
 6365SOL    HW220338   7.953   3.750   1.144 -0.5232  0.4170  0.4766
 6366SOL     OW20339   4.116   3.204   7.543 -0.6317 -0.5514  0.3764
 6366SOL    HW120340   4.031   3.239   7.518 -1.6140 -2.9599  0.2272
 6366SOL    HW220341   4.151   3.167   7.462  0.0080 -0.6484  0.6948
 6367SOL     OW20342   5.814   5.046   1.441 -0.2193 -0.1439  0.0674
 6367SOL    HW120343   5.740   5.102   1.465 -1.3303 -2.0116  1.1635
 6367SOL    HW220344   5.778   4.985   1.377  0.5052 -0.7216  0.2024
 6368SOL     OW20345   6.386   6.708   7.647 -0.3074  0.3700 -0.3210
 6368SOL    HW120346   6.385   6.617   7.676  1.0927 -0.0867 -1.6084
 6368SOL    HW220347   6.351   6.704   7.557  2.1328  0.7166 -1.3209
 6369SOL     OW20348   0.525   1.399   2.857  0.0764 -0.0221 -0.1252
 6369SOL    HW120349   0.492   1.456   2.786 -1.1412 -0.8216 -0.2238
 6369SOL    HW220350   0.589   1.453   2.903 -1.4368  1.6641  0.1101
 6370SOL     OW20351   2.470   4.472   1.368 -0.9308 -0.4380  0.5846
 6370SOL    HW120352   2.463   4.395   1.424 -0.0368 -0.5646  0.5305
 6370SOL    HW220353   2.380   4.500   1.353 -1.2839 -1.7821  0.1692
 6371SOL     OW20354   4.718   1.793   0.692 -0.0679  0.3729  0.1239
 6371SOL    HW120355   4.751   1.719   0.742 -2.8445 -0.5305  0.7293
 6371SOL    HW220356   4.796   1.832   0.651  1.6782 -1.5792  1.5057
 6372SOL     OW20357   3.527   1.582   6.721  0.1924  0.5767  0.0770
 6372SOL    HW120358   3.529   1.579   6.626  1.3288 -0.0407  0.1105
 6372SOL    HW220359   3.459   1.519   6.746 -0.9370  1.6058 -0.3466
 6373SOL     OW20360   5.310   3.133   1.002  0.2307 -0.5558 -0.0938
 6373SOL    HW120361   5.220   3.154   0.979  0.0127 -1.6709 -0.3149
 6373SOL    HW220362   5.363   3.194   0.952 -0.4242  0.8103  0.8409
 6374SOL     OW20363   2.633   3.043   1.099  0.5397 -0.6828 -0.2514
 6374SOL    HW120364   2.614   3.113   1.161  0.1487 -0.2022 -0.9077
 6374SOL    HW220365   2.597   2.964   1.139 -0.8516 -0.1586 -0.4506
 6375SOL     OW20366   0.870   1.920   3.824  0.0930  0.0175 -0.4288
 6375SOL    HW120367   0.821   1.865   3.763  0.0734  0.0240 -0.4187
 6375SOL    HW220368   0.805   1.980   3.860 -0.0572 -0.5340  0.2265
 6376SOL     OW20369   4.335   2.781   7.271 -0.5545  0.7019  0.3247
 6376SOL    HW120370   4.346   2.841   7.197 -0.1536  1.9483  1.4015
 6376SOL    HW220371   4.251   2.738   7.254  0.3493 -0.3251 -1.7880
 6377SOL     OW20372   1.153   4.534   2.442  0.5986 -0.6995 -0.2699
 6377SOL    HW120373   1.117   4.570   2.523  1.0623 -0.0204 -0.3568
 6377SOL    HW220374   1.076   4.504   2.393  0.1874  0.2030 -0.2015
 6378SOL     OW20375   0.318   4.041   7.398 -0.0681 -0.0961  0.0627
 6378SOL    HW120376   0.383   3.993   7.449  1.1124  1.4523  0.0295
 6378SOL    HW220377   0.261   3.972   7.362  1.5522 -1.4676  0.0611
 6379SOL     OW20378   4.248   5.444   3.454 -0.3537 -0.0931  0.5433
 6379SOL    HW120379   4.180   5.388   3.493 -2.4062  1.5671 -0.5814
 6379SOL    HW220380   4.324   5.432   3.512 -1.5450 -2.0590  1.7745
 6380SOL     OW20381   5.787   4.995   0.755  0.4452  0.1114 -0.0949
 6380SOL    HW120382   5.863   4.983   0.697  0.7649  1.3078  0.0449
 6380SOL    HW220383   5.729   5.053   0.706  0.3326  0.4455  0.4309
 6381SOL     OW20384   1.625   5.044   4.574  0.3891 -0.3134 -0.1138
 6381SOL    HW120385   1.606   5.036   4.667  1.2522  0.6573  0.1500
 6381SOL    HW220386   1.671   5.127   4.565  0.1459 -0.2960 -1.4377
 6382SOL     OW20387   5.803   3.342   4.724  0.0491 -0.4705 -0.2959
 6382SOL    HW120388   5.822   3.426   4.765  0.9234  0.6224 -2.8244
 6382SOL    HW220389   5.886   3.313   4.687 -0.9291 -0.7770 -2.3557
 6383SOL     OW20390   6.159   6.620   6.539  0.1053 -0.1509 -0.0109
 6383SOL    HW120391   6.202   6.583   6.462  0.6705 -0.0407  0.2541
 6383SOL    HW220392   6.202   6.578   6.613  0.7211  1.0217  0.2891
 6384SOL     OW20393   1.552   0.287   0.259  0.1782  0.2620  1.0108
 6384SOL    HW120394   1.605   0.228   0.205  0.5355  1.5248 -0.0444
 6384SOL    HW220395   1.616   0.337   0.310  0.0442  1.7051 -0.1752
 6385SOL     OW20396   2.713   0.644   7.568  0.1772 -0.9260 -0.3568
 6385SOL    HW120397   2.794   0.644   7.619 -0.2331  0.5642  0.3116
 6385SOL    HW220398   2.675   0.558   7.584  0.6320 -0.9013  0.9211
 6386SOL     OW20399   4.870   0.836   1.601  0.2361  0.3045 -0.0356
 6386SOL    HW120400   4.919   0.821   1.520  2.2527 -0.7479  1.3344
 6386SOL    HW220401   4.931   0.886   1.657 -0.5712 -0.2450  1.3672
 6387SOL     OW20402   3.703   6.374   0.571 -0.0905  0.2221 -0.5027
 6387SOL    HW120403   3.643   6.445   0.551 -1.3051 -0.9278 -1.0139
 6387SOL    HW220404   3.648   6.307   0.611  1.0764 -0.3544  0.1760
 6388SOL     OW20405   7.040   2.502   5.968  0.2692 -0.2824  0.0117
 6388SOL    HW120406   6.959   2.483   6.016  0.1304 -2.8380 -1.1176
 6388SOL    HW220407   7.042   2.597   5.961 -3.4676 -0.1812 -1.2017
 6389SOL     OW20408   5.238   5.773   0.297  0.3479 -0.3059 -0.1065
 6389SOL    HW120409   5.262   5.860   0.326  1.1262 -0.8476  0.9208
 6389SOL    HW220410   5.142   5.773   0.294  0.2371 -0.1983  2.4105
 6390SOL     OW20411   7.213   7.013   3.800 -0.0800 -0.0599  0.4012
 6390SOL    HW120412   7.121   6.998   3.778  0.1892 -0.8278 -0.2087
 6390SOL    HW220413   7.240   7.086   3.744 -0.4381  0.4568  0.8986
 6391SOL     OW20414   6.820   1.834   5.546 -0.2326 -0.0090 -0.7620
 6391SOL    HW120415   6.754   1.800   5.607  1.3102 -0.2339  0.8235
 6391SOL    HW220416   6.808   1.929   5.547 -0.0726  0.0021  0.0648
 6392SOL     OW20417   2.951   4.313   7.414  0.5744 -0.1006  0.3907
 6392SOL    HW120418   2.993   4.234   7.380 -0.4600 -1.2403  1.6905
 6392SOL    HW220419   2.901   4.283   7.489 -0.3802  1.6961  0.5056
 6393SOL     OW20420   6.264   4.282   6.613  0.4439  0.2321 -0.2029
 6393SOL    HW120421   6.330   4.341   6.649 -0.4861  1.0684  0.1612
 6393SOL    HW220422   6.297   4.260   6.526  1.2539  0.5491  0.0197
 6394SOL     OW20423   6.883   7.974   3.595  0.1161 -0.5386 -0.0052
 6394SOL    HW120424   6.816   7.907   3.582 -0.1928 -0.3884  0.7569
 6394SOL    HW220425   6.946   7.959   3.525 -1.1452 -0.1389 -1.2571
 6395SOL     OW20426   4.467   7.472   7.976 -0.1846  0.1915  0.4286
 6395SOL    HW120427   4.402   7.430   7.920 -0.5899  1.3006  0.0569
 6395SOL    HW220428   4.431   7.465   8.064 -0.3946  0.0423  0.3300
 6396SOL     OW20429   8.219   4.587   5.798 -0.1597  0.4747 -0.5410
 6396SOL    HW120430   8.275   4.660   5.774 -0.0325 -0.5549 -3.5968
 6396SOL    HW220431   8.141   4.597   5.743  0.0923 -1.9619 -1.4148
 6397SOL     OW20432   2.888   3.802   2.294  0.1784  0.0235 -0.0917
 6397SOL    HW120433   2.927   3.720   2.263 -1.0827 -0.4738 -0.3883
 6397SOL    HW220434   2.946   3.871   2.260  1.0362 -0.7179 -0.1454
 6398SOL     OW20435   6.234   3.276   3.217  0.2049 -0.3299 -0.0285
 6398SOL    HW120436   6.271   3.350   3.169 -0.4111  1.2100  1.7523
 6398SOL    HW220437   6.221   3.208   3.152  1.7485  0.7780 -1.5323
 6399SOL     OW20438   5.649   5.878   1.953 -0.6774 -0.7304  0.1803
 6399SOL    HW120439   5.740   5.854   1.969 -0.4857 -0.3327 -0.3206
 6399SOL    HW220440   5.621   5.921   2.034 -0.0234  0.3301 -0.1441
 6400SOL     OW20441   4.103   5.401   0.977  0.3138 -0.1863  0.3696
 6400SOL    HW120442   4.179   5.346   0.956 -0.2146 -0.4640 -0.8512
 6400SOL    HW220443   4.139   5.472   1.030  0.9170 -2.0264  2.5150
 6401SOL     OW20444   0.921   0.495   4.052 -0.0217  0.1299  0.5406
 6401SOL    HW120445   0.900   0.543   4.132  0.0829  0.5470  0.3175
 6401SOL    HW220446   1.016   0.483   4.055  0.0068  0.3130  0.3850
 6402SOL     OW20447   3.083   1.030   3.164 -0.0581 -0.1226 -0.3771
 6402SOL    HW120448   3.153   1.043   3.228  0.1851  0.2817 -0.7268
 6402SOL    HW220449   3.080   0.935   3.152  0.9312 -0.0963 -0.9089
 6403SOL     OW20450   5.340   0.190   5.595 -0.0168  0.0602 -0.2425
 6403SOL    HW120451   5.352   0.171   5.688  1.0387 -1.9159 -0.7632
 6403SOL    HW220452   5.392   0.269   5.580  0.7874 -0.3044  0.5877
 6404SOL     OW20453   2.381   0.849   2.094  0.4533 -0.1790 -0.1708
 6404SOL    HW120454   2.384   0.900   2.175 -1.1923 -1.8754  1.0035
 6404SOL    HW220455   2.299   0.876   2.052 -0.4700 -1.8192  0.4945
 6405SOL     OW20456   6.747   6.975   0.261 -0.4079  0.0793  0.1552
 6405SOL    HW120457   6.779   7.009   0.345  0.1624 -0.1496  0.0359
 6405SOL    HW220458   6.700   6.895   0.284 -1.3234  0.6743  0.3838
 6406SOL     OW20459   3.745   4.975   0.858 -0.1308  0.1125 -0.0212
 6406SOL    HW120460   3.669   4.987   0.801 -0.7958  0.6777  0.9838
 6406SOL    HW220461   3.709   4.956   0.944  0.8530  1.6555  0.7519
 6407SOL     OW20462   6.138   5.511   7.947 -0.1693 -0.2175  0.5432
 6407SOL    HW120463   6.099   5.427   7.969 -0.0004 -0.5623 -0.4553
 6407SOL    HW220464   6.227   5.490   7.920  0.1409  0.3779  1.0657
 6408SOL     OW20465   2.241   6.121   5.557 -0.6770  0.3992 -1.0719
 6408SOL    HW120466   2.260   6.083   5.471 -0.8549  1.7097 -1.7160
 6408SOL    HW220467   2.280   6.060   5.620 -0.2459 -0.4027 -2.0984
 6409SOL     OW20468   6.568   3.576   1.574  0.1762 -0.0765 -0.0912
 6409SOL    HW120469   6.557   3.670   1.560  0.3463 -0.1372 -0.6792
 6409SOL    HW220470   6.655   3.567   1.614 -0.0828  0.0603  0.5036
 6410SOL     OW20471   1.343   0.636   4.912  0.4133 -0.2923 -0.2533
 6410SOL    HW120472   1.307   0.715   4.953  1.0831  0.3145 -0.8091
 6410SOL    HW220473   1.434   0.634   4.942  0.3150 -1.0303  0.0029
 6411SOL     OW20474   1.599   6.795   3.257 -0.5500 -0.1561  0.0436
 6411SOL    HW120475   1.639   6.769   3.339  0.1505 -1.2479 -0.6234
 6411SOL    HW220476   1.601   6.891   3.258  1.3240 -0.1787  0.4011
 6412SOL     OW20477   1.035   3.577   0.953 -0.0364  0.1554  1.3175
 6412SOL    HW120478   0.991   3.587   1.038 -0.6116  1.0012  0.9322
 6412SOL    HW220479   0.963   3.568   0.890  0.3078  1.8011  0.6560
 6413SOL     OW20480   0.546   6.088   6.707  0.2442  0.0664 -0.3327
 6413SOL    HW120481   0.641   6.080   6.694  0.5841  2.1294  0.6685
 6413SOL    HW220482   0.522   6.007   6.754  1.3268 -0.9111 -1.4178
 6414SOL     OW20483   7.627   0.131   0.703 -0.1433  0.1313  0.3114
 6414SOL    HW120484   7.650   0.137   0.796 -1.6382 -2.7079  0.9070
 6414SOL    HW220485   7.567   0.204   0.688 -0.9533 -0.1925  1.9171
 6415SOL     OW20486   3.517   5.398   3.448 -0.3878  0.0301  0.0020
 6415SOL    HW120487   3.608   5.395   3.477 -0.8769  1.2089  1.7273
 6415SOL    HW220488   3.467   5.413   3.528 -1.9138  1.5485 -1.2021
 6416SOL     OW20489   3.277   1.835   1.958  0.2273  0.3847  0.4186
 6416SOL    HW120490   3.208   1.887   1.999 -1.2463  0.2933 -1.8981
 6416SOL    HW220491   3.316   1.786   2.031 -0.2585  2.5223  2.1928
 6417SOL     OW20492   6.087   7.819   6.325 -0.4898 -0.6930  0.7427
 6417SOL    HW120493   6.118   7.810   6.234 -1.6292  2.7087 -0.0706
 6417SOL    HW220494   5.997   7.788   6.323 -0.1376 -1.7584  1.0078
 6418SOL     OW20495   0.810   2.941   0.192 -0.1132  0.1890  0.0574
 6418SOL    HW120496   0.821   3.032   0.167 -0.2846  0.3744  0.6589
 6418SOL    HW220497   0.858   2.932   0.275  0.6736 -0.4848 -0.4571
 6419SOL     OW20498   6.117   0.060   5.052  0.4815 -0.1704 -0.3503
 6419SOL    HW120499   6.059   0.020   4.987  1.0897 -3.7826  1.2216
 6419SOL    HW220500   6.080   0.035   5.136  1.6520  1.5733  0.7244
 6420SOL     OW20501   7.560   7.788   7.721  0.5781  0.1388 -0.0122
 6420SOL    HW120502   7.600   7.818   7.802 -0.7927 -0.5276  0.9365
 6420SOL    HW220503   7.628   7.800   7.654  2.3285 -0.9615  1.5339
 6421SOL     OW20504   2.858   4.415   0.188 -0.0853  0.9053 -0.2020
 6421SOL    HW120505   2.843   4.506   0.213  1.6859  1.5105 -1.2171
 6421SOL    HW220506   2.923   4.420   0.118 -1.1644 -1.0523 -1.3887
 6422SOL     OW20507   0.363   2.839   0.843 -0.5216 -0.4605 -0.0890
 6422SOL    HW120508   0.438   2.780   0.831 -0.3824 -0.1843 -0.5601
 6422SOL    HW220509   0.403   2.923   0.865 -0.6701 -0.0585 -1.3750
 6423SOL     OW20510   0.695   3.938   7.975  0.3360 -0.6948 -0.0588
 6423SOL    HW120511   0.661   3.900   7.894 -0.9315  0.4798 -0.1010
 6423SOL    HW220512   0.640   4.014   7.990  1.0814 -0.4492  1.4895
 6424SOL     OW20513   6.892   4.185   2.945  0.2321  0.2585  0.4978
 6424SOL    HW120514   6.933   4.128   2.880 -0.3683  0.3709  0.0217
 6424SOL    HW220515   6.807   4.146   2.961 -0.5666  1.5322 -0.5292
 6425SOL     OW20516   4.219   2.912   0.924  0.5084  0.2880 -0.0116
 6425SOL    HW120517   4.164   2.887   0.850  0.6161  2.4460 -0.8602
 6425SOL    HW220518   4.159   2.949   0.988  0.5339 -0.6758  0.5672
 6426SOL     OW20519   3.866   0.707   1.368 -0.3295 -0.4193 -0.1610
 6426SOL    HW120520   3.950   0.677   1.403  0.1710 -0.5856 -1.4880
 6426SOL    HW220521   3.868   0.802   1.377  0.2922 -0.3676 -0.8301
 6427SOL     OW20522   2.704   2.018   5.152  0.2350  0.0900 -0.1296
 6427SOL    HW120523   2.638   2.029   5.084 -0.0184 -1.7787 -0.2073
 6427SOL    HW220524   2.745   2.104   5.160  0.0594  0.4093 -2.4214
 6428SOL     OW20525   6.088   0.958   5.712 -0.1161  0.1991  0.0279
 6428SOL    HW120526   6.092   0.873   5.668  0.6082 -0.3089  1.0365
 6428SOL    HW220527   6.120   1.020   5.648  0.4589 -0.4618 -0.3273
 6429SOL     OW20528   7.511   4.706   5.160  0.6309 -0.3246 -0.3712
 6429SOL    HW120529   7.487   4.735   5.072  0.0413 -2.5232 -0.9591
 6429SOL    HW220530   7.433   4.720   5.213  0.7171  0.2210 -0.3894
 6430SOL     OW20531   6.349   5.432   5.463 -0.1225  0.1785 -0.4228
 6430SOL    HW120532   6.423   5.471   5.509 -0.4537  1.8231 -1.2275
 6430SOL    HW220533   6.316   5.503   5.407 -3.2659 -0.0128  1.0753
 6431SOL     OW20534   5.714   1.556   0.780  0.7092  0.1938  0.1559
 6431SOL    HW120535   5.633   1.598   0.811 -0.2476  1.8562 -4.1427
 6431SOL    HW220536   5.691   1.463   0.773 -0.6659  0.5385 -0.3007
 6432SOL     OW20537   1.912   5.415   3.794 -0.4525  0.0801 -1.3052
 6432SOL    HW120538   1.909   5.447   3.704 -1.8709  2.7990 -0.3438
 6432SOL    HW220539   1.820   5.402   3.818 -0.0737 -0.8690 -0.3321
 6433SOL     OW20540   4.623   2.884   2.847 -0.0010 -0.6007 -0.0742
 6433SOL    HW120541   4.582   2.961   2.807 -0.5524 -0.6953  0.3047
 6433SOL    HW220542   4.715   2.908   2.857 -0.0008 -0.3130 -0.7542
 6434SOL     OW20543   2.258   4.768   8.192  0.5141  0.5133 -0.4795
 6434SOL    HW120544   2.349   4.767   8.223  0.6505  0.1649 -0.8763
 6434SOL    HW220545   2.265   4.744   8.100  0.0058  0.4089 -0.4897
 6435SOL     OW20546   8.000   0.853   4.109  0.3192  0.1022 -0.1492
 6435SOL    HW120547   8.044   0.879   4.190 -0.0108  0.8464 -0.2029
 6435SOL    HW220548   7.992   0.934   4.060  0.5212 -0.3520 -0.9349
 6436SOL     OW20549   5.775   1.940   0.701 -0.3341  0.0110  0.2099
 6436SOL    HW120550   5.857   1.990   0.709 -0.0488  0.0184 -2.2865
 6436SOL    HW220551   5.804   1.850   0.686 -0.7178  0.1626 -1.6423
 6437SOL     OW20552   6.400   5.469   4.488 -0.2573 -0.5970 -0.5124
 6437SOL    HW120553   6.494   5.462   4.474  0.1782  2.4517  0.4415
 6437SOL    HW220554   6.389   5.468   4.583 -0.6982  3.2813 -0.4352
 6438SOL     OW20555   5.099   0.748   3.821 -0.5973 -0.1187 -0.1158
 6438SOL    HW120556   5.026   0.756   3.882 -0.1231 -0.6617  0.5193
 6438SOL    HW220557   5.120   0.655   3.819  0.8582  0.1862  0.6220
 6439SOL     OW20558   5.610   7.617   7.387  0.5974  0.3039  0.0230
 6439SOL    HW120559   5.622   7.665   7.470 -1.4208  2.8102 -1.0823
 6439SOL    HW220560   5.529   7.569   7.398 -1.4344  3.2227 -1.6223
 6440SOL     OW20561   3.061   6.310   0.190 -0.1242  0.1178  0.1698
 6440SOL    HW120562   3.072   6.395   0.232  0.4853  1.3490 -2.4187
 6440SOL    HW220563   3.029   6.253   0.260 -0.6893  2.4914  1.8980
 6441SOL     OW20564   5.103   1.500   2.295  0.0087 -0.0988 -0.5335
 6441SOL    HW120565   5.152   1.418   2.303  0.6111  0.1588 -1.5069
 6441SOL    HW220566   5.171   1.567   2.292 -0.4712  0.3967 -0.2388
 6442SOL     OW20567   7.517   4.170   0.266  0.4121  0.4814  0.0907
 6442SOL    HW120568   7.520   4.077   0.290  0.1924  0.0393 -1.5119
 6442SOL    HW220569   7.440   4.177   0.209 -0.1456  1.8565  0.9727
 6443SOL     OW20570   2.339   5.351   0.323  0.0807 -0.0333  0.0503
 6443SOL    HW120571   2.315   5.367   0.415  1.3245 -1.3698  0.6261
 6443SOL    HW220572   2.283   5.411   0.273 -1.4122 -0.0808  1.6098
 6444SOL     OW20573   0.107   1.426   7.401 -0.1858 -0.2209 -0.2215
 6444SOL    HW120574   0.184   1.447   7.453 -0.3933  0.1666 -0.0676
 6444SOL    HW220575   0.043   1.393   7.464  0.4417 -2.2029 -0.5747
 6445SOL     OW20576   7.970   4.892   5.064  0.3009  0.1351  0.7582
 6445SOL    HW120577   8.005   4.863   4.980 -1.5509  1.5638 -0.5686
 6445SOL    HW220578   8.045   4.925   5.112  1.4605 -1.1240 -0.1553
 6446SOL     OW20579   5.116   3.345   2.793  0.3527  0.0514 -0.3248
 6446SOL    HW120580   5.201   3.369   2.831  0.0041 -0.1885  0.6323
 6446SOL    HW220581   5.066   3.426   2.794  0.2213 -0.0309  0.0789
 6447SOL     OW20582   0.515   2.608   2.619  0.8882  0.5748 -0.1670
 6447SOL    HW120583   0.511   2.701   2.640  2.4048  0.5471  0.2951
 6447SOL    HW220584   0.538   2.605   2.526 -0.9802  0.6561 -0.6570
 6448SOL     OW20585   4.879   4.707   0.199 -0.5720 -0.4617  0.1553
 6448SOL    HW120586   4.890   4.665   0.284  0.2074  0.7295  0.6478
 6448SOL    HW220587   4.813   4.774   0.213  0.4173  0.5353  0.1223
 6449SOL     OW20588   5.575   5.990   2.997 -0.1805  0.1135  0.4366
 6449SOL    HW120589   5.495   5.941   3.014  1.1546 -2.5118 -0.5293
 6449SOL    HW220590   5.595   5.971   2.905  0.5388  2.2736  0.1251
 6450SOL     OW20591   0.288   1.699   5.095  0.0829  0.2392 -0.4988
 6450SOL    HW120592   0.221   1.654   5.147 -0.1598  0.4909 -0.5973
 6450SOL    HW220593   0.350   1.732   5.161  0.0611  0.0905 -0.4024
 6451SOL     OW20594   3.013   4.314   0.739  0.5165 -0.1253 -0.1136
 6451SOL    HW120595   3.047   4.252   0.803  2.7222  1.3194  0.1950
 6451SOL    HW220596   3.063   4.297   0.659  0.3509  0.5102 -0.3589
 6452SOL     OW20597   7.203   3.854   2.580  0.4769  0.4530 -0.3992
 6452SOL    HW120598   7.204   3.846   2.675 -2.4143  0.2095 -0.3345
 6452SOL    HW220599   7.213   3.764   2.548  0.9283  0.4716 -0.3047
 6453SOL     OW20600   2.027   4.152   0.843 -0.0515 -0.1309 -0.0230
 6453SOL    HW120601   2.011   4.058   0.838 -0.9968  0.0584 -0.8106
 6453SOL    HW220602   2.027   4.171   0.937  1.2965 -1.0897  0.1859
 6454SOL     OW20603   3.186   5.787   1.249 -0.2066  0.4337 -0.6761
 6454SOL    HW120604   3.118   5.803   1.315 -0.2485 -1.8309 -0.1311
 6454SOL    HW220605   3.182   5.693   1.233  1.9641  0.4702 -1.5818
 6455SOL     OW20606   0.052   2.117   4.117 -0.1788 -0.2429 -0.0011
 6455SOL    HW120607   0.127   2.177   4.115 -1.4252  1.4389  1.9482
 6455SOL    HW220608   0.003   2.136   4.037  1.3257 -1.2409 -1.2097
 6456SOL     OW20609   3.109   6.080   4.710 -0.0527 -0.0798 -0.6838
 6456SOL    HW120610   3.172   6.008   4.710  0.4057  0.2960  1.2996
 6456SOL    HW220611   3.033   6.044   4.665 -0.4583 -2.4037  1.6874
 6457SOL     OW20612   6.896   0.939   7.241  0.3514 -0.1622  0.8823
 6457SOL    HW120613   6.889   0.851   7.204  1.8458  0.1118 -0.0819
 6457SOL    HW220614   6.822   0.987   7.203  0.4732 -0.5542  0.1357
 6458SOL     OW20615   0.203   1.125   3.469  0.0327  0.3850 -0.3142
 6458SOL    HW120616   0.213   1.036   3.433 -0.8746  1.0361 -2.2379
 6458SOL    HW220617   0.176   1.111   3.560 -1.9894 -1.3126 -1.1391
 6459SOL     OW20618   0.206   2.199   6.358  0.2913  0.2201  0.3519
 6459SOL    HW120619   0.287   2.147   6.351 -0.6969 -1.1533 -1.1384
 6459SOL    HW220620   0.207   2.255   6.281  0.5593  1.3170  1.1363
 6460SOL     OW20621   5.105   2.269   7.162 -0.5557  0.0028  0.0839
 6460SOL    HW120622   5.144   2.229   7.240 -1.0902  0.5014  0.6104
 6460SOL    HW220623   5.156   2.348   7.147 -0.3516 -0.1753 -0.1665
 6461SOL     OW20624   2.867   7.165   5.034  0.1641  0.2041 -0.4123
 6461SOL    HW120625   2.896   7.226   4.966 -0.3537  1.3528  0.3781
 6461SOL    HW220626   2.856   7.220   5.112 -1.6892 -0.6311 -0.0566
 6462SOL     OW20627   3.037   3.557   8.090 -0.1530 -0.6609 -0.2694
 6462SOL    HW120628   3.125   3.580   8.119 -0.3014  0.6808 -0.8260
 6462SOL    HW220629   3.049   3.530   7.999 -0.5233  1.1242 -0.8705
 6463SOL     OW20630   2.962   4.366   7.764 -0.3608 -0.2227  0.1253
 6463SOL    HW120631   2.896   4.304   7.794 -0.0183  0.0324  1.4525
 6463SOL    HW220632   3.043   4.314   7.760  0.0258  0.2483  1.7128
 6464SOL     OW20633   0.193   5.419   0.855  0.2168  0.2187  0.4966
 6464SOL    HW120634   0.116   5.439   0.909 -0.1508  0.6673 -0.1922
 6464SOL    HW220635   0.168   5.341   0.806  1.2641 -1.3561  2.3965
 6465SOL     OW20636   4.498   3.179   5.219  0.4921  0.0500 -0.1153
 6465SOL    HW120637   4.422   3.228   5.250  1.0565  0.1709  1.1151
 6465SOL    HW220638   4.574   3.227   5.253  1.1334  0.0203 -1.4596
 6466SOL     OW20639   0.691   3.789   0.488  0.5532 -0.0996  0.2323
 6466SOL    HW120640   0.637   3.710   0.482 -1.1860  1.1402 -0.9897
 6466SOL    HW220641   0.652   3.839   0.559  0.4813  0.5237 -0.2445
 6467SOL     OW20642   6.799   2.560   0.450  0.1970 -0.2840 -0.5995
 6467SOL    HW120643   6.853   2.634   0.423  1.1712 -1.0293 -0.7167
 6467SOL    HW220644   6.832   2.486   0.399 -1.1651 -0.6743 -0.9193
 6468SOL     OW20645   0.543   3.968   0.701  0.2054 -0.0571 -0.0621
 6468SOL    HW120646   0.632   3.943   0.727  0.0909  1.4490  1.9395
 6468SOL    HW220647   0.513   4.025   0.772 -1.8786  0.5043 -1.3597
 6469SOL     OW20648   5.702   3.206   7.266 -0.5113  0.2289  0.3994
 6469SOL    HW120649   5.740   3.273   7.323 -0.9163 -1.1375  2.3520
 6469SOL    HW220650   5.761   3.202   7.191  0.9696  0.9389  1.4839
 6470SOL     OW20651   2.371   6.696   5.715 -0.4531 -0.5666 -0.2059
 6470SOL    HW120652   2.456   6.664   5.685 -0.1107  1.2796 -1.2765
 6470SOL    HW220653   2.355   6.775   5.663 -1.4598  0.7574  2.0233
 6471SOL     OW20654   1.569   1.209   5.156 -0.1327  0.1075  0.0164
 6471SOL    HW120655   1.664   1.200   5.146 -0.0955  1.6549 -1.2480
 6471SOL    HW220656   1.557   1.299   5.185 -1.3904  0.8764 -2.8083
 6472SOL     OW20657   4.799   2.965   5.181  0.0265 -0.1189 -0.0255
 6472SOL    HW120658   4.822   3.030   5.247 -1.6959  1.1124 -0.6023
 6472SOL    HW220659   4.878   2.954   5.129  1.4800 -1.2928  2.3679
 6473SOL     OW20660   2.970   2.153   5.925 -0.0452 -0.6015 -0.0603
 6473SOL    HW120661   3.008   2.180   5.842 -1.3140  0.6290 -0.2619
 6473SOL    HW220662   3.045   2.150   5.986  0.6227  0.1371 -0.8375
 6474SOL     OW20663   7.451   0.370   0.611 -0.2482  0.2902  0.7023
 6474SOL    HW120664   7.502   0.413   0.543  0.0077  0.3038  0.9041
 6474SOL    HW220665   7.410   0.296   0.567 -1.1339  1.0558  0.2196
 6475SOL     OW20666   8.028   4.048   4.370  0.5526 -0.1199 -0.1871
 6475SOL    HW120667   7.952   4.047   4.311 -0.5325 -1.9798  1.2202
 6475SOL    HW220668   8.096   4.000   4.323  0.1467 -0.3767 -0.5114
 6476SOL     OW20669   1.301   0.209   0.533  0.3229 -0.2840  0.2678
 6476SOL    HW120670   1.243   0.222   0.607  1.7222 -1.1908  1.5647
 6476SOL    HW220671   1.377   0.163   0.570  1.4033 -0.0261 -1.5628
 6477SOL     OW20672   4.286   3.207   4.970 -0.4171  0.3825  0.2889
 6477SOL    HW120673   4.354   3.162   5.020  0.3000  1.6866  0.5188
 6477SOL    HW220674   4.298   3.300   4.992 -0.9639  0.8276 -1.2667
 6478SOL     OW20675   5.334   4.614   1.423  0.0491  0.2313 -0.0399
 6478SOL    HW120676   5.241   4.634   1.423 -0.2813 -1.2151 -1.5222
 6478SOL    HW220677   5.348   4.565   1.342  1.6977 -1.3808  1.1956
 6479SOL     OW20678   7.972   5.624   6.108  0.3131  0.0764  0.2591
 6479SOL    HW120679   8.016   5.562   6.049 -0.1548 -1.3198  1.3428
 6479SOL    HW220680   7.964   5.704   6.057 -0.0777 -1.1043 -1.5812
 6480SOL     OW20681   2.701   2.715   6.463 -0.1888 -0.1003  0.1095
 6480SOL    HW120682   2.700   2.713   6.559 -1.0785  0.6398  0.1199
 6480SOL    HW220683   2.617   2.680   6.436 -1.0267  2.1372 -0.3280
 6481SOL     OW20684   1.277   5.102   4.750 -0.4539 -0.1609 -0.2982
 6481SOL    HW120685   1.259   5.144   4.666  0.7506  0.8252 -0.0668
 6481SOL    HW220686   1.370   5.115   4.764 -0.6142 -0.4983  1.1107
 6482SOL     OW20687   6.115   7.724   1.653 -0.3751 -0.4423  0.3156
 6482SOL    HW120688   6.135   7.654   1.715 -2.5064 -0.9652  0.4546
 6482SOL    HW220689   6.091   7.799   1.707 -0.3331 -0.3074  0.1478
 6483SOL     OW20690   8.073   6.923   6.344  0.8058  0.8708  0.6801
 6483SOL    HW120691   8.135   6.916   6.416  1.0374  0.5404  0.4505
 6483SOL    HW220692   8.024   7.003   6.362  0.8203  0.7606  1.2357
 6484SOL     OW20693   0.384   6.667   2.326 -0.5453  0.0327 -0.7678
 6484SOL    HW120694   0.453   6.690   2.388  1.1727 -0.5169 -2.4450
 6484SOL    HW220695   0.429   6.653   2.243 -2.7782  0.4820 -2.1011
 6485SOL     OW20696   7.262   1.131   5.877 -0.3111  0.3986 -0.7841
 6485SOL    HW120697   7.204   1.189   5.927  1.7997  1.5487  0.4190
 6485SOL    HW220698   7.323   1.096   5.942 -0.9827 -2.4842 -1.6719
 6486SOL     OW20699   7.221   6.703   4.694 -0.1073  0.0329 -0.1377
 6486SOL    HW120700   7.295   6.644   4.710 -1.8592 -2.3723 -0.6070
 6486SOL    HW220701   7.226   6.721   4.600 -0.3393 -0.4503 -0.2448
 6487SOL     OW20702   6.570   0.678   1.265 -0.0999  1.0475  0.2113
 6487SOL    HW120703   6.495   0.633   1.306 -0.3940  0.3115 -1.1321
 6487SOL    HW220704   6.629   0.695   1.338 -1.1384  0.7690  1.1455
 6488SOL     OW20705   0.991   2.366   6.442 -0.6620  0.3252 -0.2984
 6488SOL    HW120706   1.014   2.273   6.447  2.1266  1.0278  1.0897
 6488SOL    HW220707   1.017   2.392   6.354 -0.5588 -0.0174 -0.3706
 6489SOL     OW20708   6.708   4.692   5.106  0.1247  0.0288 -0.7168
 6489SOL    HW120709   6.742   4.682   5.017  3.6544  2.6917  0.2380
 6489SOL    HW220710   6.779   4.661   5.163 -1.3495  0.1489  1.2501
 6490SOL     OW20711   4.755   0.229   0.934 -0.1029  0.5909 -0.1444
 6490SOL    HW120712   4.736   0.233   1.028 -0.8153  0.9341 -0.3024
 6490SOL    HW220713   4.735   0.139   0.909  1.2488  0.1577  0.2718
 6491SOL     OW20714   0.744   0.707   0.384  0.5012 -0.2167 -0.4173
 6491SOL    HW120715   0.775   0.740   0.469  0.3686 -0.4997 -0.2609
 6491SOL    HW220716   0.649   0.703   0.393  0.4599  0.1096 -0.7071
 6492SOL     OW20717   0.856   0.771   1.917  0.0067 -0.8311 -0.3959
 6492SOL    HW120718   0.779   0.750   1.971  0.4559 -2.1672 -0.2601
 6492SOL    HW220719   0.905   0.689   1.912  0.9284 -0.2355 -1.3008
 6493SOL     OW20720   4.073   2.701   5.627  0.2213 -0.1848 -0.2164
 6493SOL    HW120721   4.006   2.750   5.579 -0.1805 -1.3702 -0.8816
 6493SOL    HW220722   4.081   2.618   5.579  0.2647 -1.1253  1.3857
 6494SOL     OW20723   0.344   0.572   4.410  0.4776  0.1801 -0.4921
 6494SOL    HW120724   0.323   0.487   4.371  0.2945  0.1751 -0.3840
 6494SOL    HW220725   0.279   0.583   4.479  1.9512 -0.6908  1.0972
 6495SOL     OW20726   3.940   0.222   3.950 -0.2522 -0.5905  0.6918
 6495SOL    HW120727   4.015   0.248   4.003  0.7807 -0.5999 -0.7276
 6495SOL    HW220728   3.945   0.279   3.873 -0.3635 -2.1659 -0.5037
 6496SOL     OW20729   6.486   3.033   4.297 -0.1223 -0.7251 -0.1168
 6496SOL    HW120730   6.515   3.088   4.223  0.3569 -2.4691 -1.2482
 6496SOL    HW220731   6.564   3.021   4.350  0.0752 -1.3354 -0.5384
 6497SOL     OW20732   3.014   4.462   4.795  0.1778 -0.1162 -0.5666
 6497SOL    HW120733   3.012   4.472   4.890 -0.1822 -0.3530 -0.5470
 6497SOL    HW220734   3.064   4.537   4.763 -1.6944  1.2340 -0.3612
 6498SOL     OW20735   3.241   4.786   7.464  0.4770 -0.2599  0.2571
 6498SOL    HW120736   3.313   4.722   7.461  1.8302  1.1001  2.3502
 6498SOL    HW220737   3.242   4.827   7.378  0.1525 -2.4123 -0.8161
 6499SOL     OW20738   2.411   3.756   2.717 -0.0686  0.2985  0.6666
 6499SOL    HW120739   2.495   3.713   2.732 -0.1137  0.4683  1.4486
 6499SOL    HW220740   2.348   3.685   2.706  0.1957  0.1716 -0.0365
 6500SOL     OW20741   0.354   0.729   7.298  0.3558 -0.8952  0.0404
 6500SOL    HW120742   0.315   0.754   7.214 -0.5097 -0.0313  0.6924
 6500SOL    HW220743   0.448   0.738   7.284  0.1122  2.6721  0.1779
 6501SOL     OW20744   0.712   0.652   4.005  0.0813  0.0914  0.1054
 6501SOL    HW120745   0.780   0.585   4.012  1.9433  1.8574 -0.5382
 6501SOL    HW220746   0.676   0.641   3.917 -0.6065 -0.9532  0.5062
 6502SOL     OW20747   3.667   8.050   7.952  0.0436  0.2498  0.0303
 6502SOL    HW120748   3.578   8.054   7.915  0.8523  1.3466 -1.8667
 6502SOL    HW220749   3.676   7.960   7.982 -0.7666 -0.6440 -2.2472
 6503SOL     OW20750   2.735   1.200   1.997  0.4245  0.4954  0.2816
 6503SOL    HW120751   2.722   1.119   2.047 -1.3786  0.6659  0.1253
 6503SOL    HW220752   2.748   1.267   2.064  1.0432  0.2290  0.4332
 6504SOL     OW20753   2.419   5.660   7.758  0.2712 -0.0983  0.2294
 6504SOL    HW120754   2.416   5.565   7.754 -0.2669 -0.0293 -1.2870
 6504SOL    HW220755   2.506   5.680   7.794  0.7301 -1.1312 -0.2929
 6505SOL     OW20756   7.442   0.178   3.801 -0.2101 -0.0016  0.3179
 6505SOL    HW120757   7.377   0.241   3.772  0.6183  0.0124 -1.5369
 6505SOL    HW220758   7.500   0.227   3.859  0.5266  0.9635 -1.2456
 6506SOL     OW20759   8.209   0.563   4.453 -0.2414  0.0275  0.7145
 6506SOL    HW120760   8.241   0.644   4.493 -0.9053  1.1909 -1.0555
 6506SOL    HW220761   8.275   0.497   4.475 -0.5850  0.6344  3.6648
 6507SOL     OW20762   7.438   0.332   2.008  0.1559 -0.0429  0.3759
 6507SOL    HW120763   7.389   0.251   2.025  1.1094 -0.3689  1.5892
 6507SOL    HW220764   7.442   0.376   2.092 -3.3164  2.9808 -0.9319
 6508SOL     OW20765   5.601   0.080   6.595  0.3173  0.4730  0.2262
 6508SOL    HW120766   5.512   0.107   6.577 -0.0616 -0.7601  0.2194
 6508SOL    HW220767   5.610   0.089   6.690 -0.2896 -0.7766  0.4152
 6509SOL     OW20768   0.851   7.588   6.652 -0.1145  0.0199  0.1650
 6509SOL    HW120769   0.895   7.521   6.704  1.1956  1.1034  0.4699
 6509SOL    HW220770   0.884   7.671   6.686 -1.1158  0.8083 -0.7415
 6510SOL     OW20771   1.789   4.929   4.378  0.4471  0.0942 -0.2653
 6510SOL    HW120772   1.718   4.973   4.425 -0.4122 -0.6963 -0.8126
 6510SOL    HW220773   1.832   4.999   4.329 -0.0265  0.5551 -0.0379
 6511SOL     OW20774   6.044   7.530   5.093  0.0821  0.3077  0.1077
 6511SOL    HW120775   5.976   7.585   5.133 -0.4872  0.2137 -0.7212
 6511SOL    HW220776   6.037   7.446   5.138  1.6075  1.1949  2.0685
 6512SOL     OW20777   1.579   5.615   6.485  0.1134  0.1642 -0.8058
 6512SOL    HW120778   1.630   5.691   6.459 -1.9803  2.2796  0.9370
 6512SOL    HW220779   1.526   5.594   6.408  3.3351 -1.9116 -2.5415
 6513SOL     OW20780   0.003   5.521   5.114  0.3041 -0.4152 -0.7031
 6513SOL    HW120781  -0.014   5.427   5.119 -1.0885 -0.0434  2.4490
 6513SOL    HW220782  -0.014   5.554   5.202  2.1634  2.5948 -1.3879
 6514SOL     OW20783   0.843   6.794   8.166 -0.1657 -0.0996  0.0299
 6514SOL    HW120784   0.859   6.845   8.086  1.5912 -0.5919  0.0386
 6514SOL    HW220785   0.894   6.839   8.233 -2.8697  1.2370  1.2825
 6515SOL     OW20786   0.205   4.796   1.646  0.3373  0.4200  0.1024
 6515SOL    HW120787   0.197   4.824   1.554 -3.1083 -0.4864  0.0669
 6515SOL    HW220788   0.119   4.759   1.667  1.6085 -0.8857  3.2208
 6516SOL     OW20789   8.129   3.661   8.221 -0.1727  0.0860 -0.3147
 6516SOL    HW120790   8.202   3.723   8.213 -1.6919  1.6982 -2.2344
 6516SOL    HW220791   8.166   3.577   8.195  1.0906  0.8408 -1.0243
 6517SOL     OW20792   0.928   4.100   2.243 -0.1671  0.3618 -0.6833
 6517SOL    HW120793   0.930   4.165   2.173 -2.4283  0.1845 -0.9389
 6517SOL    HW220794   0.940   4.016   2.199  3.1351  0.5736 -0.3131
 6518SOL     OW20795   1.846   1.596   5.450  0.2077  0.1546 -0.0197
 6518SOL    HW120796   1.926   1.643   5.428  0.3427 -0.1388 -0.1595
 6518SOL    HW220797   1.777   1.638   5.398  0.1591  0.7949  0.5407
 6519SOL     OW20798   6.775   4.097   0.676 -0.4184 -0.2395  0.5086
 6519SOL    HW120799   6.851   4.044   0.701 -0.6707 -1.3126 -0.9451
 6519SOL    HW220800   6.795   4.184   0.711 -0.3534 -1.4273  3.6288
 6520SOL     OW20801   7.439   3.373   6.528  0.1446  0.5937 -0.1891
 6520SOL    HW120802   7.489   3.376   6.447 -0.9098 -1.5782 -0.9485
 6520SOL    HW220803   7.460   3.287   6.566  1.5690  2.0531  2.4655
 6521SOL     OW20804   6.278   0.958   2.367 -0.0362 -0.4956  0.2040
 6521SOL    HW120805   6.306   1.022   2.302  0.1488 -0.2867  0.4901
 6521SOL    HW220806   6.292   0.873   2.325  1.1177 -0.3971  0.3776
 6522SOL     OW20807   3.113   6.196   6.458  0.6546 -0.5120 -0.2416
 6522SOL    HW120808   3.031   6.186   6.411 -1.3920  0.8557  2.8972
 6522SOL    HW220809   3.155   6.272   6.417 -0.1655 -0.5401 -1.1388
 6523SOL     OW20810   2.745   3.313   1.954  0.3730 -0.0058 -0.0855
 6523SOL    HW120811   2.766   3.250   2.023 -0.0447 -0.4928 -0.3991
 6523SOL    HW220812   2.694   3.380   1.998 -1.3768 -1.1883 -0.2435
 6524SOL     OW20813   7.909   5.141   2.099  0.2112  0.5155 -0.0313
 6524SOL    HW120814   7.944   5.052   2.107  1.7434  0.9860 -1.3297
 6524SOL    HW220815   7.838   5.145   2.164 -0.1593 -1.7840 -0.2641
 6525SOL     OW20816   6.580   7.275   4.277  0.1222 -0.0786  0.7352
 6525SOL    HW120817   6.569   7.190   4.320  2.3454 -1.2294 -0.8569
 6525SOL    HW220818   6.502   7.284   4.222 -0.2441 -0.9418  1.1004
 6526SOL     OW20819   7.792   4.355   2.403 -0.1728 -0.1172 -0.0183
 6526SOL    HW120820   7.760   4.376   2.490 -1.5381  0.9754 -0.7613
 6526SOL    HW220821   7.728   4.395   2.343  0.0623 -1.8830 -1.5147
 6527SOL     OW20822   6.922   4.597   5.239 -0.0027  1.1879 -0.5522
 6527SOL    HW120823   6.998   4.546   5.211 -1.5781 -0.1426 -2.5671
 6527SOL    HW220824   6.950   4.641   5.319  1.9900 -1.4231  0.2365
 6528SOL     OW20825   5.662   2.517   7.084  0.1059 -0.3337  0.9764
 6528SOL    HW120826   5.752   2.516   7.117  0.0453 -1.2795  1.1178
 6528SOL    HW220827   5.632   2.607   7.099  1.7909  0.6123 -1.1927
 6529SOL     OW20828   0.905   5.589   3.976  0.5521 -0.6220 -0.7554
 6529SOL    HW120829   0.994   5.624   3.973 -0.5653  2.3133 -1.7665
 6529SOL    HW220830   0.892   5.551   3.889 -0.0462  1.2689 -1.5081
 6530SOL     OW20831   0.697   0.943   4.950 -0.9273 -0.3927 -0.6166
 6530SOL    HW120832   0.702   0.857   4.907 -1.2439 -1.1825  0.8687
 6530SOL    HW220833   0.640   0.995   4.893  0.1888 -0.7980 -2.1350
 6531SOL     OW20834   4.385   1.386   2.567  0.7143  0.0397 -0.0682
 6531SOL    HW120835   4.335   1.439   2.630 -0.2229  0.6735 -1.3280
 6531SOL    HW220836   4.355   1.297   2.582  0.5106  0.1822  0.3971
 6532SOL     OW20837   7.912   3.057   0.370  0.1075  0.2844  0.3305
 6532SOL    HW120838   7.824   3.060   0.334  0.1306 -0.5238  0.1966
 6532SOL    HW220839   7.918   2.972   0.413  0.6683  0.5202  0.7236
 6533SOL     OW20840   1.629   6.029   2.720 -0.3572 -0.3129  0.0659
 6533SOL    HW120841   1.655   6.063   2.806 -0.6755 -0.8542  0.3764
 6533SOL    HW220842   1.675   5.946   2.712  0.7722  0.3873 -0.8874
 6534SOL     OW20843   1.053   0.979   3.549  0.2921 -0.5102  0.0397
 6534SOL    HW120844   1.070   0.964   3.456  0.5781 -0.4501  0.0802
 6534SOL    HW220845   1.004   0.902   3.577 -1.0493  0.1381 -0.4844
 6535SOL     OW20846   7.598   4.768   0.556  0.4367  0.7163 -0.6836
 6535SOL    HW120847   7.678   4.727   0.591 -1.8136 -3.6864 -0.2485
 6535SOL    HW220848   7.585   4.726   0.471 -1.8731  0.7127 -0.3494
 6536SOL     OW20849   4.093   3.811   3.059  0.2507  0.3988 -0.5522
 6536SOL    HW120850   4.128   3.897   3.034 -0.5544  0.7044 -0.6271
 6536SOL    HW220851   4.079   3.818   3.153  0.1320  0.3677 -0.5683
 6537SOL     OW20852   0.270   7.127   7.438 -0.1603  0.1706  0.1455
 6537SOL    HW120853   0.330   7.058   7.409  2.6862  2.8173 -0.4906
 6537SOL    HW220854   0.203   7.130   7.369 -0.3398 -1.9360  0.1951
 6538SOL     OW20855   1.675   2.989   5.794  0.6198  0.0718 -0.0568
 6538SOL    HW120856   1.684   2.895   5.783  0.2603  0.1139 -0.7395
 6538SOL    HW220857   1.755   3.026   5.756  1.1973 -0.0037  1.0565
 6539SOL     OW20858   5.167   2.111   6.302 -0.1665 -0.0650 -0.1467
 6539SOL    HW120859   5.202   2.028   6.333 -1.4253 -0.8360 -0.7120
 6539SOL    HW220860   5.138   2.157   6.381  1.3633  0.2339  0.2449
 6540SOL     OW20861   5.685   1.736   3.912  0.1557  0.2368  0.0895
 6540SOL    HW120862   5.637   1.730   3.829  1.8483  1.2700 -1.0152
 6540SOL    HW220863   5.718   1.648   3.927  2.7994  0.7592 -2.2237
 6541SOL     OW20864   4.365   4.592   7.242  0.2348 -0.1084  0.1643
 6541SOL    HW120865   4.405   4.507   7.259  0.2427 -0.1688 -0.1513
 6541SOL    HW220866   4.272   4.579   7.261  0.2218 -0.2123  0.0316
 6542SOL     OW20867   1.373   4.462   4.643 -0.2142  0.3093  0.5294
 6542SOL    HW120868   1.456   4.416   4.627  0.4876  2.0182 -0.9198
 6542SOL    HW220869   1.326   4.455   4.560  0.5279  3.4157 -0.2003
 6543SOL     OW20870   2.392   1.873   0.586 -0.3942  0.7378 -0.2518
 6543SOL    HW120871   2.374   1.893   0.678  1.0538  0.6536  0.0574
 6543SOL    HW220872   2.398   1.959   0.544 -1.0873  0.7760 -0.2812
 6544SOL     OW20873   4.242   4.623   1.649 -0.0290 -0.2509  0.2192
 6544SOL    HW120874   4.248   4.527   1.645 -0.2916 -0.3165  1.3711
 6544SOL    HW220875   4.150   4.641   1.665 -0.2146  0.2544 -1.3087
 6545SOL     OW20876   3.296   4.170   7.629  0.5317 -0.0386 -0.1104
 6545SOL    HW120877   3.253   4.119   7.697 -0.0263  1.3801  0.6208
 6545SOL    HW220878   3.366   4.217   7.674  2.0576 -1.3455 -1.0616
 6546SOL     OW20879   0.718   7.893   6.757  0.0916  0.1360  0.0993
 6546SOL    HW120880   0.680   7.840   6.827 -0.5341 -1.5044 -1.4535
 6546SOL    HW220881   0.808   7.863   6.750 -0.0561 -0.2169 -0.2921
 6547SOL     OW20882   5.120   3.813   4.114  0.0458  0.7616  0.1015
 6547SOL    HW120883   5.090   3.849   4.031  1.5202  2.3560  0.2376
 6547SOL    HW220884   5.162   3.731   4.092 -0.7133  0.5466 -0.5663
 6548SOL     OW20885   0.874   0.127   1.701 -0.6067 -0.2253  0.4987
 6548SOL    HW120886   0.789   0.163   1.676 -0.1018  0.3984 -0.3646
 6548SOL    HW220887   0.910   0.193   1.761  0.0424  0.4106 -0.5753
 6549SOL     OW20888   8.215   1.999   0.504 -0.0912 -0.4298 -0.1684
 6549SOL    HW120889   8.151   2.020   0.435 -1.3475  0.8015  1.3383
 6549SOL    HW220890   8.260   2.081   0.521  1.8886 -1.2722 -1.1508
 6550SOL     OW20891   5.478   1.139   4.541 -0.0928  0.3078 -0.2160
 6550SOL    HW120892   5.479   1.208   4.474  2.8509  1.1830  0.6276
 6550SOL    HW220893   5.386   1.117   4.552 -0.8987  2.5254 -2.1506
 6551SOL     OW20894   2.247   0.461   1.355  0.2702  0.0196 -0.1167
 6551SOL    HW120895   2.260   0.367   1.361 -0.3595 -0.2009 -2.0760
 6551SOL    HW220896   2.269   0.494   1.443  0.2286 -1.9584  0.6493
 6552SOL     OW20897   4.336   0.968   0.772 -0.3252  0.0567  0.0779
 6552SOL    HW120898   4.282   0.905   0.819  0.1725 -1.2495 -1.0656
 6552SOL    HW220899   4.409   0.985   0.832 -0.1457 -0.9191  0.1509
 6553SOL     OW20900   4.635   6.011   3.645  0.3017 -0.2335  0.5373
 6553SOL    HW120901   4.581   5.980   3.717  0.3390 -0.2982  0.5363
 6553SOL    HW220902   4.714   5.957   3.648  0.3903 -0.1025  0.5717
 6554SOL     OW20903   4.329   7.826   0.991  0.1586  0.8680 -0.0620
 6554SOL    HW120904   4.326   7.814   1.086  1.1425 -0.6447 -0.2007
 6554SOL    HW220905   4.246   7.791   0.959 -0.1240  1.2749  0.2245
 6555SOL     OW20906   4.609   1.366   4.083 -0.2071 -0.1834 -0.1560
 6555SOL    HW120907   4.649   1.357   3.997 -0.5979  2.1969 -0.6473
 6555SOL    HW220908   4.515   1.370   4.064 -0.2220  1.7882  0.1869
 6556SOL     OW20909   1.471   3.026   5.617 -0.4987  0.3155 -0.2209
 6556SOL    HW120910   1.409   3.079   5.668 -1.5361 -1.4121  0.3923
 6556SOL    HW220911   1.546   3.015   5.675 -1.5638 -1.4146  0.8959
 6557SOL     OW20912   4.788   1.043   0.149  0.2602 -0.3114 -0.2305
 6557SOL    HW120913   4.706   1.032   0.100 -0.3862 -2.3109  1.2074
 6557SOL    HW220914   4.785   1.133   0.180 -2.4111 -0.9410  1.5110
 6558SOL     OW20915   2.042   1.359   0.991  0.4822 -0.1182  0.0883
 6558SOL    HW120916   2.122   1.360   1.044  0.8919  2.5748 -0.5410
 6558SOL    HW220917   1.989   1.289   1.030  2.2033 -0.4783  1.8823
 6559SOL     OW20918   0.889   4.399   2.698  0.4024 -0.2981  0.4065
 6559SOL    HW120919   0.859   4.324   2.646  0.3990  0.4989 -0.7512
 6559SOL    HW220920   0.960   4.364   2.752  1.1295 -0.8932 -0.9110
 6560SOL     OW20921   5.104   6.541   1.307 -0.1466 -0.3941  0.1886
 6560SOL    HW120922   5.095   6.464   1.251 -1.4623 -1.6359  2.0589
 6560SOL    HW220923   5.198   6.546   1.326 -0.0032 -1.3207 -0.2381
 6561SOL     OW20924   0.208   1.076   8.195 -1.1853  0.2982 -0.0859
 6561SOL    HW120925   0.129   1.122   8.167 -1.3088 -0.1681 -0.5189
 6561SOL    HW220926   0.278   1.117   8.144 -1.3596 -0.2975 -0.8153
 6562SOL     OW20927   3.886   7.732   3.112 -0.0939  0.1286  0.1002
 6562SOL    HW120928   3.916   7.802   3.169 -1.6347  0.3354  0.6725
 6562SOL    HW220929   3.794   7.719   3.135 -0.1011 -1.3994 -0.6857
 6563SOL     OW20930   3.392   6.085   1.026 -0.9529 -0.2130 -0.5914
 6563SOL    HW120931   3.455   6.134   0.974  0.2064  0.1301  1.0953
 6563SOL    HW220932   3.440   6.060   1.105 -2.1803 -2.1756 -0.4336
 6564SOL     OW20933   3.127   3.952   2.251 -0.4352 -0.5720  0.7519
 6564SOL    HW120934   3.183   3.906   2.313 -0.1090  0.6588  1.3961
 6564SOL    HW220935   3.098   4.030   2.298 -0.2247  0.3617 -0.6135
 6565SOL     OW20936   5.732   8.082   4.371 -0.4862 -0.2411  0.2282
 6565SOL    HW120937   5.742   8.000   4.323 -2.3736 -1.0523  1.1756
 6565SOL    HW220938   5.732   8.055   4.463 -1.2744  0.7986  0.5372
 6566SOL     OW20939   7.329   5.322   0.635  0.0643  0.6238  0.2507
 6566SOL    HW120940   7.419   5.349   0.652  0.4457  0.5702 -1.5925
 6566SOL    HW220941   7.301   5.278   0.715  0.9549  2.5218  1.6281
 6567SOL     OW20942   1.241   5.028   0.322 -0.4469  0.1446  0.2505
 6567SOL    HW120943   1.328   5.063   0.334 -0.3298  0.3272 -1.0084
 6567SOL    HW220944   1.255   4.944   0.276 -0.9688  0.6450 -0.8553
 6568SOL     OW20945   6.857   1.336   4.466  0.0257  0.0221  0.2927
 6568SOL    HW120946   6.895   1.421   4.489  0.6846 -0.2926  0.3859
 6568SOL    HW220947   6.799   1.355   4.392  2.2911  0.1341 -1.5455
 6569SOL     OW20948   6.356   4.957   0.359 -0.3519  0.2073 -0.2037
 6569SOL    HW120949   6.408   4.877   0.355 -0.4196  0.2109 -1.1769
 6569SOL    HW220950   6.387   5.002   0.438  0.9655  0.1158 -0.6597
 6570SOL     OW20951   7.356   5.351   3.909  0.5486 -0.3438 -0.2880
 6570SOL    HW120952   7.431   5.334   3.967  0.9532 -0.8946 -0.9573
 6570SOL    HW220953   7.280   5.322   3.959  0.8602 -0.4732  0.1159
 6571SOL     OW20954   0.109   2.945   1.848 -0.3620  0.2489 -0.0109
 6571SOL    HW120955   0.118   2.889   1.925 -2.1026 -0.2615 -0.1604
 6571SOL    HW220956   0.108   2.884   1.774 -0.2038  0.6286 -0.3291
 6572SOL     OW20957   0.464   7.956   7.110 -0.7923  0.0056  1.2413
 6572SOL    HW120958   0.529   7.893   7.142 -0.2145 -0.0200  0.0276
 6572SOL    HW220959   0.394   7.903   7.074 -0.9297  0.0530  1.4335
 6573SOL     OW20960   1.819   7.564   4.901  0.1893 -0.1256  0.0830
 6573SOL    HW120961   1.817   7.509   4.979 -1.6106  0.3755  0.4198
 6573SOL    HW220962   1.876   7.518   4.840  3.3783  0.5111  2.4276
 6574SOL     OW20963   6.209   5.401   5.938  0.1174  0.4148  0.1223
 6574SOL    HW120964   6.254   5.401   5.853  0.9817  1.1574  0.5693
 6574SOL    HW220965   6.205   5.309   5.963  2.5563  0.4230  0.6740
 6575SOL     OW20966   7.366   6.738   0.602  0.1973  0.8018  0.1500
 6575SOL    HW120967   7.392   6.726   0.694  0.6916  0.2127 -0.0621
 6575SOL    HW220968   7.446   6.722   0.552 -0.1481  0.7865 -0.4052
 6576SOL     OW20969   1.451   4.645   2.638 -0.3106  0.2444  0.1201
 6576SOL    HW120970   1.422   4.683   2.555 -0.2104 -0.1639 -0.1014
 6576SOL    HW220971   1.479   4.556   2.615 -1.2688 -0.2345  0.7678
 6577SOL     OW20972   2.116   2.388   7.434 -0.2780 -0.0627 -0.1882
 6577SOL    HW120973   2.139   2.301   7.401  0.4550 -0.1097  0.4141
 6577SOL    HW220974   2.196   2.440   7.422 -0.8557  0.6479 -0.9507
 6578SOL     OW20975   2.307   2.234   7.700  0.3982  0.5407 -0.4179
 6578SOL    HW120976   2.236   2.171   7.710  0.4045  0.4179 -1.1516
 6578SOL    HW220977   2.319   2.242   7.606 -0.3721  2.4798 -0.3843
 6579SOL     OW20978   3.447   7.148   2.370  0.6028  0.1687  0.0871
 6579SOL    HW120979   3.431   7.213   2.302 -0.8844 -1.3895 -1.0860
 6579SOL    HW220980   3.499   7.195   2.436  1.9779  1.7341 -2.0311
 6580SOL     OW20981   7.238   4.643   2.465  0.0533  0.3749 -0.1422
 6580SOL    HW120982   7.169   4.642   2.398  0.1776  0.3762 -0.2721
 6580SOL    HW220983   7.195   4.613   2.545 -0.3895  1.5587  0.0730
 6581SOL     OW20984   1.291   0.200   2.762 -0.2401  0.5746 -0.2333
 6581SOL    HW120985   1.196   0.194   2.756 -0.1382 -1.4914 -0.2908
 6581SOL    HW220986   1.308   0.218   2.855 -0.6194 -1.6238  0.2916
 6582SOL     OW20987   0.165   5.287   6.595 -0.0874 -0.2658  0.3578
 6582SOL    HW120988   0.229   5.241   6.650  0.0625 -0.6674 -0.1420
 6582SOL    HW220989   0.183   5.380   6.609  0.3517 -0.3737  0.5164
 6583SOL     OW20990   7.748   0.797   3.507 -0.0325 -0.6543  0.1756
 6583SOL    HW120991   7.772   0.772   3.418 -0.3521  1.2474 -0.4721
 6583SOL    HW220992   7.829   0.784   3.558  0.5733 -0.3464 -0.6882
 6584SOL     OW20993   7.801   1.232   7.649  0.1446  0.4900 -0.1134
 6584SOL    HW120994   7.820   1.254   7.558  1.0653  0.8689  0.1668
 6584SOL    HW220995   7.864   1.283   7.700  0.2926 -0.4835  0.6889
 6585SOL     OW20996   6.353   2.181   3.375 -0.2294  0.4339 -0.1190
 6585SOL    HW120997   6.333   2.245   3.443 -0.0616  1.0740 -0.6666
 6585SOL    HW220998   6.441   2.205   3.345 -0.5675  0.5597 -1.0118
 6586SOL     OW20999   1.302   5.781   5.666 -0.4477 -0.1561 -0.7944
 6586SOL    HW121000   1.313   5.723   5.591  1.2235 -0.6584 -0.1814
 6586SOL    HW221001   1.273   5.724   5.737  0.4517 -0.1253 -0.3924
 6587SOL     OW21002   1.164   5.319   4.064  0.2473 -0.5481 -0.1923
 6587SOL    HW121003   1.244   5.367   4.084  1.1726 -1.8335 -0.6499
 6587SOL    HW221004   1.144   5.342   3.973 -1.0643  1.3414  0.5601
 6588SOL     OW21005   3.719   7.195   5.625 -0.5039 -0.0308  0.1989
 6588SOL    HW121006   3.787   7.137   5.591 -1.1540 -0.9875  0.4897
 6588SOL    HW221007   3.645   7.137   5.643 -1.9111  1.1872 -1.4701
 6589SOL     OW21008   7.939   1.112   4.343  0.0959 -0.6588 -0.2855
 6589SOL    HW121009   7.879   1.148   4.279  0.4719  1.5851  0.5927
 6589SOL    HW221010   7.913   1.152   4.426  2.1605 -0.4168  0.2712
 6590SOL     OW21011   1.039   1.830   2.392 -0.2607 -0.5347 -0.5824
 6590SOL    HW121012   1.006   1.744   2.367  0.4468 -0.9915  0.0400
 6590SOL    HW221013   1.127   1.814   2.426  0.7156  0.6923 -2.4120
 6591SOL     OW21014   2.687   4.872   7.877  0.4659  0.6360 -0.4744
 6591SOL    HW121015   2.750   4.944   7.868 -0.4919  1.2354 -3.0049
 6591SOL    HW221016   2.604   4.916   7.895  0.3378  0.0093  0.4599
 6592SOL     OW21017   0.157   3.852   7.073 -0.4279 -0.3384 -0.2782
 6592SOL    HW121018   0.220   3.912   7.033 -1.9547  1.8997  0.6079
 6592SOL    HW221019   0.201   3.821   7.152  0.4715 -0.6015 -0.8736
 6593SOL     OW21020   4.811   4.609   4.356  0.2440 -0.2472  0.1324
 6593SOL    HW121021   4.906   4.616   4.349  0.0526  2.7013 -0.1575
 6593SOL    HW221022   4.795   4.594   4.449  0.9695 -0.3084  0.2533
 6594SOL     OW21023   6.444   0.978   4.248  0.1125 -0.0370 -0.5310
 6594SOL    HW121024   6.512   0.941   4.192 -0.3087  0.8312 -1.6255
 6594SOL    HW221025   6.447   1.072   4.230 -0.1637  0.2203  0.7582
 6595SOL     OW21026   2.228   3.769   7.786 -0.7560 -0.1222 -0.0850
 6595SOL    HW121027   2.322   3.755   7.793 -0.6469  1.3204  1.6025
 6595SOL    HW221028   2.220   3.851   7.736 -1.1463 -0.6821 -0.9549
 6596SOL     OW21029   7.532   1.324   3.829  0.0458  0.1861  0.3361
 6596SOL    HW121030   7.591   1.255   3.796  1.1723 -0.0962  2.8127
 6596SOL    HW221031   7.584   1.404   3.822  0.7406 -0.0438  2.4000
 6597SOL     OW21032   4.942   7.856   6.908  0.5104 -0.3426 -0.8161
 6597SOL    HW121033   4.949   7.937   6.957 -1.2107 -0.2577 -0.6651
 6597SOL    HW221034   4.983   7.790   6.964  2.2184  0.4785 -1.0968
 6598SOL     OW21035   3.950   1.369   3.505  0.2311  0.0387  1.0108
 6598SOL    HW121036   3.933   1.459   3.477  0.3969 -0.1992  0.1189
 6598SOL    HW221037   3.963   1.321   3.423 -0.5733 -0.9425  1.4512
 6599SOL     OW21038   0.088   2.309   7.013  0.8230  0.1610  0.0253
 6599SOL    HW121039   0.055   2.221   6.995 -0.3764  0.6387 -0.2002
 6599SOL    HW221040   0.169   2.316   6.962  1.9204 -1.4624  1.5228
 6600SOL     OW21041   1.208   5.802   0.730  0.3539 -0.0838  0.2055
 6600SOL    HW121042   1.175   5.854   0.804 -0.7225 -1.0319  0.4012
 6600SOL    HW221043   1.151   5.827   0.657  1.6260  1.0984 -0.3917
 6601SOL     OW21044   5.118   3.923   3.285 -0.0271  0.7620 -0.0426
 6601SOL    HW121045   5.087   3.961   3.203  0.3422  1.1158 -0.0250
 6601SOL    HW221046   5.040   3.889   3.327 -0.2869  1.0013 -0.3256
 6602SOL     OW21047   0.920   5.867   2.556 -0.6018 -0.0955 -0.3900
 6602SOL    HW121048   0.884   5.953   2.575  3.1364  1.7793 -1.1744
 6602SOL    HW221049   1.015   5.880   2.560  0.0777 -3.6716 -2.7282
 6603SOL     OW21050   1.940   4.122   1.960  0.1930  0.9273  0.2622
 6603SOL    HW121051   1.867   4.115   1.900  0.5110 -0.7488  0.0391
 6603SOL    HW221052   1.976   4.034   1.964  0.5157  1.1328  2.4799
 6604SOL     OW21053   3.903   7.372   2.989 -0.5363  0.1314 -0.5693
 6604SOL    HW121054   3.945   7.286   2.992  0.8125  0.6630 -2.8216
 6604SOL    HW221055   3.958   7.428   3.045  0.3408  0.2126 -1.4879
 6605SOL     OW21056   0.732   3.839   7.698  0.2478 -0.3385  0.0037
 6605SOL    HW121057   0.759   3.749   7.677 -2.6840 -0.9103 -1.6056
 6605SOL    HW221058   0.814   3.885   7.714  1.9533 -2.7999 -1.1827
 6606SOL     OW21059   7.729   1.113   5.729 -0.4324  0.2893 -0.1958
 6606SOL    HW121060   7.734   1.093   5.822  0.4283  3.7978  0.5700
 6606SOL    HW221061   7.655   1.174   5.722  0.8880  1.7730 -1.4598
 6607SOL     OW21062   0.460   6.231   8.111  0.3372 -0.1045  0.7044
 6607SOL    HW121063   0.423   6.204   8.196  0.7974  2.0508  1.6083
 6607SOL    HW221064   0.435   6.322   8.102  0.5028 -0.2581 -1.4042
 6608SOL     OW21065   2.854   6.465   6.331 -0.1810 -0.0136 -0.3397
 6608SOL    HW121066   2.922   6.506   6.277 -0.8317  0.0009 -1.1679
 6608SOL    HW221067   2.774   6.511   6.307 -0.5281 -0.1998  0.4451
 6609SOL     OW21068   1.206   0.922   4.727  0.2772 -0.1940 -0.6401
 6609SOL    HW121069   1.198   0.827   4.716  2.7714 -0.5734  0.4396
 6609SOL    HW221070   1.120   0.956   4.705 -1.8161 -3.0265  2.7562
 6610SOL     OW21071   5.240   5.129   6.350  0.0161 -0.0997 -0.2426
 6610SOL    HW121072   5.155   5.120   6.391  0.3851  0.8674  0.7605
 6610SOL    HW221073   5.253   5.223   6.341  1.9879 -0.1050  1.8294
 6611SOL     OW21074   0.675   7.686   4.820 -0.2922 -0.2160 -0.3330
 6611SOL    HW121075   0.628   7.763   4.852  0.3850 -0.4693  1.3325
 6611SOL    HW221076   0.760   7.719   4.792 -0.5001 -0.1510 -0.8835
 6612SOL     OW21077   7.558   3.048   3.791  0.2189 -0.3994  0.3147
 6612SOL    HW121078   7.475   3.056   3.744 -0.1502  0.5290  1.0876
 6612SOL    HW221079   7.533   3.053   3.884  1.2766  1.4865  0.5353
 6613SOL     OW21080   2.474   6.605   1.358  0.3246 -0.0656 -0.9311
 6613SOL    HW121081   2.415   6.620   1.284 -2.2884 -1.6114  0.7449
 6613SOL    HW221082   2.495   6.511   1.353 -0.7145 -0.4084  0.8647
 6614SOL     OW21083   5.008   7.407   7.124 -0.6460  0.1805 -0.3871
 6614SOL    HW121084   5.039   7.416   7.214 -1.2971 -0.9089 -0.0554
 6614SOL    HW221085   4.918   7.439   7.126 -1.4319 -1.9731 -0.1588
 6615SOL     OW21086   4.786   4.199   4.496  0.4284 -0.1182 -0.1191
 6615SOL    HW121087   4.713   4.139   4.513 -0.4805  0.5562 -1.5376
 6615SOL    HW221088   4.830   4.162   4.419  1.2985 -0.2487  0.4329
 6616SOL     OW21089   3.408   5.114   2.412 -0.1320  0.1584  0.1773
 6616SOL    HW121090   3.422   5.108   2.507  0.5458  0.3858  0.1002
 6616SOL    HW221091   3.357   5.195   2.401  0.8631  0.8141  0.2561
 6617SOL     OW21092   7.308   1.454   7.656 -0.2889 -0.2896  0.4774
 6617SOL    HW121093   7.341   1.536   7.693 -0.1082 -0.3975  0.5560
 6617SOL    HW221094   7.253   1.481   7.582  2.5002 -0.2287 -1.6329
 6618SOL     OW21095   3.509   4.121   5.328 -0.4342 -0.0842  0.3807
 6618SOL    HW121096   3.547   4.107   5.242 -1.4109  2.2531 -0.4592
 6618SOL    HW221097   3.563   4.190   5.367  0.1001 -1.2286  1.7175
 6619SOL     OW21098   3.275   2.233   0.694  0.4525  0.4266  0.0957
 6619SOL    HW121099   3.318   2.280   0.766  0.7152 -0.3598  0.4520
 6619SOL    HW221100   3.322   2.150   0.688 -1.0443 -0.4655  0.5320
 6620SOL     OW21101   4.942   7.308   6.533  0.4790 -0.0194 -0.0954
 6620SOL    HW121102   4.858   7.349   6.517  0.7398 -0.0729 -1.7148
 6620SOL    HW221103   4.994   7.374   6.578 -1.1870 -0.7977  3.0847
 6621SOL     OW21104   2.001   6.136   6.262 -0.0494 -0.3470  0.1135
 6621SOL    HW121105   2.006   6.143   6.167 -0.4288 -1.6966 -0.0138
 6621SOL    HW221106   1.942   6.206   6.289  0.9731  0.7774 -0.5292
 6622SOL     OW21107   1.333   3.850   2.405 -0.3173  0.3131  0.3194
 6622SOL    HW121108   1.286   3.931   2.426 -0.6583 -0.4085  2.4595
 6622SOL    HW221109   1.275   3.804   2.345 -0.7067  1.0786  0.1012
 6623SOL     OW21110   7.441   0.149   7.922  0.2480 -0.0436  0.0219
 6623SOL    HW121111   7.350   0.178   7.913 -0.8363 -3.1293  0.5820
 6623SOL    HW221112   7.439   0.087   7.995  2.1774 -2.5947 -2.0224
 6624SOL     OW21113   2.136   4.653   2.493  0.0009  0.1846  0.0070
 6624SOL    HW121114   2.080   4.726   2.519 -1.3151 -0.2018 -1.6268
 6624SOL    HW221115   2.117   4.583   2.555 -1.7629 -0.1215 -0.8557
 6625SOL     OW21116   2.152   1.173   0.009  0.7200 -0.3552 -0.3651
 6625SOL    HW121117   2.071   1.214  -0.023  0.7647  0.2154  0.2487
 6625SOL    HW221118   2.170   1.105  -0.055 -0.3167 -0.5666 -0.4528
 6626SOL     OW21119   5.950   1.911   5.095 -0.0896  0.0325 -0.0245
 6626SOL    HW121120   5.999   1.989   5.122 -1.4788  1.0780 -0.4737
 6626SOL    HW221121   5.866   1.919   5.140 -0.8170 -0.3953 -1.2767
 6627SOL     OW21122   4.572   4.645   6.380 -0.5286 -0.8500 -0.1851
 6627SOL    HW121123   4.499   4.617   6.435 -0.1886 -0.4206  0.5011
 6627SOL    HW221124   4.585   4.737   6.404  0.7952 -1.1650  0.3360
 6628SOL     OW21125   2.204   2.803   0.498  0.0374 -0.4304 -0.0734
 6628SOL    HW121126   2.171   2.731   0.552 -0.4135 -0.9934 -1.0917
 6628SOL    HW221127   2.126   2.841   0.458  0.5157 -1.2572 -1.8501
 6629SOL     OW21128   0.300   0.850   3.060  0.7211  0.0827 -0.2762
 6629SOL    HW121129   0.392   0.826   3.070  1.2172  1.0341 -2.1295
 6629SOL    HW221130   0.272   0.803   2.981  0.4999  2.0754 -1.4397
 6630SOL     OW21131   5.178   2.302   4.300 -0.3610 -0.2724  0.8280
 6630SOL    HW121132   5.153   2.212   4.321 -2.2692  0.2377  0.8497
 6630SOL    HW221133   5.119   2.327   4.229 -0.6263  1.3162  1.5765
 6631SOL     OW21134   3.507   2.936   8.100  0.0618 -0.1121  0.1506
 6631SOL    HW121135   3.579   2.873   8.099  1.0065  0.9091  1.6636
 6631SOL    HW221136   3.526   2.997   8.030  1.2115  0.7191  1.1625
 6632SOL     OW21137   6.373   3.827   7.962 -0.0027 -0.6599  0.0222
 6632SOL    HW121138   6.289   3.781   7.955  0.0788 -0.8081  0.0103
 6632SOL    HW221139   6.426   3.789   7.891 -0.6241  0.9143 -1.3193
 6633SOL     OW21140   2.281   8.201   0.294 -0.1534  0.5330  0.3456
 6633SOL    HW121141   2.316   8.258   0.225 -2.3241  1.5709  0.0462
 6633SOL    HW221142   2.216   8.147   0.249  1.7930 -2.1523  0.6503
 6634SOL     OW21143   2.370   4.458   0.051 -0.0438 -0.4135 -0.2881
 6634SOL    HW121144   2.405   4.463   0.140  0.7457  0.6585 -0.6530
 6634SOL    HW221145   2.404   4.536   0.007 -2.1845  0.2402 -0.8953
 6635SOL     OW21146   3.629   1.330   1.718 -0.0295  0.0245  0.0841
 6635SOL    HW121147   3.623   1.292   1.806 -0.1503  0.2543  0.1782
 6635SOL    HW221148   3.703   1.391   1.724  0.9949 -1.1600 -0.4381
 6636SOL     OW21149   6.668   5.552   6.735  0.0789  0.0734 -0.6542
 6636SOL    HW121150   6.710   5.575   6.817  0.5477  0.7870 -1.0863
 6636SOL    HW221151   6.694   5.621   6.674 -0.3198 -0.4042 -1.3821
 6637SOL     OW21152   3.663   3.828   8.110  0.0439  0.0505 -0.3854
 6637SOL    HW121153   3.750   3.832   8.149 -1.0881  1.3945  2.1385
 6637SOL    HW221154   3.674   3.867   8.023  1.9177  0.4112 -0.0068
 6638SOL     OW21155   0.733   1.488   1.656 -0.0600 -0.4215 -0.2806
 6638SOL    HW121156   0.808   1.505   1.713 -0.9688 -0.5925  0.9627
 6638SOL    HW221157   0.708   1.398   1.674 -1.1460 -0.0775 -0.0186
 6639SOL     OW21158   0.281   6.339   3.460 -0.1557  0.7224  0.4151
 6639SOL    HW121159   0.270   6.337   3.555  1.0848 -0.7313  0.5494
 6639SOL    HW221160   0.329   6.258   3.440 -1.3869  0.4573 -1.5750
 6640SOL     OW21161   4.487   6.421   7.802  0.1725 -0.7868  0.5767
 6640SOL    HW121162   4.485   6.434   7.897 -0.5038 -0.1692  0.4881
 6640SOL    HW221163   4.402   6.384   7.781 -1.2009  2.6426 -0.2439
 6641SOL     OW21164   0.197   5.677   4.202 -0.0710 -0.1718 -0.0448
 6641SOL    HW121165   0.106   5.647   4.212  0.7534 -3.0452 -0.5995
 6641SOL    HW221166   0.233   5.676   4.290 -0.3466  0.2468  0.0751
 6642SOL     OW21167   1.545   6.407   5.148  0.0218 -0.4523 -0.0447
 6642SOL    HW121168   1.544   6.454   5.065  0.4808  3.2544  1.9641
 6642SOL    HW221169   1.462   6.432   5.190 -0.6727 -3.0874  0.2319
 6643SOL     OW21170   4.800   1.706   3.512  0.6576 -0.5283  0.3117
 6643SOL    HW121171   4.717   1.688   3.469  1.3730  0.8804 -1.7302
 6643SOL    HW221172   4.828   1.621   3.547 -0.7109 -1.3786 -0.6360
 6644SOL     OW21173   5.950   1.794   2.078 -0.4126 -0.0215 -0.1802
 6644SOL    HW121174   6.035   1.750   2.075  0.3656  1.4693 -0.2057
 6644SOL    HW221175   5.930   1.801   2.172 -0.4561 -0.2467 -0.1709
 6645SOL     OW21176   6.649   6.144   4.753  0.4191 -0.2465 -0.1076
 6645SOL    HW121177   6.702   6.217   4.720  0.0140  0.4794  0.8302
 6645SOL    HW221178   6.713   6.085   4.793  0.6373  0.1538  0.1465
 6646SOL     OW21179   3.973   0.318   2.716 -0.3363 -0.4363 -0.1377
 6646SOL    HW121180   3.954   0.399   2.764  0.9470 -0.7440  0.9226
 6646SOL    HW221181   3.958   0.341   2.624 -1.0390  0.6882  0.2423
 6647SOL     OW21182   6.326   4.528   6.087 -0.2356  0.6691  0.0306
 6647SOL    HW121183   6.350   4.555   5.999 -0.6074  3.0713  0.6174
 6647SOL    HW221184   6.250   4.471   6.075 -0.1138  0.7636 -1.2112
 6648SOL     OW21185   4.321   4.578   4.904  1.0091 -0.1660  0.1871
 6648SOL    HW121186   4.382   4.648   4.929  0.5271  0.2168  0.2896
 6648SOL    HW221187   4.267   4.616   4.835 -0.7203  0.3139  1.7595
 6649SOL     OW21188   6.473   5.229   6.325  0.0668 -0.1649  0.1105
 6649SOL    HW121189   6.529   5.305   6.339 -0.6809 -0.0043  2.5460
 6649SOL    HW221190   6.385   5.266   6.318  0.0023 -0.5981 -1.4101
 6650SOL     OW21191   0.341   4.924   6.305 -0.4246 -0.2455 -0.0458
 6650SOL    HW121192   0.287   5.003   6.309  0.1880  0.2514 -1.3951
 6650SOL    HW221193   0.368   4.909   6.396 -1.7534  0.2347  0.4465
 6651SOL     OW21194   6.764   4.786   2.231  0.1615  0.3473  0.1520
 6651SOL    HW121195   6.670   4.769   2.244  0.8247 -1.1409  3.6660
 6651SOL    HW221196   6.783   4.750   2.145 -2.4719  0.6583 -0.6264
 6652SOL     OW21197   4.965   5.950   3.940  0.1415 -0.2315  0.5228
 6652SOL    HW121198   5.002   5.863   3.921  2.9442  0.4725  2.4048
 6652SOL    HW221199   4.931   5.981   3.856  2.3844 -1.6501 -0.9522
 6653SOL     OW21200   6.828   5.039   2.315  0.5233 -0.0293  0.1105
 6653SOL    HW121201   6.785   4.956   2.297  1.7926 -0.7956  0.5289
 6653SOL    HW221202   6.900   5.017   2.374 -0.1116  1.6078  1.5366
 6654SOL     OW21203   4.442   0.829   2.396 -0.0663 -0.2646  0.6157
 6654SOL    HW121204   4.509   0.819   2.329  1.4735  0.2667  2.0389
 6654SOL    HW221205   4.382   0.894   2.360 -1.1944 -2.5009 -1.6935
 6655SOL     OW21206   1.247   1.238   3.100  0.5755  0.1155 -0.4309
 6655SOL    HW121207   1.153   1.225   3.088 -0.0185  2.1820  1.5233
 6655SOL    HW221208   1.255   1.272   3.189  2.9017  2.3999 -1.4330
 6656SOL     OW21209   7.796   8.247   1.712  0.4654  0.0137 -0.0695
 6656SOL    HW121210   7.802   8.317   1.646  0.6276 -0.5058 -0.6152
 6656SOL    HW221211   7.764   8.291   1.791  0.6478  0.7179 -0.3836
 6657SOL     OW21212   7.449   1.687   3.978  0.6221 -1.1443 -0.0866
 6657SOL    HW121213   7.541   1.713   3.974  0.5400 -0.8782 -0.2169
 6657SOL    HW221214   7.404   1.763   4.016  0.4087 -1.1584 -0.3133
 6658SOL     OW21215   6.206   3.142   2.485 -0.7507 -0.1556 -0.0325
 6658SOL    HW121216   6.164   3.226   2.504 -0.3179 -0.0160  0.3123
 6658SOL    HW221217   6.134   3.085   2.458 -1.2687 -0.1086  1.1915
 6659SOL     OW21218   2.317   6.794   8.068  0.6568 -0.4574 -0.2842
 6659SOL    HW121219   2.408   6.777   8.092  0.9031 -0.7822 -1.3843
 6659SOL    HW221220   2.281   6.707   8.049  0.1140 -0.3326  0.1785
 6660SOL     OW21221   7.804   5.313   3.842  0.8141  1.2184  0.3968
 6660SOL    HW121222   7.771   5.399   3.817 -2.0058  0.7115  2.1273
 6660SOL    HW221223   7.883   5.331   3.894  1.9742  2.5703 -1.7619
 6661SOL     OW21224   5.613   3.279   3.858  0.2999  0.1102 -0.2503
 6661SOL    HW121225   5.652   3.367   3.863  1.5733 -0.2362 -3.1024
 6661SOL    HW221226   5.573   3.276   3.771  1.3072 -2.5424 -0.6559
 6662SOL     OW21227   5.104   0.695   6.945  0.2727 -0.0832 -0.2021
 6662SOL    HW121228   5.174   0.634   6.923  1.4532  1.4159 -0.6666
 6662SOL    HW221229   5.031   0.668   6.890  0.7234 -1.1774 -0.2812
 6663SOL     OW21230   2.486   2.782   2.912 -0.0179  0.0229 -0.1110
 6663SOL    HW121231   2.476   2.814   2.822 -0.0816 -0.2118 -0.1881
 6663SOL    HW221232   2.567   2.730   2.910  0.0528  0.1272 -0.0008
 6664SOL     OW21233   5.078   6.642   3.655  0.0916  0.1719  0.2013
 6664SOL    HW121234   5.022   6.701   3.706 -0.8767 -1.1941  0.7443
 6664SOL    HW221235   5.105   6.574   3.718  1.8828  0.4839 -0.1974
 6665SOL     OW21236   0.446   3.214   4.398  0.3648 -0.4470 -0.2311
 6665SOL    HW121237   0.525   3.247   4.442 -0.0985  0.9642 -0.4280
 6665SOL    HW221238   0.433   3.127   4.435  0.9565  0.0496  1.1923
 6666SOL     OW21239   0.655   0.212   4.041  0.6623  0.3271 -0.4343
 6666SOL    HW121240   0.582   0.153   4.021 -0.1015  1.4706 -1.0133
 6666SOL    HW221241   0.637   0.243   4.130  1.0075 -0.2067 -0.1715
 6667SOL     OW21242   0.546   0.742   6.402 -0.1406 -0.0467  0.0665
 6667SOL    HW121243   0.501   0.794   6.468  0.6939  0.3745  0.3075
 6667SOL    HW221244   0.478   0.721   6.338 -0.2919  2.1369 -0.5271
 6668SOL     OW21245   0.728   1.815   3.616  0.2332  0.1188  0.0692
 6668SOL    HW121246   0.658   1.864   3.659 -2.0750 -1.6773 -1.5011
 6668SOL    HW221247   0.744   1.862   3.534  1.6321  1.1061  0.8812
 6669SOL     OW21248   6.226   5.294   5.668  0.4070  0.0230 -0.0836
 6669SOL    HW121249   6.270   5.335   5.594  3.2082 -0.7658  1.0837
 6669SOL    HW221250   6.207   5.205   5.639 -1.0372  0.5451 -0.8012
 6670SOL     OW21251   1.847   1.949   8.019 -0.3645 -0.8339 -0.7451
 6670SOL    HW121252   1.940   1.965   8.033 -0.5957 -1.0329  1.1716
 6670SOL    HW221253   1.830   1.866   8.063 -1.3197 -1.1461 -1.6769
 6671SOL     OW21254   7.222   0.351   0.379 -0.1309  0.4171  0.6903
 6671SOL    HW121255   7.198   0.259   0.381 -2.0961  0.8922 -0.3527
 6671SOL    HW221256   7.143   0.398   0.407  0.3216  1.8681 -0.3686
 6672SOL     OW21257   0.340   3.781   3.249 -0.1557 -0.4652 -0.1526
 6672SOL    HW121258   0.325   3.838   3.174 -0.8021 -1.9145 -1.1527
 6672SOL    HW221259   0.337   3.692   3.213  1.9065 -1.1086  1.1810
 6673SOL     OW21260   3.619   1.655   0.893 -0.3483  0.2645  0.2969
 6673SOL    HW121261   3.637   1.602   0.971 -0.8285  0.1292  0.3131
 6673SOL    HW221262   3.540   1.704   0.915 -1.0016 -0.4454 -0.4495
 6674SOL     OW21263   1.622   2.453   7.623  0.2797  0.2329  0.0231
 6674SOL    HW121264   1.685   2.417   7.561  0.3349 -0.2775  0.3743
 6674SOL    HW221265   1.673   2.472   7.702 -0.4023 -2.3552  1.1391
 6675SOL     OW21266   5.142   0.556   8.250 -0.1790  0.0590 -0.3483
 6675SOL    HW121267   5.056   0.568   8.211 -1.6148 -1.6157  2.1113
 6675SOL    HW221268   5.124   0.548   8.344  2.4989 -1.8881  0.0442
 6676SOL     OW21269   6.097   3.441   5.795  0.3838 -0.4653  0.6538
 6676SOL    HW121270   6.154   3.370   5.826  1.8995  0.6980  0.5774
 6676SOL    HW221271   6.085   3.497   5.872  2.7462  1.5019 -0.3586
 6677SOL     OW21272   4.647   6.399   2.346  0.1912  0.3790 -0.8520
 6677SOL    HW121273   4.702   6.456   2.399 -0.7653  2.0314 -1.6081
 6677SOL    HW221274   4.566   6.449   2.333 -1.5217 -2.0064  0.2755
 6678SOL     OW21275   1.720   1.672   6.907  0.4667  0.2648 -0.4491
 6678SOL    HW121276   1.748   1.608   6.841  0.6934 -0.1606  0.0585
 6678SOL    HW221277   1.793   1.733   6.914  1.8866 -1.6190  1.8725
 6679SOL     OW21278   4.716   4.080   0.879 -0.4179 -0.2281 -0.2237
 6679SOL    HW121279   4.760   4.013   0.827  2.4298  1.1708  0.2809
 6679SOL    HW221280   4.711   4.156   0.821 -1.5243 -0.1520 -0.0280
 6680SOL     OW21281   2.492   7.299   7.158  0.4510  0.0735  0.0729
 6680SOL    HW121282   2.513   7.270   7.247  0.0993 -1.2198 -0.2545
 6680SOL    HW221283   2.454   7.222   7.116 -0.8042  1.1086 -0.7352
 6681SOL     OW21284   3.072   1.308   1.547 -0.1759 -0.0065 -1.0869
 6681SOL    HW121285   2.993   1.354   1.574  0.4929  1.2693 -1.2604
 6681SOL    HW221286   3.116   1.286   1.629 -0.2096  0.1881 -1.0157
 6682SOL     OW21287   4.096   2.677   1.757  0.2265 -0.2592 -0.4863
 6682SOL    HW121288   4.170   2.625   1.725 -0.2828 -1.4310  0.1977
 6682SOL    HW221289   4.091   2.656   1.850 -0.7640  0.0554 -0.4660
 6683SOL     OW21290   1.648   7.377   4.209 -0.0596 -0.0067  0.1297
 6683SOL    HW121291   1.559   7.379   4.173 -0.9507  0.9502  2.2795
 6683SOL    HW221292   1.654   7.456   4.262  1.6937 -0.6411  0.9198
 6684SOL     OW21293   5.830   0.881   3.456 -0.1782 -0.0835 -0.0294
 6684SOL    HW121294   5.793   0.953   3.404  0.2401  1.2465  1.4719
 6684SOL    HW221295   5.922   0.903   3.464 -0.0165 -0.8814  0.3053
 6685SOL     OW21296   5.086   3.995   0.097 -0.0670  0.4786 -0.0237
 6685SOL    HW121297   5.138   4.021   0.020 -0.9696 -1.6597 -1.4063
 6685SOL    HW221298   4.996   3.991   0.064 -0.1866 -2.5764  0.5667
 6686SOL     OW21299   0.707   6.456   5.132  0.3808  0.4221 -0.2266
 6686SOL    HW121300   0.742   6.449   5.221  1.7861 -0.5778 -0.8422
 6686SOL    HW221301   0.715   6.367   5.096 -0.0105  0.8589 -1.4189
 6687SOL     OW21302   4.080   1.287   2.517  0.2598  0.1052 -0.4863
 6687SOL    HW121303   4.076   1.197   2.548 -3.1122  0.7697  1.2497
 6687SOL    HW221304   3.995   1.302   2.475  1.3388  2.0158 -2.0669
 6688SOL     OW21305   7.497   5.736   2.559 -0.5841 -0.0610 -0.6183
 6688SOL    HW121306   7.524   5.748   2.468  1.6247 -0.6106 -0.0688
 6688SOL    HW221307   7.442   5.811   2.578  1.5667  1.7856 -1.4598
 6689SOL     OW21308   0.302   7.535   0.102 -0.7471 -0.3892 -0.4101
 6689SOL    HW121309   0.382   7.580   0.127 -0.3155 -0.6662 -1.2758
 6689SOL    HW221310   0.235   7.604   0.099 -0.3627 -0.0178 -0.4947
 6690SOL     OW21311   3.862   6.023   6.952  0.1731 -0.4744  0.3513
 6690SOL    HW121312   3.786   6.029   7.010 -0.3524 -0.8714 -0.3013
 6690SOL    HW221313   3.937   6.040   7.010 -0.4463  0.5555  0.8766
 6691SOL     OW21314   1.847   1.111   7.083  0.0783  0.2288 -0.5193
 6691SOL    HW121315   1.859   1.177   7.015  0.2416 -0.7153 -1.4330
 6691SOL    HW221316   1.823   1.031   7.034 -0.1496 -0.3685  0.5578
 6692SOL     OW21317   0.326   4.498   1.523  0.0910  0.2350 -0.2962
 6692SOL    HW121318   0.239   4.494   1.563  0.8408 -1.4475  1.2552
 6692SOL    HW221319   0.386   4.510   1.597  1.3013 -0.2510 -1.1871
 6693SOL     OW21320   1.777   8.151   7.987 -0.2503  0.1632  0.4054
 6693SOL    HW121321   1.710   8.215   7.965 -0.6002 -0.2294  0.3416
 6693SOL    HW221322   1.753   8.120   8.074 -0.8449 -0.8857 -0.1283
 6694SOL     OW21323   5.848   8.129   3.692  0.0458 -0.0245  0.2656
 6694SOL    HW121324   5.762   8.096   3.719 -0.4045  0.3528 -0.6664
 6694SOL    HW221325   5.906   8.054   3.700 -0.3473 -0.2491  1.0244
 6695SOL     OW21326   0.467   3.613   7.167 -0.1202 -0.1070 -0.4200
 6695SOL    HW121327   0.384   3.589   7.209  0.1743  0.7569  0.6924
 6695SOL    HW221328   0.500   3.531   7.130 -0.0825 -1.0377  1.5994
 6696SOL     OW21329   7.404   7.491   5.837 -0.3106 -0.2668  0.0471
 6696SOL    HW121330   7.326   7.486   5.782  0.8380  0.2360 -1.6615
 6696SOL    HW221331   7.436   7.401   5.843  0.1297 -0.1837 -0.9615
 6697SOL     OW21332   0.224   5.509   4.967  0.1630 -0.4598 -0.2811
 6697SOL    HW121333   0.223   5.581   4.905  0.7811  0.6301  0.9359
 6697SOL    HW221334   0.145   5.521   5.019  1.5736  0.9157  1.6328
 6698SOL     OW21335   5.331   7.506   5.882 -0.1678 -0.2089  0.3870
 6698SOL    HW121336   5.406   7.553   5.918  1.1188 -1.2541 -0.8492
 6698SOL    HW221337   5.257   7.535   5.934  1.0395  1.1165  1.4071
 6699SOL     OW21338   0.570   6.993   2.407  0.1094 -0.0362  0.3233
 6699SOL    HW121339   0.476   6.983   2.390  0.0198  1.2917 -0.0006
 6699SOL    HW221340   0.608   7.012   2.322  0.9639 -2.5134  0.1306
 6700SOL     OW21341   4.602   6.443   5.015  0.1634  0.8651  0.6697
 6700SOL    HW121342   4.656   6.368   5.040 -0.9238 -0.8688 -1.9232
 6700SOL    HW221343   4.660   6.499   4.964  0.2994  0.4078  0.3127
 6701SOL     OW21344   6.040   1.269   4.489 -0.0368 -0.1660  0.1486
 6701SOL    HW121345   5.995   1.186   4.474 -3.3144  1.2291  1.8266
 6701SOL    HW221346   6.049   1.308   4.402  0.1583 -1.5623 -0.4692
 6702SOL     OW21347   1.898   6.930   5.730  0.1599  0.0202 -0.0276
 6702SOL    HW121348   1.883   7.010   5.780  0.8467 -0.3977  0.8437
 6702SOL    HW221349   1.851   6.945   5.648 -0.4634  0.9516  0.4874
 6703SOL     OW21350   7.696   4.880   0.084  0.0233 -0.4779 -0.7815
 6703SOL    HW121351   7.662   4.843   0.003 -0.3412 -0.0201 -0.8386
 6703SOL    HW221352   7.714   4.804   0.140 -2.7553 -0.6539 -0.0812
 6704SOL     OW21353   1.018   6.721   4.465  0.1577 -0.2726 -0.5506
 6704SOL    HW121354   1.095   6.713   4.408 -0.2806  1.6183 -1.4685
 6704SOL    HW221355   1.016   6.640   4.515  1.4846 -1.2942 -2.1001
 6705SOL     OW21356   5.176   6.574   4.415  0.1425  0.4564 -0.2970
 6705SOL    HW121357   5.271   6.578   4.424 -0.1172  3.6563  1.6397
 6705SOL    HW221358   5.152   6.655   4.371 -1.5872 -1.1642 -2.4767
 6706SOL     OW21359   5.504   4.958   3.183 -0.0280 -0.4444  0.0147
 6706SOL    HW121360   5.493   4.944   3.277 -0.9086 -0.4482 -0.0826
 6706SOL    HW221361   5.492   4.871   3.144  0.1670 -0.4149 -0.1089
 6707SOL     OW21362   0.342   0.885   1.090  0.3513  0.6365  0.6204
 6707SOL    HW121363   0.281   0.811   1.099  1.6352 -0.4177  0.8072
 6707SOL    HW221364   0.295   0.948   1.035  0.2414 -1.4944 -1.8570
 6708SOL     OW21365   5.056   1.588   4.880 -0.1939  0.0751 -0.0943
 6708SOL    HW121366   5.117   1.520   4.853  1.4389  1.5086 -0.1201
 6708SOL    HW221367   5.008   1.611   4.800  0.4257  0.1260 -0.4503
 6709SOL     OW21368   6.907   1.441   7.933 -0.3853  0.3483 -0.1416
 6709SOL    HW121369   6.937   1.527   7.903 -0.0620  0.5819  0.8229
 6709SOL    HW221370   6.967   1.419   8.005 -0.1550 -0.9052 -0.7012
 6710SOL     OW21371   5.587   1.800   4.372  0.1044  0.1341 -0.0300
 6710SOL    HW121372   5.508   1.751   4.352  0.4099 -0.6782  0.7369
 6710SOL    HW221373   5.629   1.814   4.287 -1.3485  1.4197 -0.5506
 6711SOL     OW21374   3.957   6.281   0.434 -0.0314 -0.6861 -0.3495
 6711SOL    HW121375   3.907   6.359   0.455 -0.1209 -0.5859 -0.9188
 6711SOL    HW221376   3.911   6.242   0.359  1.3640  0.0138 -1.5924
 6712SOL     OW21377   3.980   2.142   8.095 -0.4116  0.0796  0.0055
 6712SOL    HW121378   4.009   2.077   8.159 -0.2030  0.1013 -0.0703
 6712SOL    HW221379   3.984   2.097   8.011  1.1503  0.6480 -0.2358
 6713SOL     OW21380   7.134   6.556   5.037  0.0541 -0.0565  0.0535
 6713SOL    HW121381   7.125   6.516   4.950 -1.2522  0.3924 -0.0387
 6713SOL    HW221382   7.070   6.628   5.036  1.3187  1.0889  0.7407
 6714SOL     OW21383   3.476   0.183   5.309 -0.0234 -0.2498  0.3830
 6714SOL    HW121384   3.410   0.253   5.305  1.9450  1.6009 -0.5320
 6714SOL    HW221385   3.492   0.171   5.403  0.7183  1.5897  0.5009
 6715SOL     OW21386   0.820   7.857   3.659 -0.5853  0.4136 -0.9108
 6715SOL    HW121387   0.782   7.775   3.690  0.7050  0.0330 -0.3173
 6715SOL    HW221388   0.757   7.924   3.686 -0.7455 -0.1828  0.2218
 6716SOL     OW21389   1.543   6.124   0.948  0.5987  0.1978 -0.6584
 6716SOL    HW121390   1.540   6.220   0.943 -0.7603  0.4153  3.0760
 6716SOL    HW221391   1.611   6.105   1.012 -0.0335 -1.2685 -0.3930
 6717SOL     OW21392   7.199   7.555   7.724  0.3690 -0.0611 -0.3020
 6717SOL    HW121393   7.266   7.598   7.671  0.7238  0.1436  0.3134
 6717SOL    HW221394   7.190   7.610   7.802  0.4876 -0.8334  0.2724
 6718SOL     OW21395   0.116   6.144   5.958  0.4673  0.6082 -0.0993
 6718SOL    HW121396   0.123   6.210   5.889 -0.8786  0.6653 -0.1968
 6718SOL    HW221397   0.163   6.181   6.033  0.4002  1.3242 -0.4107
 6719SOL     OW21398   5.981   2.686   2.521  0.1849 -0.4002 -0.5266
 6719SOL    HW121399   5.945   2.682   2.432  2.0536 -0.4719 -1.3033
 6719SOL    HW221400   5.910   2.723   2.574 -1.1774 -0.9575 -1.9171
 6720SOL     OW21401   2.861   6.256   4.823 -1.0026  0.2740 -0.0445
 6720SOL    HW121402   2.925   6.269   4.753 -1.2589  0.3580 -0.2664
 6720SOL    HW221403   2.896   6.305   4.897 -1.8360  2.0707 -0.7929
 6721SOL     OW21404   3.321   7.806   6.896 -0.1947 -0.1829  0.2052
 6721SOL    HW121405   3.246   7.785   6.952  0.2906  0.3447  1.0542
 6721SOL    HW221406   3.388   7.839   6.956  0.5107 -0.0912 -0.6226
 6722SOL     OW21407   1.073   4.665   2.713 -0.1729  0.2046  0.2434
 6722SOL    HW121408   1.117   4.608   2.776  0.7790  2.4844  1.7095
 6722SOL    HW221409   1.076   4.752   2.753 -1.9217  1.2328 -1.7560
 6723SOL     OW21410   1.255   8.275   4.280  0.1888  0.2669  0.2357
 6723SOL    HW121411   1.206   8.225   4.215  0.2226  0.1398  0.3075
 6723SOL    HW221412   1.325   8.316   4.230  1.4265 -1.4416  0.5025
 6724SOL     OW21413   7.193   0.524   3.354 -0.1003 -0.5601 -0.2722
 6724SOL    HW121414   7.234   0.442   3.326  0.6629 -0.4181  0.4305
 6724SOL    HW221415   7.099   0.510   3.338  0.1423 -1.1184 -1.2762
 6725SOL     OW21416   8.279   2.699   5.912  0.0463  0.5035 -0.6122
 6725SOL    HW121417   8.306   2.702   6.004  1.1490  2.3597 -0.9749
 6725SOL    HW221418   8.233   2.782   5.898 -0.6722 -0.0423 -1.5931
 6726SOL     OW21419   2.845   6.194   6.341  0.3860  0.1155 -0.3634
 6726SOL    HW121420   2.836   6.289   6.345  2.5001  0.2985  0.7419
 6726SOL    HW221421   2.829   6.172   6.250 -1.9144  1.3089 -0.2942
 6727SOL     OW21422   3.617   5.751   3.761  0.3065 -0.4968 -1.0220
 6727SOL    HW121423   3.562   5.693   3.814 -0.3334  1.1245  0.1275
 6727SOL    HW221424   3.571   5.758   3.677 -0.4900 -0.2923 -0.5683
 6728SOL     OW21425   4.882   0.181   4.700 -0.3975  0.0675 -0.2357
 6728SOL    HW121426   4.848   0.121   4.766 -0.9207 -0.2876 -0.8243
 6728SOL    HW221427   4.879   0.267   4.742  0.9102 -0.3784  0.8232
 6729SOL     OW21428   5.885   5.235   5.988  0.4101  0.1006 -0.0201
 6729SOL    HW121429   5.917   5.298   5.923 -0.8383 -1.2520 -1.9838
 6729SOL    HW221430   5.892   5.282   6.072  0.3883  2.5080 -1.3251
 6730SOL     OW21431   7.826   4.179   0.203  0.4175  0.6815 -0.4546
 6730SOL    HW121432   7.846   4.258   0.253  0.6980  1.5292 -1.8792
 6730SOL    HW221433   7.738   4.194   0.169  0.1738  0.0484 -0.1188
 6731SOL     OW21434   2.174   5.403   3.924 -0.2836 -0.2786 -0.0664
 6731SOL    HW121435   2.192   5.493   3.898 -0.9982  0.4283  1.8041
 6731SOL    HW221436   2.082   5.390   3.903 -0.1970 -0.5607 -0.2781
 6732SOL     OW21437   2.433   5.769   5.183 -0.4683  0.4975  0.1874
 6732SOL    HW121438   2.497   5.699   5.175  1.7136  2.4235  0.1056
 6732SOL    HW221439   2.348   5.726   5.176  0.8408 -1.8766 -1.8750
 6733SOL     OW21440   5.666   3.597   6.540 -0.1564  0.1161  0.2029
 6733SOL    HW121441   5.675   3.624   6.631  1.6182  1.0480 -0.2110
 6733SOL    HW221442   5.621   3.513   6.543 -1.8871  1.0674  1.8118
 6734SOL     OW21443   7.663   7.877   0.395 -0.1693 -0.6825 -0.2761
 6734SOL    HW121444   7.686   7.786   0.376 -0.0032 -0.3452 -1.6885
 6734SOL    HW221445   7.747   7.920   0.411 -0.4296 -1.5353  3.9599
 6735SOL     OW21446   3.171   7.378   5.696 -0.1909  0.8106 -0.1548
 6735SOL    HW121447   3.245   7.432   5.669  0.4386  0.3093  0.5457
 6735SOL    HW221448   3.166   7.310   5.629  1.9283 -0.9528  1.3959
 6736SOL     OW21449   7.310   5.874   4.460 -0.0855  0.3982 -0.2133
 6736SOL    HW121450   7.359   5.818   4.399 -0.8751 -3.3057  2.4195
 6736SOL    HW221451   7.375   5.904   4.523 -0.2042  0.1734  0.0115
 6737SOL     OW21452   5.149   6.815   4.303  0.5629  0.5071 -0.1153
 6737SOL    HW121453   5.131   6.780   4.216  0.1515 -0.1464  0.2332
 6737SOL    HW221454   5.197   6.897   4.286 -1.3946  1.5067 -1.0008
 6738SOL     OW21455   1.372   0.447   7.048  0.2114 -0.0257 -0.0447
 6738SOL    HW121456   1.421   0.499   6.984 -0.7497  1.7094  0.6024
 6738SOL    HW221457   1.309   0.398   6.996 -0.8929  1.7490 -0.4107
 6739SOL     OW21458   2.738   5.444   6.599 -0.1062  0.5179  0.2474
 6739SOL    HW121459   2.831   5.457   6.582 -0.2189 -0.2673 -0.9764
 6739SOL    HW221460   2.727   5.470   6.691  1.4254  0.0560  0.5749
 6740SOL     OW21461   0.143   6.023   4.227  0.6617 -0.1220 -0.0816
 6740SOL    HW121462   0.233   5.991   4.214  0.8390  0.8747 -1.4878
 6740SOL    HW221463   0.146   6.114   4.198 -0.7328  0.0145  0.1840
 6741SOL     OW21464   6.299   3.034   5.647  0.9003 -0.1381  0.0157
 6741SOL    HW121465   6.342   2.949   5.644 -0.3206 -0.9344  3.0517
 6741SOL    HW221466   6.206   3.015   5.633  0.8260  0.8902 -0.9302
 6742SOL     OW21467   0.568   4.160   1.546 -0.4805  0.4534 -0.1166
 6742SOL    HW121468   0.476   4.179   1.567 -0.0832  1.1362  1.0380
 6742SOL    HW221469   0.600   4.111   1.622 -0.1524 -0.6421 -0.9477
 6743SOL     OW21470   5.957   1.985   2.801 -0.6380 -0.0232 -0.1128
 6743SOL    HW121471   6.052   1.983   2.807 -0.6137 -2.0521 -0.9696
 6743SOL    HW221472   5.931   2.051   2.865  1.4620  2.4984 -1.7638
 6744SOL     OW21473   5.698   7.141   0.065  0.6036  0.7386  0.4751
 6744SOL    HW121474   5.700   7.203  -0.008  0.4773  0.8443  0.5623
 6744SOL    HW221475   5.784   7.149   0.106  0.3239  1.3915  0.9362
 6745SOL     OW21476   4.658   6.127   8.007 -0.0052 -0.1268 -0.1440
 6745SOL    HW121477   4.567   6.133   7.977 -0.6079 -0.3728  1.5278
 6745SOL    HW221478   4.709   6.171   7.939 -1.3541 -0.1744 -1.2097
 6746SOL     OW21479   1.530   3.399   5.673 -0.2089 -0.0310  0.0157
 6746SOL    HW121480   1.565   3.389   5.762  1.9269 -1.4265 -0.9203
 6746SOL    HW221481   1.492   3.486   5.672 -2.1440 -0.7535  2.8978
 6747SOL     OW21482   6.409   5.049   1.090  0.5871  0.5107 -0.2476
 6747SOL    HW121483   6.409   5.036   0.995  0.1928 -1.4299  0.0005
 6747SOL    HW221484   6.445   4.968   1.125  0.7866  1.2488  1.2624
 6748SOL     OW21485   1.702   6.169   7.307  0.0663  0.1299 -0.1336
 6748SOL    HW121486   1.779   6.113   7.297  0.5729  0.9142 -0.7892
 6748SOL    HW221487   1.648   6.150   7.230  0.6597  1.1508 -0.8284
 6749SOL     OW21488   1.452   2.050   4.318 -0.7931  0.9816  0.2386
 6749SOL    HW121489   1.441   2.097   4.401 -0.8533  0.2574  0.6441
 6749SOL    HW221490   1.372   2.071   4.268 -1.6670 -0.1181  1.1342
 6750SOL     OW21491   7.143   2.265   5.832 -0.4755  0.0740  0.3001
 6750SOL    HW121492   7.120   2.352   5.866 -1.0141  0.7048 -1.5949
 6750SOL    HW221493   7.211   2.233   5.891 -0.1398  1.8627  0.9222
 6751SOL     OW21494   1.579   3.124   2.259  0.2529 -0.1540  0.2862
 6751SOL    HW121495   1.512   3.070   2.301 -0.1489  0.4403  0.4180
 6751SOL    HW221496   1.563   3.212   2.293  1.4235 -0.0901  0.7126
 6752SOL     OW21497   2.270   0.161   0.465  0.1418  0.3432 -0.2616
 6752SOL    HW121498   2.274   0.103   0.541 -2.2173  0.6416  0.1397
 6752SOL    HW221499   2.305   0.109   0.393 -1.7529 -1.5488  0.1368
 6753SOL     OW21500   4.367   4.376   1.459  0.6052 -0.2117  0.3861
 6753SOL    HW121501   4.399   4.292   1.426  1.4290 -0.2135  1.1672
 6753SOL    HW221502   4.444   4.433   1.457  0.2755  0.2444  0.7639
 6754SOL     OW21503   0.451   6.275   1.757  0.2425  0.2764  0.4099
 6754SOL    HW121504   0.540   6.248   1.779  0.2364 -1.3144 -1.3729
 6754SOL    HW221505   0.400   6.257   1.836  1.0392 -1.1417  0.6194
 6755SOL     OW21506   3.055   5.323   4.492 -0.6685  0.3524 -0.4234
 6755SOL    HW121507   3.087   5.380   4.422  0.5239 -0.2438 -0.3708
 6755SOL    HW221508   3.003   5.257   4.446  0.8793 -0.5791 -0.8527
 6756SOL     OW21509   2.775   8.196   1.645  0.5913 -0.0833 -0.3466
 6756SOL    HW121510   2.699   8.236   1.687 -0.1116 -0.6574 -1.0694
 6756SOL    HW221511   2.780   8.108   1.684  0.7557 -0.1242 -0.4628
 6757SOL     OW21512   3.318   0.926   4.615  0.0465 -0.1218  0.2922
 6757SOL    HW121513   3.381   0.854   4.613  0.6092  0.3045  1.9220
 6757SOL    HW221514   3.233   0.883   4.627  0.3051 -0.5710  0.5502
 6758SOL     OW21515   2.365   5.532   4.784  0.1802 -0.0408 -0.0861
 6758SOL    HW121516   2.288   5.538   4.842  1.0456  1.5774  0.9373
 6758SOL    HW221517   2.395   5.622   4.775 -0.4128 -0.1652 -3.7846
 6759SOL     OW21518   6.493   2.549   6.106  0.1030 -0.2372 -0.5687
 6759SOL    HW121519   6.556   2.551   6.178 -0.0018 -0.2875 -0.4754
 6759SOL    HW221520   6.544   2.573   6.029 -0.5283  3.3493  0.0548
 6760SOL     OW21521   2.512   4.681   8.264  0.1817 -0.4474  0.3597
 6760SOL    HW121522   2.605   4.670   8.243 -0.1152 -0.2438 -1.1756
 6760SOL    HW221523   2.507   4.763   8.312  0.3506  1.7133 -3.0958
 6761SOL     OW21524   4.958   5.467   2.129  0.5337  0.6373 -0.0230
 6761SOL    HW121525   4.960   5.527   2.054  0.1465  0.4342 -0.1950
 6761SOL    HW221526   4.948   5.380   2.090  0.6906  0.4985  0.2469
 6762SOL     OW21527   3.825   2.341   1.529  0.0828  0.6141 -0.3974
 6762SOL    HW121528   3.736   2.337   1.495  0.3087 -1.2578 -0.8270
 6762SOL    HW221529   3.875   2.385   1.460  0.0300 -0.8328 -1.3625
 6763SOL     OW21530   1.621   4.971   7.637 -0.1449  0.2455 -0.2775
 6763SOL    HW121531   1.592   4.896   7.585  0.9346 -1.6910  1.7990
 6763SOL    HW221532   1.556   4.980   7.706  0.1199  0.7674 -0.0867
 6764SOL     OW21533   1.689   1.882   2.067 -0.0689  0.2233  0.5850
 6764SOL    HW121534   1.726   1.964   2.036 -2.3672  0.4377 -1.8486
 6764SOL    HW221535   1.732   1.815   2.013 -0.4213  0.1292  0.4183
 6765SOL     OW21536   5.259   8.269   3.638 -0.0695  0.1826  0.2715
 6765SOL    HW121537   5.184   8.263   3.578  0.6688  0.6200 -0.6987
 6765SOL    HW221538   5.305   8.348   3.612  1.0070 -0.3400  0.5640
 6766SOL     OW21539   4.495   5.943   4.855  0.1244 -0.0148 -0.0356
 6766SOL    HW121540   4.574   5.938   4.801 -0.8599  1.0514 -1.6327
 6766SOL    HW221541   4.453   6.025   4.829 -0.7196  0.1992  1.9184
 6767SOL     OW21542   7.416   6.133   6.835 -0.1445 -0.2312  0.3209
 6767SOL    HW121543   7.470   6.069   6.882  1.2718 -3.0752 -4.7675
 6767SOL    HW221544   7.474   6.208   6.820  0.1378 -0.3165  0.9994
 6768SOL     OW21545   5.803   0.926   2.615  0.3384 -0.2116  0.4389
 6768SOL    HW121546   5.848   0.994   2.565  1.0849 -0.8635  0.2216
 6768SOL    HW221547   5.761   0.973   2.687 -0.6078  0.7176 -0.6890
 6769SOL     OW21548   2.182   0.113   7.671  0.2359  0.5306  0.0333
 6769SOL    HW121549   2.183   0.189   7.729  2.5868  0.0133  0.7308
 6769SOL    HW221550   2.110   0.059   7.703 -0.6252  1.8295  0.3462
 6770SOL     OW21551   7.750   5.936   6.786 -0.2927 -0.0880 -0.0449
 6770SOL    HW121552   7.765   5.977   6.871 -0.9036  0.8353 -0.3713
 6770SOL    HW221553   7.733   6.009   6.727 -1.0611 -0.7892 -0.7074
 6771SOL     OW21554   3.104   2.734   3.663  0.0303 -0.0701 -0.1327
 6771SOL    HW121555   3.198   2.748   3.669 -0.0330  1.3279 -2.0620
 6771SOL    HW221556   3.091   2.693   3.577 -1.3299  2.0083 -0.9622
 6772SOL     OW21557   0.795   5.664   0.158  0.1109 -0.5705  0.3331
 6772SOL    HW121558   0.887   5.674   0.184  0.4430 -1.3383 -0.5037
 6772SOL    HW221559   0.765   5.753   0.142  0.6310 -0.2919  0.8746
 6773SOL     OW21560   2.240   6.943   7.851  0.2426 -0.0076 -0.2975
 6773SOL    HW121561   2.329   6.943   7.816  0.0884 -0.0493 -0.7001
 6773SOL    HW221562   2.244   6.887   7.928 -0.1086 -2.6506 -2.1145
 6774SOL     OW21563   4.270   0.949   4.062 -0.2003  0.3026  0.4525
 6774SOL    HW121564   4.364   0.934   4.052  0.2812  2.8214  0.7747
 6774SOL    HW221565   4.241   0.881   4.123  1.2638 -0.9360 -0.1980
 6775SOL     OW21566   5.463   8.202   5.033 -0.2009  0.3521 -0.4723
 6775SOL    HW121567   5.416   8.258   5.095  1.0585  1.6882 -0.7035
 6775SOL    HW221568   5.506   8.137   5.087  1.2262  1.7577  0.1145
 6776SOL     OW21569   3.024   2.585   3.061 -0.1713 -0.1047 -0.2350
 6776SOL    HW121570   3.084   2.584   3.136  0.7008  2.3448 -0.8562
 6776SOL    HW221571   3.059   2.517   3.003  0.9946  0.0916  0.2076
 6777SOL     OW21572   2.871   3.309   1.465  0.2070 -0.2446  0.3998
 6777SOL    HW121573   2.950   3.327   1.415 -1.2904 -0.5977 -2.1995
 6777SOL    HW221574   2.831   3.395   1.479  0.1435 -0.2322  0.1458
 6778SOL     OW21575   2.566   6.628   6.895  0.2220 -0.2759 -0.1128
 6778SOL    HW121576   2.551   6.533   6.903  2.0451 -0.5156  0.5274
 6778SOL    HW221577   2.592   6.641   6.804 -0.6227 -0.2933 -0.3650
 6779SOL     OW21578   6.636   0.292   5.945 -0.2560 -0.2464 -0.6954
 6779SOL    HW121579   6.622   0.373   5.896 -2.0163 -1.9124 -3.0192
 6779SOL    HW221580   6.714   0.253   5.904 -0.7410 -0.8164 -1.0857
 6780SOL     OW21581   5.132   7.553   3.453  0.4928 -0.1945  0.1385
 6780SOL    HW121582   5.142   7.644   3.424 -1.1670 -0.2347 -0.6133
 6780SOL    HW221583   5.159   7.553   3.544  1.0523  0.9429 -0.0237
 6781SOL     OW21584   7.407   5.980   4.042  0.1322  0.5148 -0.0871
 6781SOL    HW121585   7.317   6.009   4.058  0.2207  0.6187  0.2154
 6781SOL    HW221586   7.398   5.886   4.022 -0.0059  0.4515  0.2786
 6782SOL     OW21587   6.145   0.336   0.411 -0.0695  0.5006  0.4278
 6782SOL    HW121588   6.176   0.255   0.453  2.0410  2.0262  1.9113
 6782SOL    HW221589   6.203   0.347   0.335  0.7078  1.4320  1.1389
 6783SOL     OW21590   1.866   6.805   4.589 -0.1914 -0.4355  0.3300
 6783SOL    HW121591   1.773   6.827   4.596 -0.0951 -0.3026  1.2698
 6783SOL    HW221592   1.868   6.717   4.552 -0.6894 -0.3401  0.0827
 6784SOL     OW21593   0.045   4.584   7.182 -0.3554 -0.3810  0.2966
 6784SOL    HW121594   0.043   4.511   7.244  0.3179 -0.5770  0.1000
 6784SOL    HW221595  -0.037   4.631   7.197  0.4273  0.4053  2.3483
 6785SOL     OW21596   1.898   3.601   7.315 -0.2816 -0.3202  0.2039
 6785SOL    HW121597   1.903   3.540   7.242  1.5041 -0.3686  0.3492
 6785SOL    HW221598   1.842   3.672   7.282 -3.0284 -2.3304  0.3085
 6786SOL     OW21599   3.320   5.935   4.992  0.1807  0.3164  0.1696
 6786SOL    HW121600   3.243   5.878   4.985 -0.5690  1.3508 -0.1823
 6786SOL    HW221601   3.346   5.950   4.901  0.4470  0.4324  0.2653
 6787SOL     OW21602   2.440   2.041   3.916 -0.2964 -0.4375  0.0880
 6787SOL    HW121603   2.435   1.947   3.897  0.5814 -0.4567 -0.0569
 6787SOL    HW221604   2.469   2.080   3.833  1.2027 -0.2537  0.6896
 6788SOL     OW21605   3.815   3.915   5.207 -0.0004 -0.9796 -0.2549
 6788SOL    HW121606   3.809   4.002   5.245 -0.4379 -1.0563 -0.1455
 6788SOL    HW221607   3.909   3.902   5.190  0.1380 -0.7567  0.3449
 6789SOL     OW21608   3.249   0.043   1.777 -0.5719  0.6842  0.0729
 6789SOL    HW121609   3.262  -0.036   1.829  1.1630  0.2760 -0.9442
 6789SOL    HW221610   3.235   0.112   1.841  1.2587  0.1503  1.0893
 6790SOL     OW21611   4.782   1.549   4.575  0.6401 -0.1645  0.0780
 6790SOL    HW121612   4.692   1.526   4.596 -0.4165  3.2314 -0.3629
 6790SOL    HW221613   4.829   1.466   4.577 -2.6689 -2.1621 -0.6752
 6791SOL     OW21614   4.183   6.024   5.398 -0.1103 -0.6965 -0.3673
 6791SOL    HW121615   4.096   6.023   5.360 -0.6511 -2.8998  0.8545
 6791SOL    HW221616   4.175   6.079   5.476 -0.0241  0.2855 -1.0327
 6792SOL     OW21617   4.835   1.988   6.717 -0.3035  0.2496  0.4842
 6792SOL    HW121618   4.767   2.017   6.656 -1.5370 -1.3885  1.0663
 6792SOL    HW221619   4.868   2.069   6.756 -0.5164  1.2041 -1.2730
 6793SOL     OW21620   8.264   1.075   1.885  0.1899  0.2796 -0.1948
 6793SOL    HW121621   8.304   1.012   1.825 -1.3862 -1.3527  0.4470
 6793SOL    HW221622   8.183   1.100   1.842 -0.2467  0.1999  0.5769
 6794SOL     OW21623   1.630   6.837   1.012 -0.2169 -0.2133 -0.0629
 6794SOL    HW121624   1.603   6.766   0.953  1.9193 -1.6063  0.5966
 6794SOL    HW221625   1.616   6.802   1.099  0.7564  0.2300  0.2714
 6795SOL     OW21626   2.193   1.484   8.283  0.4493 -0.3303  0.9454
 6795SOL    HW121627   2.184   1.389   8.285 -2.3045 -0.1182  0.0257
 6795SOL    HW221628   2.116   1.517   8.329  0.3376  1.4943 -0.4678
 6796SOL     OW21629   2.340   6.541   1.109 -0.0722 -0.3022  0.5111
 6796SOL    HW121630   2.416   6.493   1.142  1.5147  1.9098  0.1823
 6796SOL    HW221631   2.335   6.517   1.016  0.5042 -0.0970  0.4243
 6797SOL     OW21632   6.944   0.906   1.279  0.0371  0.0945  0.2668
 6797SOL    HW121633   6.965   0.945   1.195 -1.7079  0.4883 -0.0020
 6797SOL    HW221634   6.854   0.934   1.298 -0.5607 -2.1438  0.9936
 6798SOL     OW21635   1.488   7.099   7.183 -0.2249  0.2625 -0.1165
 6798SOL    HW121636   1.393   7.105   7.193 -0.3181 -3.2809  1.8086
 6798SOL    HW221637   1.502   7.085   7.090 -1.5044  1.4497 -0.5041
 6799SOL     OW21638   2.264   6.233   1.945 -0.2838  0.3733  0.1326
 6799SOL    HW121639   2.319   6.277   1.880 -0.7725  0.5637 -0.1605
 6799SOL    HW221640   2.252   6.299   2.014  0.6725 -0.0153  0.6642
 6800SOL     OW21641   1.683   1.437   0.102  0.4585  0.3871  0.3642
 6800SOL    HW121642   1.633   1.408   0.178 -0.1447  0.5005  0.0120
 6800SOL    HW221643   1.617   1.458   0.036  0.9917 -0.0622 -0.3212
 6801SOL     OW21644   6.434   3.877   1.304 -0.0027  0.4753 -0.2765
 6801SOL    HW121645   6.451   3.870   1.397  2.1291 -1.3829 -0.7766
 6801SOL    HW221646   6.518   3.902   1.265 -0.6969  0.5858 -1.7679
 6802SOL     OW21647   1.440   2.987   5.359  0.5894  0.6103  0.0605
 6802SOL    HW121648   1.476   3.006   5.445 -0.0827  0.4936  0.3687
 6802SOL    HW221649   1.477   2.902   5.335 -0.9853 -0.4146  1.2107
 6803SOL     OW21650   7.686   5.565   5.988  0.0645 -0.1925 -0.0774
 6803SOL    HW121651   7.724   5.634   6.042 -0.9589  0.3744 -0.0879
 6803SOL    HW221652   7.608   5.537   6.035  0.7289 -1.6979  0.1839
 6804SOL     OW21653   2.146   7.125   6.793  0.5730 -0.2716 -0.2943
 6804SOL    HW121654   2.053   7.112   6.778  0.4064  1.9353 -1.4336
 6804SOL    HW221655   2.151   7.187   6.866  1.2352 -2.8650  1.9323
 6805SOL     OW21656   7.385   5.912   7.006  0.1729  0.2742  0.5453
 6805SOL    HW121657   7.290   5.915   7.014  0.1903 -0.6082  1.0935
 6805SOL    HW221658   7.404   5.823   6.975  0.6143  1.3173 -2.3301
 6806SOL     OW21659   3.088   0.325   6.548 -0.5106 -0.0599 -0.1929
 6806SOL    HW121660   3.172   0.309   6.589 -1.1409  0.3950  1.2883
 6806SOL    HW221661   3.037   0.246   6.565  0.0576 -0.9053 -2.2666
 6807SOL     OW21662   1.066   3.536   0.524 -0.8883  0.5191  0.5276
 6807SOL    HW121663   1.057   3.543   0.429 -0.9290 -0.3303  0.4636
 6807SOL    HW221664   1.115   3.455   0.537 -0.8741  0.6415  1.2355
 6808SOL     OW21665   2.407   4.426   5.066  0.1831 -0.0063 -0.0786
 6808SOL    HW121666   2.378   4.443   4.976  0.9021  0.8468 -0.1566
 6808SOL    HW221667   2.386   4.507   5.113 -2.1512 -1.2078  1.0340
 6809SOL     OW21668   0.076   0.431   5.307  0.0180  0.2657  0.3083
 6809SOL    HW121669  -0.006   0.451   5.351 -0.7882  0.7491 -1.3816
 6809SOL    HW221670   0.060   0.453   5.215  1.2662 -1.8640 -0.4566
 6810SOL     OW21671   5.977   0.381   6.687 -0.1036 -0.0904  0.6927
 6810SOL    HW121672   6.038   0.393   6.614 -0.7971  0.8912  0.2593
 6810SOL    HW221673   6.004   0.445   6.752 -0.6981  0.3899  0.4748
 6811SOL     OW21674   4.763   7.770   2.562  0.1273 -0.1102 -0.1859
 6811SOL    HW121675   4.750   7.840   2.626 -0.4457 -0.8388  0.4998
 6811SOL    HW221676   4.735   7.808   2.479  1.0130  0.8891 -0.0331
 6812SOL     OW21677   3.544   1.254   0.843 -0.4113 -0.4709  0.1382
 6812SOL    HW121678   3.516   1.251   0.752  1.1616 -2.0144 -0.3330
 6812SOL    HW221679   3.514   1.171   0.880  0.4394 -0.5965  0.5519
 6813SOL     OW21680   3.933   1.076   6.028  0.4793 -0.2117 -0.4604
 6813SOL    HW121681   3.982   1.065   5.947 -1.4276 -2.5814 -1.3703
 6813SOL    HW221682   3.862   1.012   6.022 -1.5056  1.6715  1.7285
 6814SOL     OW21683   0.398   2.518   6.425  0.0203 -0.2360  0.0806
 6814SOL    HW121684   0.491   2.495   6.433 -0.3279 -1.6193  0.2074
 6814SOL    HW221685   0.377   2.503   6.333  0.4055  1.9896 -0.4014
 6815SOL     OW21686   4.299   6.124   5.080  0.1060  0.3077 -0.1611
 6815SOL    HW121687   4.338   6.153   4.997  0.7833  0.6676  0.2855
 6815SOL    HW221688   4.205   6.138   5.068  0.0849 -0.7121 -1.3017
 6816SOL     OW21689   2.893   6.829   5.530 -0.3729 -0.0740 -0.2434
 6816SOL    HW121690   2.892   6.901   5.467 -1.4451  0.0324 -0.1013
 6816SOL    HW221691   2.842   6.759   5.489 -0.8483 -0.1036  0.3860
 6817SOL     OW21692   0.903   5.250   3.848 -0.9166  0.1709 -0.0953
 6817SOL    HW121693   0.845   5.317   3.812  1.1638  1.4186 -1.2611
 6817SOL    HW221694   0.873   5.237   3.938 -0.6177  3.5927  0.5491
 6818SOL     OW21695   7.680   8.138   2.108  0.4491  0.5500 -0.6115
 6818SOL    HW121696   7.734   8.161   2.184 -1.9612  0.8065  1.0937
 6818SOL    HW221697   7.670   8.043   2.114 -2.4146  0.8915  1.3608
 6819SOL     OW21698   1.904   0.325   8.157  0.1738 -0.2468  0.2465
 6819SOL    HW121699   1.830   0.364   8.202  0.9088  1.8827 -0.3092
 6819SOL    HW221700   1.870   0.303   8.070  0.0798  0.3461  0.1314
 6820SOL     OW21701   0.383   0.501   2.964  0.1795 -0.1675  0.0115
 6820SOL    HW121702   0.461   0.448   2.949  0.0884 -1.2816  3.0364
 6820SOL    HW221703   0.417   0.584   2.999  0.1346  0.2468 -0.9380
 6821SOL     OW21704   2.151   7.538   1.172 -0.6029  0.1355  0.1917
 6821SOL    HW121705   2.064   7.549   1.210 -1.0940 -0.7131 -0.6321
 6821SOL    HW221706   2.135   7.484   1.094  0.7128 -0.3838  0.2742
 6822SOL     OW21707   0.090   5.504   4.629  0.0410  0.0587 -0.0727
 6822SOL    HW121708   0.106   5.423   4.581  0.9121 -0.2215  0.6841
 6822SOL    HW221709   0.027   5.479   4.697 -0.2448  0.1851 -0.2866
 6823SOL     OW21710   6.043   1.465   2.631 -0.3090  0.6201 -0.3175
 6823SOL    HW121711   6.069   1.463   2.723 -0.5346  1.7204 -0.2199
 6823SOL    HW221712   5.991   1.545   2.623 -1.7149 -0.3511 -1.0238
 6824SOL     OW21713   3.800   1.183   3.639  0.0873  0.0986  0.3021
 6824SOL    HW121714   3.770   1.215   3.723  1.7004  1.0510  0.5404
 6824SOL    HW221715   3.855   1.253   3.605  0.6039 -0.8640 -0.8978
 6825SOL     OW21716   6.430   4.506   8.209 -0.2176  0.3531 -0.2599
 6825SOL    HW121717   6.485   4.438   8.169 -0.7869 -0.4344  0.2647
 6825SOL    HW221718   6.348   4.503   8.159 -0.0726  0.9874 -0.5416
 6826SOL     OW21719   4.756   2.509   2.146 -0.2700 -0.0401 -0.0104
 6826SOL    HW121720   4.843   2.528   2.111 -1.1416 -0.7249 -2.6855
 6826SOL    HW221721   4.763   2.420   2.179  0.4742  0.4940  1.3164
 6827SOL     OW21722   7.658   6.284   0.689 -0.1306 -0.1339  0.1700
 6827SOL    HW121723   7.646   6.234   0.770 -0.5905  1.0883  0.8663
 6827SOL    HW221724   7.746   6.322   0.697 -0.4508  0.5599  0.4154
 6828SOL     OW21725   7.631   0.463   0.433 -0.2012  0.1718  0.0433
 6828SOL    HW121726   7.608   0.480   0.341 -0.2721 -0.3429 -0.0355
 6828SOL    HW221727   7.700   0.526   0.452 -2.3997  2.5274  0.6030
 6829SOL     OW21728   1.443   7.548   3.863  0.2594  0.7274 -0.1136
 6829SOL    HW121729   1.513   7.612   3.877 -0.5415  1.5727  0.0629
 6829SOL    HW221730   1.437   7.540   3.768 -1.6107  3.1262 -0.2236
 6830SOL     OW21731   1.836   2.121   1.917 -0.5283  0.5617  0.8209
 6830SOL    HW121732   1.831   2.178   1.841  0.9262  0.6646  0.7883
 6830SOL    HW221733   1.872   2.039   1.883 -1.0482  0.1819  1.1733
 6831SOL     OW21734   1.805   5.127   1.043  0.3444  0.4284 -0.1385
 6831SOL    HW121735   1.769   5.120   0.954  0.3060 -0.7134 -0.0332
 6831SOL    HW221736   1.899   5.141   1.029  0.4309 -0.3331 -0.3560
 6832SOL     OW21737   5.811   7.813   4.317 -0.5501 -0.4725  0.0471
 6832SOL    HW121738   5.791   7.786   4.227 -1.0054  1.2111 -0.3683
 6832SOL    HW221739   5.905   7.828   4.317 -0.3493 -1.6967  0.1894
 6833SOL     OW21740   4.344   0.103   2.682 -0.3421 -0.9717  0.1093
 6833SOL    HW121741   4.265   0.100   2.628 -0.9330  1.2158  0.7954
 6833SOL    HW221742   4.416   0.111   2.620 -0.9007  0.0016 -0.4129
 6834SOL     OW21743   1.133   3.430   7.622  0.2367  0.5161 -0.2207
 6834SOL    HW121744   1.200   3.365   7.598  0.9691  1.4379 -0.7075
 6834SOL    HW221745   1.103   3.402   7.708  0.2263 -0.7215 -0.6021
 6835SOL     OW21746   6.437   4.159   7.619  0.6216  0.2006  0.0922
 6835SOL    HW121747   6.448   4.115   7.535 -2.3080  0.8422 -0.7050
 6835SOL    HW221748   6.486   4.106   7.681 -1.4013 -3.2604 -1.1223
 6836SOL     OW21749   7.659   0.338   3.934 -0.0044  0.5573  0.6539
 6836SOL    HW121750   7.701   0.396   3.998  0.0408  0.5149  0.6622
 6836SOL    HW221751   7.713   0.259   3.934  1.3528  1.4571 -1.1217
 6837SOL     OW21752   0.563   1.763   0.023  0.2303 -0.0537  0.1005
 6837SOL    HW121753   0.579   1.842  -0.028  1.7098 -0.4343 -0.0431
 6837SOL    HW221754   0.503   1.790   0.092  2.4532  1.7081  1.3820
 6838SOL     OW21755   4.319   6.480   6.772  0.2412 -0.3398  0.6947
 6838SOL    HW121756   4.226   6.459   6.776  0.2012 -0.0611  1.2597
 6838SOL    HW221757   4.334   6.505   6.680 -0.3164 -0.0505  0.6795
 6839SOL     OW21758   3.835   7.838   3.727  0.2924  0.4138  0.0955
 6839SOL    HW121759   3.748   7.864   3.757  0.4643 -0.1010  1.0598
 6839SOL    HW221760   3.850   7.752   3.767  1.5349  0.8203  0.5320
 6840SOL     OW21761   7.169   3.114   8.090 -0.0581  0.0075  0.1538
 6840SOL    HW121762   7.111   3.046   8.125  0.0860  0.4689  1.3063
 6840SOL    HW221763   7.112   3.168   8.035 -0.4412 -0.3054  0.2453
 6841SOL     OW21764   0.787   2.845   4.499 -0.3369 -0.8220  0.4241
 6841SOL    HW121765   0.868   2.856   4.449 -0.0748  0.1101  1.0612
 6841SOL    HW221766   0.754   2.759   4.471 -0.1288 -0.3686 -1.2582
 6842SOL     OW21767   3.159   2.818   0.473 -0.5793  0.3369  0.1151
 6842SOL    HW121768   3.129   2.868   0.396  0.6800 -0.6914 -1.0783
 6842SOL    HW221769   3.115   2.734   0.465  0.2270 -0.0843  0.0299
 6843SOL     OW21770   6.935   4.184   4.594 -0.1797 -0.3842 -0.0464
 6843SOL    HW121771   6.971   4.158   4.679  0.3265 -0.6803 -0.3482
 6843SOL    HW221772   6.903   4.273   4.608  1.1885  0.1129  0.0908
 6844SOL     OW21773   1.747   2.662   4.640  0.3829 -0.0055  0.0361
 6844SOL    HW121774   1.771   2.574   4.667 -0.2823 -0.2419 -0.1416
 6844SOL    HW221775   1.684   2.650   4.569  0.5531  0.6114 -0.2251
 6845SOL     OW21776   6.710   2.832   0.687 -0.2968 -0.0384 -1.3019
 6845SOL    HW121777   6.771   2.892   0.644  0.9136  0.3300  0.8608
 6845SOL    HW221778   6.766   2.772   0.737 -1.6148 -1.1834 -1.1597
 6846SOL     OW21779   8.077   5.615   0.773 -0.0576  0.1610  0.2380
 6846SOL    HW121780   8.145   5.556   0.806  0.1801  1.3327  1.8645
 6846SOL    HW221781   8.072   5.685   0.838 -2.5161  0.3188 -0.0764
 6847SOL     OW21782   7.631   3.964   5.419  0.1508 -0.4983 -0.6279
 6847SOL    HW121783   7.588   4.006   5.344 -1.3838 -1.9026 -0.5672
 6847SOL    HW221784   7.718   3.940   5.386 -0.5255 -1.1496 -2.0080
 6848SOL     OW21785   4.071   6.413   4.053  0.2075 -0.0781  0.3589
 6848SOL    HW121786   4.025   6.343   4.100 -0.3382  0.0774  0.0611
 6848SOL    HW221787   4.163   6.390   4.060 -0.0508 -1.6541 -1.0530
 6849SOL     OW21788   5.950   2.440   6.379  1.0592 -0.5468 -0.5712
 6849SOL    HW121789   5.966   2.509   6.444 -1.0437 -0.1999 -0.3767
 6849SOL    HW221790   6.033   2.392   6.374  2.5631  1.9740 -0.7138
 6850SOL     OW21791   5.328   7.991   0.634 -0.1467 -0.0634 -0.4961
 6850SOL    HW121792   5.301   7.967   0.723  0.6166 -0.0133 -0.2483
 6850SOL    HW221793   5.418   7.958   0.626 -0.5464 -0.9471 -1.5936
 6851SOL     OW21794   6.017   5.108   2.943 -0.2608 -0.8370 -0.0223
 6851SOL    HW121795   5.943   5.112   2.883 -0.4051  0.3226  0.2229
 6851SOL    HW221796   6.094   5.108   2.886 -0.3880  0.5549 -0.2077
 6852SOL     OW21797   1.367   4.813   2.129 -0.1324 -0.3940 -0.0364
 6852SOL    HW121798   1.314   4.735   2.116 -2.1336  0.7756  0.8454
 6852SOL    HW221799   1.312   4.885   2.098  0.6815  0.9066  1.4613
 6853SOL     OW21800   4.472   5.560   2.440  0.4793  0.0879 -0.2450
 6853SOL    HW121801   4.528   5.619   2.389  0.6569 -1.1112 -1.4483
 6853SOL    HW221802   4.397   5.544   2.383  0.2058 -0.4807  0.2713
 6854SOL     OW21803   1.919   7.985   6.186 -0.5214  0.4731  0.1707
 6854SOL    HW121804   1.860   8.031   6.245 -1.0916  0.3772 -0.3226
 6854SOL    HW221805   1.989   8.047   6.168  0.1943  0.1446  1.7617
 6855SOL     OW21806   7.958   0.626   6.129 -0.0269 -0.1755  0.1568
 6855SOL    HW121807   7.890   0.677   6.084 -0.6836 -0.0550  1.2830
 6855SOL    HW221808   7.924   0.537   6.132  1.0738 -0.6959 -1.7114
 6856SOL     OW21809   0.282   5.641   0.021 -0.4051  0.4050 -0.5316
 6856SOL    HW121810   0.343   5.625   0.093 -0.2861  1.5212 -0.3693
 6856SOL    HW221811   0.267   5.555  -0.017 -0.1983 -0.1514  0.6114
 6857SOL     OW21812   0.531   5.973   1.454 -0.2124  0.3947 -0.4094
 6857SOL    HW121813   0.537   6.068   1.459  2.4242  0.2620 -0.7277
 6857SOL    HW221814   0.607   5.941   1.502 -2.0037 -1.6119  1.2392
 6858SOL     OW21815   7.754   1.991   0.930 -0.1109 -0.3137  0.3766
 6858SOL    HW121816   7.702   2.070   0.916  0.5350 -0.1782 -1.2921
 6858SOL    HW221817   7.811   2.012   1.004  2.7674  2.1659 -2.4539
 6859SOL     OW21818   4.475   2.449   0.080 -0.3959  0.6558 -1.0416
 6859SOL    HW121819   4.454   2.373   0.026  0.4422 -1.5542  1.6149
 6859SOL    HW221820   4.391   2.492   0.095 -0.9061  0.1633 -2.4067
 6860SOL     OW21821   3.244   0.531   5.098  0.3203 -0.2134  0.4546
 6860SOL    HW121822   3.166   0.551   5.046  0.5580 -0.7599 -0.1110
 6860SOL    HW221823   3.313   0.582   5.057  0.1491  0.6937  1.2893
 6861SOL     OW21824   3.825   6.517   5.838 -0.2765  0.9381  0.0314
 6861SOL    HW121825   3.830   6.468   5.920 -2.2495  0.9151  0.1546
 6861SOL    HW221826   3.856   6.605   5.861 -0.2534  0.7679  0.6566
 6862SOL     OW21827   1.364   3.747   7.207  0.0155 -0.7023 -0.2354
 6862SOL    HW121828   1.427   3.759   7.136  0.8374 -0.4047  0.5282
 6862SOL    HW221829   1.368   3.654   7.227 -0.5688 -0.8729 -0.8935
 6863SOL     OW21830   5.570   0.548   0.710  0.2042 -0.0286 -0.5993
 6863SOL    HW121831   5.646   0.496   0.736 -0.1716 -0.1769  0.2131
 6863SOL    HW221832   5.497   0.512   0.760 -0.4575 -0.0418 -1.5503
 6864SOL     OW21833   4.906   1.607   5.407  0.2528  0.2319  0.3712
 6864SOL    HW121834   4.891   1.513   5.414  2.6204 -0.1421  0.8503
 6864SOL    HW221835   4.827   1.647   5.443 -0.4158 -1.5889  0.9586
 6865SOL     OW21836   7.451   5.274   3.221 -0.1323 -0.1017 -0.0106
 6865SOL    HW121837   7.470   5.343   3.285 -2.3937  0.1755  0.3748
 6865SOL    HW221838   7.426   5.322   3.142 -1.0862 -0.4614  0.0658
 6866SOL     OW21839   6.111   6.603   8.120  0.0947 -0.4511  0.0653
 6866SOL    HW121840   6.150   6.532   8.170 -0.5666 -0.6729  0.2782
 6866SOL    HW221841   6.073   6.560   8.043 -2.1497 -0.6478  1.2296
 6867SOL     OW21842   7.588   5.427   0.707  0.2459  0.2532 -0.6233
 6867SOL    HW121843   7.661   5.484   0.731 -0.3480  0.3640  1.0324
 6867SOL    HW221844   7.584   5.363   0.779  0.4001 -1.3835 -2.0557
 6868SOL     OW21845   6.621   7.655   8.123  0.2820 -0.0236 -0.0488
 6868SOL    HW121846   6.527   7.640   8.136 -0.1737  0.8912 -2.0298
 6868SOL    HW221847   6.644   7.595   8.051  0.7813  1.1144 -0.8464
 6869SOL     OW21848   1.902   1.691   4.517  0.1672  0.3179  0.3369
 6869SOL    HW121849   1.833   1.644   4.563  0.3260  1.2719  1.5495
 6869SOL    HW221850   1.883   1.783   4.531  1.8144  0.5902  0.8950
 6870SOL     OW21851   6.822   8.239   7.882  0.2798 -0.1150 -0.3429
 6870SOL    HW121852   6.896   8.274   7.831  0.1929  0.3538 -0.1517
 6870SOL    HW221853   6.851   8.243   7.973  0.6223 -1.4207 -0.3904
 6871SOL     OW21854   1.949   3.701   0.412 -0.6739  0.0598  0.3391
 6871SOL    HW121855   1.897   3.765   0.364 -1.0992  1.1601  2.2308
 6871SOL    HW221856   1.894   3.674   0.485 -0.6548 -2.7873 -0.6242
 6872SOL     OW21857   4.884   3.537   2.224 -0.6921 -0.4867  0.2589
 6872SOL    HW121858   4.897   3.627   2.254 -1.4420 -0.0075 -0.8101
 6872SOL    HW221859   4.827   3.498   2.290  2.2837 -1.2116  2.5097
 6873SOL     OW21860   3.649   3.092   1.564  0.3078 -0.2175  0.0699
 6873SOL    HW121861   3.610   3.033   1.500 -0.5022 -1.2823  1.5210
 6873SOL    HW221862   3.588   3.165   1.569 -0.4736 -0.9065  0.8114
 6874SOL     OW21863   0.749   2.095   3.224 -0.2256 -0.2086  0.1079
 6874SOL    HW121864   0.810   2.167   3.206  1.1487 -1.5133 -0.6200
 6874SOL    HW221865   0.804   2.027   3.263 -1.7038 -0.4850  1.7400
 6875SOL     OW21866   0.760   6.811   2.192 -0.3445 -0.4635 -0.4582
 6875SOL    HW121867   0.796   6.769   2.270  0.0009 -1.0211 -0.9172
 6875SOL    HW221868   0.782   6.904   2.203 -0.1973 -0.5562  0.0490
 6876SOL     OW21869   4.384   5.818   2.277  0.5047  0.5462 -0.1619
 6876SOL    HW121870   4.396   5.878   2.203  0.2662  1.0533  0.2075
 6876SOL    HW221871   4.472   5.786   2.297  0.4150 -0.5108 -1.4315
 6877SOL     OW21872   5.683   2.963   0.093  0.0739 -0.4688  0.4377
 6877SOL    HW121873   5.588   2.956   0.081  0.0336  1.6116 -0.6546
 6877SOL    HW221874   5.711   3.023   0.024  2.3264 -1.7745  0.1906
 6878SOL     OW21875   4.771   3.028   3.987  0.3907  0.2158  0.5043
 6878SOL    HW121876   4.864   3.005   3.977  1.1557  3.4926 -0.2366
 6878SOL    HW221877   4.765   3.066   4.075 -0.1636  0.4383  0.3703
 6879SOL     OW21878   2.401   4.813   5.639  0.1662  0.1778 -0.1777
 6879SOL    HW121879   2.375   4.740   5.583  0.2545  0.7080 -0.9160
 6879SOL    HW221880   2.495   4.803   5.650 -0.0955 -0.8894  1.2708
 6880SOL     OW21881   2.127   4.725   0.565 -0.2862 -0.8470 -0.4453
 6880SOL    HW121882   2.124   4.807   0.515  0.9756  1.0177  2.4368
 6880SOL    HW221883   2.035   4.702   0.578 -0.7078  1.1510  0.3030
 6881SOL     OW21884   6.435   4.620   5.067 -0.6596 -0.1594 -0.3550
 6881SOL    HW121885   6.403   4.669   5.143 -2.7929 -1.3272 -0.4539
 6881SOL    HW221886   6.528   4.642   5.062 -0.7564  0.9286  1.8328
 6882SOL     OW21887   0.584   6.931   1.478 -0.6885 -0.4804 -0.0419
 6882SOL    HW121888   0.591   6.835   1.485 -1.8754 -0.4759  1.5904
 6882SOL    HW221889   0.552   6.946   1.389 -1.0970 -1.6593 -0.1122
 6883SOL     OW21890   7.644   3.349   6.308  0.0868  0.7101  0.3700
 6883SOL    HW121891   7.660   3.410   6.236  0.3133 -0.0627 -0.2381
 6883SOL    HW221892   7.728   3.341   6.352  1.0692 -2.0565 -1.8227
 6884SOL     OW21893   2.534   4.331   4.310  0.2561 -0.6636 -0.8296
 6884SOL    HW121894   2.598   4.294   4.250 -0.0029 -2.9575  0.2469
 6884SOL    HW221895   2.476   4.258   4.332  0.0242  0.2428  1.7806
 6885SOL     OW21896   3.675   2.143   6.281  0.2219 -0.5623  0.1596
 6885SOL    HW121897   3.734   2.081   6.323  0.3347 -1.0588 -0.7215
 6885SOL    HW221898   3.723   2.173   6.203 -0.8294 -1.2590 -0.7730
 6886SOL     OW21899   4.455   0.053   4.819  0.6737  0.2240 -0.0273
 6886SOL    HW121900   4.544   0.017   4.820  0.6389  0.1168 -0.4314
 6886SOL    HW221901   4.404  -0.011   4.768  0.3086  0.1517  0.4251
 6887SOL     OW21902   0.007   4.355   7.308  0.5021 -0.3699 -0.1468
 6887SOL    HW121903  -0.062   4.317   7.361  1.2177 -1.3724  0.0913
 6887SOL    HW221904   0.085   4.302   7.328  1.1108  0.1276 -1.1185
 6888SOL     OW21905   3.753   7.344   4.021  1.1882 -0.4788  0.4320
 6888SOL    HW121906   3.842   7.310   4.016  1.2550 -0.3991  1.0584
 6888SOL    HW221907   3.701   7.272   4.055  0.6555 -1.1575 -1.7380
 6889SOL     OW21908   1.440   4.026   6.853  0.3369  0.1935 -0.1313
 6889SOL    HW121909   1.506   4.067   6.909 -1.2891 -2.1459  3.6570
 6889SOL    HW221910   1.358   4.071   6.876 -0.4257 -1.0820 -0.3023
 6890SOL     OW21911   8.201   2.900   5.325  0.1044  0.4177 -0.0289
 6890SOL    HW121912   8.130   2.964   5.333 -0.6643 -0.2084 -1.5502
 6890SOL    HW221913   8.251   2.931   5.249  0.9776  0.3991  0.5402
 6891SOL     OW21914   3.518   3.806   3.622 -0.0177 -0.9089 -0.2368
 6891SOL    HW121915   3.538   3.880   3.564  0.7258 -0.7752  0.1734
 6891SOL    HW221916   3.425   3.791   3.611 -0.5998  1.3503  1.1231
 6892SOL     OW21917   5.323   4.766   1.807  0.0635 -0.4522  0.7469
 6892SOL    HW121918   5.369   4.694   1.850 -0.1747 -1.1848 -0.1992
 6892SOL    HW221919   5.381   4.792   1.735  0.8356  1.3024  1.9604
 6893SOL     OW21920   3.929   7.656   7.430  0.0911  0.0065  0.1194
 6893SOL    HW121921   4.023   7.645   7.439  0.1162  0.0924 -0.0253
 6893SOL    HW221922   3.914   7.656   7.335 -0.0603 -0.0622  0.1429
 6894SOL     OW21923   7.871   1.181   2.361 -0.3521  0.3210  0.1505
 6894SOL    HW121924   7.909   1.223   2.438 -0.1648  0.0613  0.1998
 6894SOL    HW221925   7.821   1.107   2.396  1.2280 -0.8936 -0.1109
 6895SOL     OW21926   5.946   4.839   0.593  0.2451 -0.4013  0.8576
 6895SOL    HW121927   5.965   4.865   0.503  1.7150  1.0255  1.5526
 6895SOL    HW221928   5.880   4.770   0.585  0.5069 -0.4244 -1.3059
 6896SOL     OW21929   2.537   5.771   2.748 -0.1452  0.6505 -0.2974
 6896SOL    HW121930   2.629   5.793   2.760 -0.1210  0.4387 -0.0866
 6896SOL    HW221931   2.521   5.699   2.809 -0.2224  0.0934 -0.9754
 6897SOL     OW21932   4.827   7.219   4.987  0.2971  0.1348  0.0365
 6897SOL    HW121933   4.920   7.242   4.981  0.5319 -0.6352  0.7441
 6897SOL    HW221934   4.802   7.197   4.897  0.7893  0.3645 -0.1581
 6898SOL     OW21935   5.851   2.372   3.783 -0.4699 -0.1480 -0.7943
 6898SOL    HW121936   5.852   2.458   3.825 -0.8378 -0.1196 -0.8410
 6898SOL    HW221937   5.772   2.329   3.818  0.7972 -1.2572  0.7914
 6899SOL     OW21938   0.382   1.806   5.543  0.0659 -0.3092  0.2089
 6899SOL    HW121939   0.323   1.881   5.530  0.3345 -0.2674 -0.8154
 6899SOL    HW221940   0.468   1.845   5.554  0.3409 -0.4953 -1.1877
 6900SOL     OW21941   3.278   6.714   0.027  0.2931 -0.3565 -0.2418
 6900SOL    HW121942   3.258   6.682  -0.061  0.0614 -0.7986 -0.0329
 6900SOL    HW221943   3.194   6.707   0.074  1.0607 -2.9104  0.8571
 6901SOL     OW21944   1.838   7.049   3.393 -0.2078 -0.4391  0.4236
 6901SOL    HW121945   1.864   6.957   3.394  0.5885 -0.2144  0.9935
 6901SOL    HW221946   1.742   7.047   3.390 -0.1663 -1.2810 -3.9870
 6902SOL     OW21947   3.627   7.364   1.583 -0.3334 -0.0666 -0.5129
 6902SOL    HW121948   3.558   7.426   1.560  0.4174  0.5036 -1.2614
 6902SOL    HW221949   3.639   7.310   1.505 -0.9331 -1.1284  0.1088
 6903SOL     OW21950   5.403   5.883   7.897  0.8921  0.4568  0.5301
 6903SOL    HW121951   5.414   5.790   7.916  0.0920  0.3471  0.4874
 6903SOL    HW221952   5.377   5.887   7.805  1.9568  0.7983  0.2403
 6904SOL     OW21953   3.852   1.885   6.584  0.4644 -0.2764 -0.1184
 6904SOL    HW121954   3.810   1.865   6.501  1.0688 -0.7122 -0.3168
 6904SOL    HW221955   3.779   1.891   6.646 -0.1148  1.3629 -0.9222
 6905SOL     OW21956   7.958   1.081   1.525 -0.2348 -0.1495  0.0603
 6905SOL    HW121957   8.001   1.112   1.604  0.3885 -2.0129  0.4637
 6905SOL    HW221958   7.890   1.021   1.557  0.3397 -1.2888 -0.8161
 6906SOL     OW21959   7.570   2.121   5.441 -0.3426  0.3321  0.5167
 6906SOL    HW121960   7.656   2.128   5.399 -1.2564  1.5916 -1.2610
 6906SOL    HW221961   7.566   2.196   5.501  0.0413 -0.0808  1.0551
 6907SOL     OW21962   7.120   6.377   1.420 -0.5443  0.1575  0.3443
 6907SOL    HW121963   7.028   6.353   1.429 -0.3175 -0.9243 -0.1859
 6907SOL    HW221964   7.166   6.319   1.481 -0.3185  1.4047  1.3710
 6908SOL     OW21965   2.256   2.575   3.703  0.7757 -0.1131  0.2619
 6908SOL    HW121966   2.251   2.513   3.631  0.0884 -0.5270  0.6571
 6908SOL    HW221967   2.253   2.661   3.661 -1.4578 -0.3352 -0.1198
 6909SOL     OW21968   7.258   5.122   3.532  0.2126 -0.6064  0.1194
 6909SOL    HW121969   7.239   5.216   3.531  1.3653 -0.3554 -1.5407
 6909SOL    HW221970   7.202   5.086   3.463  1.4868 -0.7518 -0.8560
 6910SOL     OW21971   0.409   0.568   5.695 -0.2308 -0.3210  0.0025
 6910SOL    HW121972   0.347   0.571   5.622  0.5291 -2.2129 -0.7676
 6910SOL    HW221973   0.359   0.533   5.768 -0.8090  0.9143  0.2203
 6911SOL     OW21974   3.749   3.769   2.788 -0.6566 -0.0578 -0.2626
 6911SOL    HW121975   3.775   3.854   2.824 -0.0110 -0.4923  0.2953
 6911SOL    HW221976   3.819   3.747   2.726 -0.1098 -0.8195  0.6038
 6912SOL     OW21977   3.278   6.024   0.049 -0.4044 -0.6825 -0.8004
 6912SOL    HW121978   3.228   6.040   0.129 -0.6922  0.3391 -1.1818
 6912SOL    HW221979   3.302   5.932   0.054 -1.5257 -0.9472 -0.1588
 6913SOL     OW21980   0.851   1.754   6.720 -0.0094 -0.1694 -0.7982
 6913SOL    HW121981   0.864   1.772   6.627 -0.5364  1.3039 -0.6010
 6913SOL    HW221982   0.768   1.707   6.724 -0.3428  0.3886 -1.0262
 6914SOL     OW21983   6.111   5.525   4.544 -0.0119 -0.0858 -0.4786
 6914SOL    HW121984   6.139   5.502   4.455  1.3368  1.7987 -0.5711
 6914SOL    HW221985   6.168   5.473   4.601 -1.2130 -1.6744 -0.6930
 6915SOL     OW21986   7.200   1.559   4.051 -0.3166 -0.3739 -0.1935
 6915SOL    HW121987   7.218   1.479   4.099 -1.1716 -1.8705 -2.2955
 6915SOL    HW221988   7.287   1.596   4.032  0.0115  0.7590  3.2520
 6916SOL     OW21989   5.461   1.520   5.310  0.5477 -0.5340  0.5130
 6916SOL    HW121990   5.425   1.480   5.231 -1.0239  2.6584 -0.4702
 6916SOL    HW221991   5.454   1.452   5.377 -2.4232 -1.7800 -0.9609
 6917SOL     OW21992   7.306   2.489   6.713  0.6244  0.5019  0.0800
 6917SOL    HW121993   7.248   2.439   6.770  0.2810  0.8232  0.0114
 6917SOL    HW221994   7.274   2.471   6.625  0.0574  1.4154  0.1030
 6918SOL     OW21995   2.856   5.065   4.474  0.1193 -0.3019  0.5251
 6918SOL    HW121996   2.767   5.051   4.440 -0.1721  1.7856  0.3692
 6918SOL    HW221997   2.913   5.024   4.409 -0.5662  1.4668 -1.2603
 6919SOL     OW21998   6.866   2.327   4.602 -0.3665 -0.3595 -0.1882
 6919SOL    HW121999   6.888   2.239   4.634  2.2951  0.4373  0.2921
 6919SOL    HW222000   6.900   2.387   4.668 -0.6501  1.0901 -1.3186
 6920SOL     OW22001   2.030   6.780   3.116 -0.1428  0.1985  0.0987
 6920SOL    HW122002   2.000   6.805   3.204  0.1583  2.9321 -0.5319
 6920SOL    HW222003   2.069   6.860   3.080  0.9540 -1.2384 -2.0313
 6921SOL     OW22004   6.596   2.326   1.071 -0.0230 -0.3823  0.4151
 6921SOL    HW122005   6.654   2.259   1.032 -0.7234  0.1018 -1.5411
 6921SOL    HW222006   6.611   2.404   1.017  0.8422  1.1009  2.7263
 6922SOL     OW22007   6.720   4.739   2.910  0.1005 -0.4490  0.0437
 6922SOL    HW122008   6.661   4.781   2.848 -0.7536 -0.4459  0.8376
 6922SOL    HW222009   6.790   4.803   2.925 -1.3998  0.8828  1.5617
 6923SOL     OW22010   2.222   3.143   7.872  0.0508  0.0532 -0.0965
 6923SOL    HW122011   2.128   3.155   7.855  0.1188 -0.3138 -0.7710
 6923SOL    HW222012   2.232   3.157   7.966 -0.9577 -1.6897  0.2784
 6924SOL     OW22013   2.906   6.165   0.407  0.0336 -0.4703 -0.7317
 6924SOL    HW122014   2.830   6.150   0.352  1.0237  0.6737 -2.4439
 6924SOL    HW222015   2.874   6.219   0.480 -0.6602  0.4884 -1.7467
 6925SOL     OW22016   4.484   2.661   7.812  0.0054 -0.1433 -0.1618
 6925SOL    HW122017   4.425   2.623   7.746  0.0231 -1.0783  0.3530
 6925SOL    HW222018   4.563   2.607   7.807  0.5879  0.7178 -0.4085
 6926SOL     OW22019   6.956   1.884   2.018  0.2915 -0.5560 -0.4496
 6926SOL    HW122020   7.003   1.815   1.970  0.7428 -0.2034 -0.5244
 6926SOL    HW222021   6.983   1.872   2.109 -0.2198 -0.9481 -0.3453
 6927SOL     OW22022   3.967   0.921   3.660  0.3776  0.4556  0.2889
 6927SOL    HW122023   3.966   0.901   3.754  0.9430  1.7700  0.5949
 6927SOL    HW222024   3.921   1.005   3.654  0.9255  0.6940 -0.5292
 6928SOL     OW22025   8.085   1.989   1.296  0.6527  0.4994 -0.4796
 6928SOL    HW122026   8.065   2.015   1.386  2.7585  1.0259 -0.1322
 6928SOL    HW222027   8.104   1.895   1.302 -0.7175  0.2062 -0.6471
 6929SOL     OW22028   7.343   1.545   8.017 -0.0010  0.2138 -0.3254
 6929SOL    HW122029   7.438   1.532   8.016  0.2501  1.6683  1.4649
 6929SOL    HW222030   7.327   1.605   7.944  0.7426  1.5490  0.5719
 6930SOL     OW22031   1.318   2.995   1.973  0.4690  0.2250 -0.5706
 6930SOL    HW122032   1.287   3.059   2.035  0.2114 -0.6279  0.1891
 6930SOL    HW222033   1.403   2.967   2.008 -0.9125 -2.2707  0.8994
 6931SOL     OW22034   3.054   7.602   7.283  0.2568 -0.6777 -0.1886
 6931SOL    HW122035   2.979   7.661   7.292  1.0907  0.3542  0.0143
 6931SOL    HW222036   3.130   7.660   7.275  0.9326 -1.7068 -1.4166
 6932SOL     OW22037   5.569   2.117   6.506  0.4075  0.6800  0.1177
 6932SOL    HW122038   5.579   2.034   6.554 -1.1085  0.0197 -0.6946
 6932SOL    HW222039   5.631   2.109   6.433 -0.1074  0.0245 -0.2603
 6933SOL     OW22040   1.757   2.311   1.259 -0.2142  0.1819 -0.3126
 6933SOL    HW122041   1.832   2.265   1.221 -0.9778 -1.4315  0.0654
 6933SOL    HW222042   1.689   2.306   1.192 -0.4222  0.4543 -0.1262
 6934SOL     OW22043   1.506   4.868   1.376  0.0792 -0.5940 -0.0753
 6934SOL    HW122044   1.557   4.935   1.331  0.1289 -0.2445  0.4952
 6934SOL    HW222045   1.424   4.864   1.327 -0.3166  0.5837  0.4660
 6935SOL     OW22046   3.972   2.193   7.786 -0.4744  0.1073  0.3703
 6935SOL    HW122047   3.923   2.237   7.855  1.2130 -2.0906  3.1015
 6935SOL    HW222048   3.946   2.101   7.793  2.1474 -0.6808  0.2541
 6936SOL     OW22049   1.533   0.471   5.073 -0.3391  0.3342 -0.0740
 6936SOL    HW122050   1.564   0.386   5.104  0.7043  0.6987 -0.0896
 6936SOL    HW222051   1.480   0.505   5.145  0.4252  0.2919  0.5134
 6937SOL     OW22052   5.589   1.720   1.201  0.0535  0.5381  0.2836
 6937SOL    HW122053   5.625   1.746   1.286  0.9651  0.1212  0.0243
 6937SOL    HW222054   5.666   1.705   1.146 -0.5305  0.3221 -0.4751
 6938SOL     OW22055   3.893   4.956   2.926  0.4378  0.6044  0.1853
 6938SOL    HW122056   3.882   4.992   2.838 -2.2579 -0.0526  0.2085
 6938SOL    HW222057   3.804   4.950   2.961  1.3374 -0.5494  2.4029
 6939SOL     OW22058   6.133   3.480   0.967 -0.1663  0.3456 -0.7011
 6939SOL    HW122059   6.135   3.386   0.986  0.0976  0.6427  0.8648
 6939SOL    HW222060   6.039   3.501   0.963 -0.2225 -0.0792 -1.5328
 6940SOL     OW22061   1.280   5.249   1.138  0.0217  0.0737 -0.4482
 6940SOL    HW122062   1.348   5.187   1.166  0.4804 -0.1538 -2.0071
 6940SOL    HW222063   1.255   5.295   1.218  0.8093 -1.0223  0.4500
 6941SOL     OW22064   3.725   0.423   2.876 -0.3826  0.6653 -0.2125
 6941SOL    HW122065   3.793   0.470   2.827  0.3172 -0.6242 -0.5048
 6941SOL    HW222066   3.774   0.366   2.936 -1.2251  0.9767  0.7816
 6942SOL     OW22067   1.925   5.171   5.847  0.1379  0.0256  0.5451
 6942SOL    HW122068   1.943   5.229   5.920  0.0499 -1.2683  1.6057
 6942SOL    HW222069   1.892   5.229   5.778 -0.6551  1.1370  1.8380
 6943SOL     OW22070   3.132   3.551   4.905  0.4178 -0.4345 -0.0936
 6943SOL    HW122071   3.219   3.535   4.868  0.0526 -2.6640 -0.0521
 6943SOL    HW222072   3.106   3.468   4.944 -2.6629 -0.4858 -2.0510
 6944SOL     OW22073   0.212   4.910   1.898 -0.5210  0.4800 -0.3761
 6944SOL    HW122074   0.206   4.905   1.803  0.5578  0.4621 -0.4501
 6944SOL    HW222075   0.256   4.993   1.915 -1.1904  0.7385  0.1339
 6945SOL     OW22076   0.610   5.377   1.390  0.3285  0.0557  0.4793
 6945SOL    HW122077   0.667   5.355   1.463  0.3161 -0.3417  0.3682
 6945SOL    HW222078   0.670   5.394   1.317  0.3809  1.2178  0.7780
 6946SOL     OW22079   0.514   5.189   0.661 -0.0161  0.3758 -0.3216
 6946SOL    HW122080   0.513   5.154   0.572 -0.4186  0.1570 -0.2330
 6946SOL    HW222081   0.531   5.113   0.717 -0.2505  0.4323 -0.1742
 6947SOL     OW22082   7.509   7.124   5.055 -0.1287  0.0397  0.1308
 6947SOL    HW122083   7.422   7.085   5.059  0.1526 -0.4995  0.9945
 6947SOL    HW222084   7.550   7.084   4.979 -0.3840 -0.2351  0.1369
 6948SOL     OW22085   3.510   1.360   3.822 -0.3126  0.3545  0.4816
 6948SOL    HW122086   3.597   1.390   3.794 -0.3602 -0.2506 -0.3038
 6948SOL    HW222087   3.477   1.310   3.748 -0.8069 -0.4874  1.2701
 6949SOL     OW22088   2.929   4.902   1.610 -0.3585 -0.2368  0.4590
 6949SOL    HW122089   3.010   4.946   1.582 -0.1009 -1.3191 -0.5290
 6949SOL    HW222090   2.930   4.909   1.705  0.1768  1.0281  0.3758
 6950SOL     OW22091   5.172   2.884   8.303  0.4041 -0.2882  0.4379
 6950SOL    HW122092   5.174   2.973   8.338  1.5412 -0.7558  1.6030
 6950SOL    HW222093   5.110   2.838   8.360  0.4582 -0.4674  0.3491
 6951SOL     OW22094   3.473   1.409   0.394 -0.2925 -0.4077 -0.6360
 6951SOL    HW122095   3.388   1.435   0.357  0.0690 -1.7457 -2.5058
 6951SOL    HW222096   3.478   1.456   0.477 -0.8972  3.2198 -2.5262
 6952SOL     OW22097   6.306   1.512   6.019  0.3882 -0.1436  0.4050
 6952SOL    HW122098   6.237   1.544   6.076 -0.7136  0.9424 -1.4822
 6952SOL    HW222099   6.360   1.589   6.000  0.2995 -0.3257 -0.6157
 6953SOL     OW22100   7.508   5.296   7.586 -0.0446  0.5810  0.3656
 6953SOL    HW122101   7.519   5.256   7.500 -0.6703 -0.0560  0.5797
 6953SOL    HW222102   7.431   5.352   7.577 -0.0102  0.6439  0.4645
 6954SOL     OW22103   2.908   2.336   8.001 -0.4332 -0.5184 -0.3904
 6954SOL    HW122104   2.844   2.274   8.035 -0.4149 -1.2519 -1.6689
 6954SOL    HW222105   2.992   2.291   8.008  0.1686  0.8848  2.4001
 6955SOL     OW22106   4.825   5.325   5.947  0.2710 -0.1305  0.8290
 6955SOL    HW122107   4.855   5.373   5.869 -0.6863  1.9371  1.7125
 6955SOL    HW222108   4.903   5.276   5.976  1.2691  0.8784 -0.0872
 6956SOL     OW22109   3.092   7.315   3.187  0.5680  0.0365 -0.5935
 6956SOL    HW122110   3.011   7.302   3.139 -0.3106 -1.8686  1.3337
 6956SOL    HW222111   3.153   7.252   3.149  0.1096 -0.9146  0.2260
 6957SOL     OW22112   7.376   5.188   5.906  0.3576  0.3526 -0.2926
 6957SOL    HW122113   7.426   5.265   5.880  0.7937  0.3709  0.5814
 6957SOL    HW222114   7.305   5.222   5.959 -0.6657  0.3364 -1.6338
 6958SOL     OW22115   3.025   2.552   6.821  0.7847 -0.0636 -0.2286
 6958SOL    HW122116   3.028   2.573   6.915 -1.3517  0.3430 -0.2234
 6958SOL    HW222117   3.048   2.634   6.777  0.7459  0.0316 -0.0720
 6959SOL     OW22118   5.531   1.028   5.707  0.4412 -0.0160  0.0694
 6959SOL    HW122119   5.619   1.022   5.670  1.1874 -0.7904  1.9223
 6959SOL    HW222120   5.531   0.967   5.780 -2.2748 -1.5127 -1.0897
 6960SOL     OW22121   1.437   5.961   5.442 -0.1268 -0.0497 -0.2294
 6960SOL    HW122122   1.439   5.866   5.428 -0.5845  0.1084 -1.3971
 6960SOL    HW222123   1.349   5.979   5.473 -0.2666  0.0929 -0.7134
 6961SOL     OW22124   2.110   8.096   7.613  0.2158  0.0781 -0.0405
 6961SOL    HW122125   2.186   8.094   7.554  0.2627  0.8260 -0.0171
 6961SOL    HW222126   2.039   8.056   7.562  0.3360  0.4373 -0.4989
 6962SOL     OW22127   7.997   6.356   5.472  0.6582 -0.1861  0.1804
 6962SOL    HW122128   8.016   6.294   5.543 -0.8710 -1.3854 -0.4296
 6962SOL    HW222129   7.907   6.385   5.489  0.3981 -0.2259 -1.0758
 6963SOL     OW22130   5.334   3.829   2.682  0.5309  0.4323  0.2124
 6963SOL    HW122131   5.429   3.842   2.690  0.5002  2.3253 -2.0497
 6963SOL    HW222132   5.325   3.737   2.657  1.8321  0.5177 -0.6092
 6964SOL     OW22133   7.838   5.891   4.871 -0.0011 -0.4933  0.4084
 6964SOL    HW122134   7.892   5.970   4.883 -1.8352  0.5814  1.8985
 6964SOL    HW222135   7.832   5.881   4.776 -1.8828  2.7183  0.1002
 6965SOL     OW22136   7.847   6.561   4.701 -0.3613 -0.1690 -0.5823
 6965SOL    HW122137   7.889   6.553   4.615 -0.3322 -2.4224 -0.3905
 6965SOL    HW222138   7.920   6.566   4.763 -0.3626  2.6588 -0.7276
 6966SOL     OW22139   2.810   5.910   2.774 -0.6486  0.3865 -0.0147
 6966SOL    HW122140   2.880   5.960   2.815  0.5685 -0.5448 -0.8972
 6966SOL    HW222141   2.835   5.906   2.681 -0.8861 -1.5243 -0.0159
 6967SOL     OW22142   7.036   4.533   4.885  0.0705 -0.6298  0.2091
 6967SOL    HW122143   7.114   4.585   4.903  0.5210 -1.1263 -0.3127
 6967SOL    HW222144   7.061   4.444   4.909 -1.3608 -0.3270  3.1280
 6968SOL     OW22145   1.605   6.620   4.493  0.0253  0.0414  0.4332
 6968SOL    HW122146   1.690   6.622   4.448 -0.2003 -0.2814 -0.0123
 6968SOL    HW222147   1.612   6.548   4.555  0.3261  0.4670  0.8971
 6969SOL     OW22148   8.217   3.733   4.246 -0.2925  0.0821 -0.1983
 6969SOL    HW122149   8.273   3.658   4.267 -1.1307 -0.7055 -0.7031
 6969SOL    HW222150   8.128   3.701   4.263 -0.6232  1.1216  0.0331
 6970SOL     OW22151   1.585   7.961   3.702  0.4421 -0.0618 -0.6260
 6970SOL    HW122152   1.553   7.930   3.617 -0.2675  0.7866 -0.6736
 6970SOL    HW222153   1.509   8.004   3.741  1.9727  3.5613 -1.5018
 6971SOL     OW22154   3.502   2.194   3.415  0.1509 -0.1490 -0.3372
 6971SOL    HW122155   3.538   2.176   3.328  1.9814 -0.7671  0.5252
 6971SOL    HW222156   3.415   2.230   3.398 -0.7641 -3.0788 -2.3457
 6972SOL     OW22157   3.591   4.321   1.495  0.1242  0.2370  0.3858
 6972SOL    HW122158   3.684   4.334   1.477  1.0819 -0.4978  4.2363
 6972SOL    HW222159   3.570   4.236   1.456  0.3442  1.5484 -2.7244
 6973SOL     OW22160   5.236   0.369   4.950  0.3206 -0.0793 -0.2257
 6973SOL    HW122161   5.170   0.327   4.894 -0.4014  0.7068  0.0243
 6973SOL    HW222162   5.317   0.361   4.900  0.3281 -2.3059  0.0796
 6974SOL     OW22163   1.263   6.200   3.684  0.4102 -0.1853 -0.1447
 6974SOL    HW122164   1.206   6.127   3.659  0.9068 -0.4317 -0.5847
 6974SOL    HW222165   1.340   6.190   3.628  0.4673  0.7063 -0.2342
 6975SOL     OW22166   3.002   2.720   3.932  0.4530  0.0954  0.1595
 6975SOL    HW122167   2.915   2.686   3.912  0.2980  0.8863 -0.5402
 6975SOL    HW222168   3.057   2.687   3.861  1.0629 -1.7102  1.4393
 6976SOL     OW22169   6.391   1.077   0.245 -0.1494  0.1444 -0.1458
 6976SOL    HW122170   6.307   1.032   0.238 -1.0395  1.8292 -0.6632
 6976SOL    HW222171   6.393   1.112   0.334  0.4979 -0.8274  0.2263
 6977SOL     OW22172   5.618   0.946   2.156  0.9252  0.2253 -0.6046
 6977SOL    HW122173   5.624   0.937   2.251 -0.1407 -3.7895 -0.8270
 6977SOL    HW222174   5.708   0.935   2.125  0.8178 -2.1767 -0.2150
 6978SOL     OW22175   7.437   3.654   4.729 -0.5429  0.4801 -0.2533
 6978SOL    HW122176   7.511   3.602   4.758 -1.3224 -0.7980 -0.5179
 6978SOL    HW222177   7.434   3.728   4.790  0.3740  0.0522  0.3155
 6979SOL     OW22178   4.953   6.203   7.089 -0.0483  0.1747 -0.6697
 6979SOL    HW122179   4.868   6.164   7.108 -0.1277  0.6831  0.0365
 6979SOL    HW222180   4.979   6.245   7.171  0.4816  0.7718 -1.1390
 6980SOL     OW22181   5.522   8.220   3.471 -0.4187 -0.0717 -0.0450
 6980SOL    HW122182   5.579   8.246   3.544 -1.1176 -1.2081  0.9301
 6980SOL    HW222183   5.435   8.217   3.510 -0.5147 -2.6578 -0.4094
 6981SOL     OW22184   5.935   5.602   5.570  0.2465  0.3116 -0.6272
 6981SOL    HW122185   5.961   5.592   5.661 -3.8389 -0.0283  0.6023
 6981SOL    HW222186   5.964   5.521   5.527  1.5680  0.1715  0.5245
 6982SOL     OW22187   7.107   6.992   4.052  0.0410  0.1274 -0.1389
 6982SOL    HW122188   7.136   7.078   4.083  0.2502 -0.2655  0.7652
 6982SOL    HW222189   7.164   6.973   3.977 -0.6700  1.2157 -0.9753
 6983SOL     OW22190   6.506   1.578   4.624 -0.0511  0.5487 -0.1786
 6983SOL    HW122191   6.519   1.669   4.648  0.3686  0.2277  0.8556
 6983SOL    HW222192   6.412   1.570   4.607 -0.3030  0.8815  1.0201
 6984SOL     OW22193   4.232   7.106   8.281 -0.2113 -0.5249 -0.3206
 6984SOL    HW122194   4.310   7.082   8.332  0.3218  1.1196 -0.3421
 6984SOL    HW222195   4.241   7.055   8.200  0.4610 -0.8977 -0.0195
 6985SOL     OW22196   7.091   5.492   1.678  0.0874 -0.1275  0.0204
 6985SOL    HW122197   7.120   5.411   1.721  1.4324  0.4405  0.2313
 6985SOL    HW222198   7.126   5.486   1.589 -1.1272 -0.4740 -0.4315
 6986SOL     OW22199   0.160   3.326   1.707  0.0254 -0.9235 -0.6513
 6986SOL    HW122200   0.145   3.390   1.637  0.5263 -1.9640 -1.7334
 6986SOL    HW222201   0.149   3.241   1.664 -0.9720 -1.5685  0.8493
 6987SOL     OW22202   0.133   4.048   7.706  0.1978  0.6611 -0.6077
 6987SOL    HW122203   0.164   4.120   7.762  0.4810  0.0757 -0.0148
 6987SOL    HW222204   0.208   4.028   7.649  0.0270  1.0168 -0.9628
 6988SOL     OW22205   3.104   2.357   2.923 -0.4349 -0.5291 -0.0926
 6988SOL    HW122206   3.057   2.274   2.929 -0.4612 -0.5789 -1.0338
 6988SOL    HW222207   3.099   2.382   2.831  0.2959  0.1000  0.0286
 6989SOL     OW22208   5.100   7.970   4.889  0.5363  0.4349 -0.0357
 6989SOL    HW122209   5.127   7.896   4.944 -1.5793 -0.1296  0.3062
 6989SOL    HW222210   5.105   7.937   4.800 -2.3490 -0.8669  0.2074
 6990SOL     OW22211   5.957   7.475   2.174 -0.0185 -0.0209 -0.3069
 6990SOL    HW122212   5.905   7.402   2.207  1.2536  0.6994  3.6038
 6990SOL    HW222213   5.894   7.534   2.133 -1.6115 -1.2940  0.2717
 6991SOL     OW22214   8.086   5.216   8.286  0.0195 -0.1908  0.0818
 6991SOL    HW122215   8.082   5.275   8.361 -0.4824  0.4336 -0.4268
 6991SOL    HW222216   8.057   5.131   8.321  0.0123  0.0419  0.6439
 6992SOL     OW22217   1.587   7.921   6.678  0.3194 -0.0185 -0.2654
 6992SOL    HW122218   1.653   7.888   6.739  1.0402  0.8047 -0.5944
 6992SOL    HW222219   1.633   7.932   6.595 -0.0800  1.0668 -0.3588
 6993SOL     OW22220   2.298   4.542   4.810 -0.3653 -0.2114 -0.0309
 6993SOL    HW122221   2.328   4.482   4.741 -2.9865 -0.5703 -0.9349
 6993SOL    HW222222   2.316   4.629   4.775  1.6116 -0.4240  0.4095
 6994SOL     OW22223   2.614   4.030   7.589 -0.8379 -0.5583 -0.2317
 6994SOL    HW122224   2.587   4.093   7.656  0.6209  0.5307 -0.6310
 6994SOL    HW222225   2.581   3.946   7.620 -1.2122  0.1134  1.2432
 6995SOL     OW22226   5.542   6.746   5.735  0.2415  0.4198 -0.4235
 6995SOL    HW122227   5.463   6.693   5.730  0.9522 -0.6285 -0.5309
 6995SOL    HW222228   5.529   6.816   5.670 -0.5534  0.2020 -0.4919
 6996SOL     OW22229   7.226   7.482   4.401  0.1446  0.4216 -0.9126
 6996SOL    HW122230   7.275   7.463   4.481 -4.3057 -0.7835  1.7144
 6996SOL    HW222231   7.244   7.408   4.343  0.3326 -0.6960  0.5514
 6997SOL     OW22232   0.547   3.476   2.118 -0.3516  0.7607 -0.1673
 6997SOL    HW122233   0.576   3.556   2.160 -1.3331  0.3556  1.3037
 6997SOL    HW222234   0.455   3.468   2.143 -0.1548 -1.0329  0.0328
 6998SOL     OW22235   2.097   4.966   0.436  0.1679 -0.4051  0.1169
 6998SOL    HW122236   2.164   4.965   0.368  0.2128 -0.5451  0.1639
 6998SOL    HW222237   2.026   5.019   0.399  0.4833  0.1033  0.2392
 6999SOL     OW22238   7.765   0.656   8.188 -0.0811 -0.9184  0.3677
 6999SOL    HW122239   7.670   0.665   8.194  0.0162 -0.9610  2.5240
 6999SOL    HW222240   7.787   0.590   8.254  1.4619 -0.7549  0.0405
 7000SOL     OW22241   7.210   6.040   8.125  0.1572  0.1273  0.5896
 7000SOL    HW122242   7.220   5.950   8.096 -0.5831  0.5853 -1.1479
 7000SOL    HW222243   7.141   6.036   8.192 -0.7693 -0.4324 -0.3735
 7001SOL     OW22244   3.953   2.239   3.324  0.0113  0.0353 -0.1507
 7001SOL    HW122245   3.946   2.263   3.231  0.7445 -1.5351 -0.6274
 7001SOL    HW222246   4.027   2.291   3.356  0.2854 -0.0395 -0.6558
 7002SOL     OW22247   1.127   3.164   7.433  0.4346 -0.3137 -0.1893
 7002SOL    HW122248   1.198   3.167   7.497  0.9651  0.4662 -0.7987
 7002SOL    HW222249   1.063   3.104   7.471  1.0914 -0.4637  0.7051
 7003SOL     OW22250   6.586   2.341   8.014  0.2560  0.5151 -0.2597
 7003SOL    HW122251   6.499   2.380   8.005  0.1854  0.4984  0.3546
 7003SOL    HW222252   6.584   2.265   7.956  0.0382  0.8111 -0.6455
 7004SOL     OW22253   1.191   0.418   3.254  0.4670 -0.1800  0.1386
 7004SOL    HW122254   1.163   0.352   3.191 -0.1508  1.9065 -1.8261
 7004SOL    HW222255   1.136   0.404   3.331  0.1133 -1.7075 -0.3891
 7005SOL     OW22256   7.612   8.161   7.014  0.0207 -0.9131 -0.0926
 7005SOL    HW122257   7.682   8.095   7.015  1.0345  0.1414  0.2213
 7005SOL    HW222258   7.658   8.244   7.000 -1.0868 -0.0942  0.9935
 7006SOL     OW22259   5.009   8.020   1.215  0.0859 -0.3735  0.3718
 7006SOL    HW122260   5.023   7.927   1.232 -0.5615 -0.6856 -0.7944
 7006SOL    HW222261   4.979   8.055   1.299 -0.5753 -1.3974  0.5660
 7007SOL     OW22262   7.348   7.189   3.640 -0.4966  0.1685 -0.2716
 7007SOL    HW122263   7.334   7.150   3.554 -0.9595 -1.1207  0.3884
 7007SOL    HW222264   7.443   7.201   3.645 -0.1063 -2.8362  0.3476
 7008SOL     OW22265   4.973   6.495   7.384  0.1233 -0.2412  0.2447
 7008SOL    HW122266   5.069   6.486   7.381  0.1536  0.0267  0.3341
 7008SOL    HW222267   4.944   6.420   7.436  0.2201 -0.7429 -0.4342
 7009SOL     OW22268   3.312   6.838   3.240  0.1558 -0.4378 -0.2455
 7009SOL    HW122269   3.337   6.872   3.327  1.9677 -2.9314  0.2640
 7009SOL    HW222270   3.268   6.755   3.258 -0.2063 -0.5679 -1.6665
 7010SOL     OW22271   2.126   5.522   0.803 -0.5572  0.1601 -0.2784
 7010SOL    HW122272   2.140   5.601   0.856  0.1035 -0.0196 -0.1864
 7010SOL    HW222273   2.071   5.466   0.858 -1.0404  0.5561 -0.3496
 7011SOL     OW22274   6.526   5.179   0.499  0.4293  0.3613  0.3312
 7011SOL    HW122275   6.473   5.228   0.562 -1.2564  0.9299 -1.4983
 7011SOL    HW222276   6.570   5.246   0.447  1.6688 -0.1065  0.7480
 7012SOL     OW22277   4.751   1.331   8.068 -0.5107  0.0732 -0.1891
 7012SOL    HW122278   4.763   1.423   8.092  1.4139 -0.4053  0.7239
 7012SOL    HW222279   4.749   1.331   7.972  1.6119  0.8136 -0.2405
 7013SOL     OW22280   5.698   7.407   0.405  0.0237 -0.3350  0.0171
 7013SOL    HW122281   5.741   7.466   0.344  0.1225 -1.4904 -1.0628
 7013SOL    HW222282   5.710   7.320   0.366 -2.0735 -0.8276  0.3817
 7014SOL     OW22283   0.243   5.944   1.528 -0.1779  0.3546 -0.2487
 7014SOL    HW122284   0.339   5.936   1.524 -0.3056 -1.3420 -0.3647
 7014SOL    HW222285   0.215   5.930   1.437 -0.6891 -1.7935  0.2088
 7015SOL     OW22286   6.709   0.033   4.192  0.0010  0.3978 -0.1975
 7015SOL    HW122287   6.681  -0.055   4.217 -0.2212  0.8075  0.9988
 7015SOL    HW222288   6.751   0.068   4.270 -0.0159  1.4015 -0.6359
 7016SOL     OW22289   7.226   5.388   1.438  0.2956  0.7137 -0.3356
 7016SOL    HW122290   7.253   5.335   1.363 -1.3251 -0.3882 -0.1772
 7016SOL    HW222291   7.299   5.382   1.500  0.9030  0.1887 -1.0946
 7017SOL     OW22292   5.735   6.283   3.931  0.4949 -0.6184 -0.1434
 7017SOL    HW122293   5.700   6.276   4.020  0.3905  0.1202 -0.1186
 7017SOL    HW222294   5.714   6.200   3.890 -1.6220 -0.0660 -0.2421
 7018SOL     OW22295   4.241   0.894   7.532  0.4826  0.7019 -0.0442
 7018SOL    HW122296   4.204   0.815   7.570 -0.8291  1.4405  0.2378
 7018SOL    HW222297   4.332   0.871   7.512  0.2555 -0.7039  0.5079
 7019SOL     OW22298   2.257   4.227   5.854 -0.4865 -0.3324 -0.2860
 7019SOL    HW122299   2.213   4.267   5.929 -1.0648  1.6177 -1.6021
 7019SOL    HW222300   2.185   4.199   5.797 -0.0594  0.6160 -1.3084
 7020SOL     OW22301   5.433   1.745   3.756 -0.1849  0.3694  0.5057
 7020SOL    HW122302   5.410   1.838   3.757 -1.4310  0.0745  1.0914
 7020SOL    HW222303   5.380   1.709   3.684  0.4310  0.1533  0.1638
 7021SOL     OW22304   0.493   2.679   1.442 -0.2102 -0.1446 -0.3060
 7021SOL    HW122305   0.481   2.749   1.506 -1.5774  0.1347 -0.8689
 7021SOL    HW222306   0.419   2.686   1.383  0.8564 -0.6160 -1.7446
 7022SOL     OW22307   6.050   0.923   8.141 -0.5414 -0.5103  0.0717
 7022SOL    HW122308   6.058   0.833   8.174 -1.0451 -0.4946  0.2502
 7022SOL    HW222309   5.973   0.921   8.084  1.4912 -1.0059 -2.7592
 7023SOL     OW22310   7.688   4.827   4.323  0.4338 -0.4010  0.0724
 7023SOL    HW122311   7.613   4.853   4.270 -1.0066 -1.3568  1.5721
 7023SOL    HW222312   7.762   4.827   4.263 -0.6559  1.1789 -1.2832
 7024SOL     OW22313   6.994   0.244   3.087  0.5693  0.1245  0.1389
 7024SOL    HW122314   6.980   0.197   3.170  0.3240 -0.1737 -0.0723
 7024SOL    HW222315   7.081   0.216   3.058 -0.5310 -2.0172 -1.1785
 7025SOL     OW22316   3.894   0.869   4.364  0.1625  0.1550 -0.4240
 7025SOL    HW122317   3.875   0.963   4.369 -0.4892  0.1577 -2.5103
 7025SOL    HW222318   3.978   0.859   4.409 -0.8593  1.3715  1.8261
 7026SOL     OW22319   0.284   6.400   2.281 -0.5044 -0.1207 -0.5202
 7026SOL    HW122320   0.361   6.356   2.317  0.4183 -0.0784 -2.3663
 7026SOL    HW222321   0.299   6.493   2.300 -0.1304 -0.1177 -0.8274
 7027SOL     OW22322   0.364   7.253   6.625  0.5041  0.4361  0.1104
 7027SOL    HW122323   0.301   7.224   6.691  0.2658 -1.4347 -0.9104
 7027SOL    HW222324   0.339   7.206   6.546  1.3208  2.0062 -1.1060
 7028SOL     OW22325   6.415   7.882   6.930 -0.0508  0.1910 -0.2042
 7028SOL    HW122326   6.410   7.892   7.025  1.3249  0.2432 -0.1289
 7028SOL    HW222327   6.325   7.867   6.903 -0.5768  1.1063  1.0009
 7029SOL     OW22328   4.022   1.533   0.533  0.9792 -0.7964  0.3225
 7029SOL    HW122329   3.982   1.553   0.618  2.3665 -0.0015  0.8131
 7029SOL    HW222330   3.965   1.466   0.495 -0.5167 -0.0682  1.2112
 7030SOL     OW22331   4.505   1.836   5.968 -0.3250  0.3023  0.2040
 7030SOL    HW122332   4.508   1.916   6.019 -0.4994 -0.3920  1.3105
 7030SOL    HW222333   4.419   1.837   5.927 -0.7764  0.1180  1.1382
 7031SOL     OW22334   6.568   4.442   3.579 -0.2449  0.4108 -0.0928
 7031SOL    HW122335   6.494   4.497   3.551 -0.3848  1.0646  1.4985
 7031SOL    HW222336   6.537   4.400   3.659 -0.1615 -2.0935 -1.3259
 7032SOL     OW22337   6.002   0.709   4.803 -0.1821  0.3297 -0.3218
 7032SOL    HW122338   5.939   0.650   4.844  0.2099 -0.5185 -0.9149
 7032SOL    HW222339   6.067   0.651   4.764  1.6461  1.2221  1.3297
 7033SOL     OW22340   7.039   4.350   0.593 -0.3315 -0.2796  0.9906
 7033SOL    HW122341   7.113   4.291   0.578 -1.1417 -1.0402 -0.0101
 7033SOL    HW222342   7.080   4.435   0.608  0.7988 -0.9000  1.5293
 7034SOL     OW22343   0.902   2.338   2.658 -0.3352 -0.1355  0.2687
 7034SOL    HW122344   0.914   2.395   2.582  0.0157  0.3232  0.6698
 7034SOL    HW222345   0.990   2.320   2.689 -0.3601 -1.9765 -0.6490
 7035SOL     OW22346   2.623   7.572   1.761  0.1823 -0.2133 -0.5525
 7035SOL    HW122347   2.559   7.563   1.691  1.0405 -2.0392 -1.1260
 7035SOL    HW222348   2.687   7.503   1.744  1.0547  0.1092  1.3349
 7036SOL     OW22349   3.164   4.522   6.459 -0.1259 -0.5279 -0.2226
 7036SOL    HW122350   3.101   4.450   6.462  0.1496 -0.7606  0.1212
 7036SOL    HW222351   3.176   4.547   6.551  1.8295 -1.8652 -0.0683
 7037SOL     OW22352   2.697   1.453   4.673  0.0037  0.7099 -0.7205
 7037SOL    HW122353   2.759   1.519   4.642 -0.3592  1.9178  1.0587
 7037SOL    HW222354   2.752   1.381   4.705  0.4497  1.0498 -0.7232
 7038SOL     OW22355   2.982   5.917   4.242  0.1656 -0.1445  0.1780
 7038SOL    HW122356   2.907   5.859   4.230  1.0789 -1.4256  0.6026
 7038SOL    HW222357   2.943   6.004   4.251 -1.1028 -0.4048 -2.3681
 7039SOL     OW22358   1.307   5.946   1.444 -0.5464  0.2672  0.6456
 7039SOL    HW122359   1.367   6.012   1.478  2.1518 -1.2991 -0.9406
 7039SOL    HW222360   1.280   5.980   1.359  0.7604 -0.5753 -0.1240
 7040SOL     OW22361   7.049   2.469   1.739  0.1074 -0.1503  0.4254
 7040SOL    HW122362   7.018   2.380   1.756 -1.6240  0.0228 -1.5633
 7040SOL    HW222363   7.055   2.475   1.644 -1.1858  2.2857  0.4360
 7041SOL     OW22364   6.494   4.365   3.829  0.2640  0.0264  0.1792
 7041SOL    HW122365   6.542   4.289   3.863  1.6819  0.5886 -0.5540
 7041SOL    HW222366   6.402   4.343   3.844  0.6676 -1.7480  0.1584
 7042SOL     OW22367   3.493   0.379   5.702 -0.1323  0.5747 -0.6800
 7042SOL    HW122368   3.435   0.454   5.714  1.9825  2.1469  0.0144
 7042SOL    HW222369   3.513   0.350   5.791 -0.2254 -0.2478 -0.9249
 7043SOL     OW22370   5.735   3.454   0.344  0.1888 -0.6480 -0.0756
 7043SOL    HW122371   5.761   3.514   0.414 -0.6194 -1.3819  0.8608
 7043SOL    HW222372   5.789   3.377   0.357  0.8232 -0.3615 -0.9404
 7044SOL     OW22373   0.920   8.292   2.856  0.3143 -0.0940  0.1910
 7044SOL    HW122374   0.939   8.367   2.800 -0.9137  0.3338  0.3476
 7044SOL    HW222375   0.834   8.262   2.828  0.9342 -1.6703 -0.1075
 7045SOL     OW22376   6.551   5.122   6.567  0.2369  0.1580 -0.1229
 7045SOL    HW122377   6.498   5.157   6.495 -1.5523 -1.3820  0.3924
 7045SOL    HW222378   6.497   5.135   6.645  0.4100 -1.7862  0.3576
 7046SOL     OW22379   6.032   6.276   6.750 -0.4185 -0.1214 -0.2085
 7046SOL    HW122380   6.111   6.323   6.726  0.5755 -0.4220  2.3652
 7046SOL    HW222381   6.048   6.186   6.721  0.1821 -0.1817  0.3149
 7047SOL     OW22382   4.147   6.260   0.053 -0.2356  0.0219  1.2909
 7047SOL    HW122383   4.063   6.280   0.011  1.3993 -1.9919 -3.2447
 7047SOL    HW222384   4.188   6.346   0.066 -0.9801  0.7476 -0.9802
 7048SOL     OW22385   7.311   2.458   4.182 -0.3396  0.5731 -0.0253
 7048SOL    HW122386   7.235   2.443   4.126 -1.3541  2.4782  0.8003
 7048SOL    HW222387   7.376   2.395   4.151 -1.8049 -0.2306 -1.5703
 7049SOL     OW22388   1.292   6.866   6.994 -0.0316  0.4024 -0.0748
 7049SOL    HW122389   1.383   6.841   7.005  0.0204  0.1452 -1.0386
 7049SOL    HW222390   1.294   6.962   6.986  0.0477  0.4856  0.8436
 7050SOL     OW22391   3.608   3.412   1.440 -0.9060  0.0597 -0.4924
 7050SOL    HW122392   3.616   3.499   1.401 -1.2758  0.7312  0.8903
 7050SOL    HW222393   3.556   3.427   1.519 -4.0316 -1.9520 -2.0561
 7051SOL     OW22394   3.251   4.188   6.309 -0.2186 -0.0036 -0.3097
 7051SOL    HW122395   3.332   4.168   6.262 -0.5744 -0.3449 -0.7871
 7051SOL    HW222396   3.274   4.182   6.402 -0.0371 -1.5479 -0.4359
 7052SOL     OW22397   4.690   0.564   1.549  0.0408 -0.2337  0.2063
 7052SOL    HW122398   4.776   0.576   1.591  0.2758 -2.8765  0.5400
 7052SOL    HW222399   4.706   0.588   1.457  0.5426  1.5591  0.7394
 7053SOL     OW22400   3.529   1.265   1.968 -0.0320  0.0111  0.5273
 7053SOL    HW122401   3.541   1.171   1.959 -0.0445  0.1431 -0.9960
 7053SOL    HW222402   3.578   1.289   2.047  2.6848 -0.7661 -0.8965
 7054SOL     OW22403   2.374   0.683   1.281  0.0713 -0.2456  0.0725
 7054SOL    HW122404   2.307   0.616   1.275  0.7913 -1.0847  1.3747
 7054SOL    HW222405   2.348   0.738   1.354 -0.2209  0.5847 -0.6409
 7055SOL     OW22406   0.242   4.566   5.774  0.0085 -0.1940  0.4726
 7055SOL    HW122407   0.238   4.487   5.720 -0.1866  0.0516  0.1302
 7055SOL    HW222408   0.170   4.555   5.837 -0.4098  0.0026  0.0304
 7056SOL     OW22409   3.969   6.198   1.571  0.8312 -0.5228 -0.0158
 7056SOL    HW122410   3.888   6.210   1.621  0.4704  1.3447 -0.9857
 7056SOL    HW222411   4.019   6.278   1.589  0.6158  0.2784 -2.7007
 7057SOL     OW22412   5.195   1.783   5.388 -0.8528  0.3287  0.6440
 7057SOL    HW122413   5.136   1.821   5.324  0.7086  1.4730 -0.1574
 7057SOL    HW222414   5.245   1.717   5.339 -0.6261  0.2229  1.0140
 7058SOL     OW22415   6.697   4.805   6.032 -0.1525  0.8407  0.0747
 7058SOL    HW122416   6.785   4.769   6.021 -0.1366  1.2618 -1.3693
 7058SOL    HW222417   6.695   4.882   5.974 -2.0271 -0.1850 -1.2799
 7059SOL     OW22418   4.886   2.658   3.209  0.4043 -0.4367  0.3627
 7059SOL    HW122419   4.871   2.637   3.117  1.3880  0.3256  0.0122
 7059SOL    HW222420   4.935   2.584   3.244  1.6104  0.0754 -0.2047
 7060SOL     OW22421   5.394   2.956   5.200 -0.5846 -0.3572 -0.1583
 7060SOL    HW122422   5.415   2.953   5.293 -0.0109 -0.0430 -0.2752
 7060SOL    HW222423   5.474   2.989   5.158 -1.2781  0.7541 -0.6246
 7061SOL     OW22424   2.738   0.489   2.140  0.4796 -0.1564  0.6165
 7061SOL    HW122425   2.790   0.542   2.199  0.1118  1.3564 -0.3978
 7061SOL    HW222426   2.802   0.442   2.087  0.8187  1.0662 -0.0659
 7062SOL     OW22427   2.184   5.153   4.701 -0.5725  0.0803  0.6413
 7062SOL    HW122428   2.157   5.070   4.663 -1.6918  0.3673  0.7876
 7062SOL    HW222429   2.104   5.190   4.738 -0.6127  2.3300 -1.5050
 7063SOL     OW22430   7.438   6.228   1.408  0.2416  0.6572 -0.3380
 7063SOL    HW122431   7.407   6.247   1.320  0.2811  1.8206 -0.1142
 7063SOL    HW222432   7.410   6.138   1.425  3.9119 -1.1470 -3.1262
 7064SOL     OW22433   7.604   6.679   3.529  0.4023 -0.6289  0.0071
 7064SOL    HW122434   7.698   6.667   3.519  0.2217  0.2152 -3.2193
 7064SOL    HW222435   7.569   6.589   3.531  1.0507 -0.9459 -1.6904
 7065SOL     OW22436   2.478   6.460   3.283 -0.4380  0.0038  0.8964
 7065SOL    HW122437   2.499   6.480   3.191 -1.1519 -0.9836  0.5136
 7065SOL    HW222438   2.562   6.439   3.322 -0.0906  0.6899  0.5396
 7066SOL     OW22439   3.101   3.249   5.024 -0.4569 -0.3749 -0.8205
 7066SOL    HW122440   3.064   3.173   4.978  0.2865 -0.8458 -0.6510
 7066SOL    HW222441   3.041   3.264   5.096 -1.5521  0.2790 -1.8555
 7067SOL     OW22442   5.817   2.530   1.444 -0.0951  0.6543  0.4444
 7067SOL    HW122443   5.896   2.584   1.443  0.5382 -0.2719 -0.0207
 7067SOL    HW222444   5.772   2.553   1.362 -0.3677  1.2741  0.7702
 7068SOL     OW22445   1.052   7.044   3.839 -0.4031 -0.0427  0.2650
 7068SOL    HW122446   0.998   7.078   3.911 -2.5081  0.1985 -1.3652
 7068SOL    HW222447   1.051   7.114   3.774  1.4670 -0.2648 -0.0263
 7069SOL     OW22448   5.891   7.101   1.731 -0.2191 -0.3886  0.0154
 7069SOL    HW122449   5.842   7.181   1.747  0.1032  0.0675 -1.2009
 7069SOL    HW222450   5.824   7.033   1.725 -0.7558  0.2712 -1.8749
 7070SOL     OW22451   8.217   8.042   5.076 -0.4533 -0.0235  0.1881
 7070SOL    HW122452   8.279   8.088   5.133 -1.2353  0.1553  0.9082
 7070SOL    HW222453   8.131   8.072   5.106 -0.9857 -1.9270  0.6375
 7071SOL     OW22454   1.998   3.786   2.155 -0.2325  0.0483 -0.0357
 7071SOL    HW122455   1.986   3.742   2.071  0.5670 -2.2030  1.0073
 7071SOL    HW222456   1.916   3.771   2.203  0.3083 -0.9309  0.5933
 7072SOL     OW22457   6.761   5.297   5.428 -0.6945 -0.2915  0.2714
 7072SOL    HW122458   6.674   5.282   5.467 -1.4729  0.1111 -1.2623
 7072SOL    HW222459   6.747   5.285   5.334  1.3138 -1.9810  0.1497
 7073SOL     OW22460   7.340   1.795   2.167  0.2420 -0.1148 -0.0843
 7073SOL    HW122461   7.433   1.791   2.146  0.2127  1.3132 -0.5181
 7073SOL    HW222462   7.311   1.878   2.130 -0.8400  0.2548  1.5866
 7074SOL     OW22463   3.613   2.946   3.580 -0.4885 -0.0081  0.0058
 7074SOL    HW122464   3.691   2.929   3.527  0.3087 -0.3136  1.2492
 7074SOL    HW222465   3.609   3.042   3.585  1.1274  0.0076  1.7960
 7075SOL     OW22466   0.944   2.755   1.954  0.5426 -0.4962  0.7793
 7075SOL    HW122467   1.011   2.687   1.948  1.1339  0.0630  0.9108
 7075SOL    HW222468   0.910   2.747   2.043 -0.6311 -1.7656  0.2187
 7076SOL     OW22469   0.180   7.164   0.941  0.1472  0.1592  0.0623
 7076SOL    HW122470   0.173   7.256   0.917  1.2522  0.5305  1.0984
 7076SOL    HW222471   0.223   7.165   1.027 -1.5227 -1.2365  0.9319
 7077SOL     OW22472   0.175   3.009   4.219  0.5473  0.2921  0.4490
 7077SOL    HW122473   0.127   2.930   4.243  2.2224 -1.2002 -0.9823
 7077SOL    HW222474   0.139   3.034   4.134  0.4687  0.6931  0.5985
 7078SOL     OW22475   6.386   5.031   5.039 -0.4679 -0.4846  0.2452
 7078SOL    HW122476   6.477   5.014   5.016 -0.5570  0.1446 -0.5970
 7078SOL    HW222477   6.390   5.075   5.124  0.0184 -0.3199  0.1371
 7079SOL     OW22478   1.191   4.403   7.704 -0.2059 -0.2886 -0.2879
 7079SOL    HW122479   1.113   4.440   7.746 -0.2384  0.9909 -1.4467
 7079SOL    HW222480   1.185   4.310   7.722 -1.9669 -0.2061 -0.2763
 7080SOL     OW22481   4.170   6.750   4.851 -0.2805  0.1783  0.1209
 7080SOL    HW122482   4.244   6.727   4.908 -0.9850  2.2562  1.9630
 7080SOL    HW222483   4.121   6.816   4.901 -1.2257  1.7020 -2.6862
 7081SOL     OW22484   0.978   6.301   0.707 -0.1214  0.2325  0.1793
 7081SOL    HW122485   1.073   6.314   0.709 -0.2259  0.8757  2.9300
 7081SOL    HW222486   0.942   6.390   0.709 -0.8109  0.0094 -1.3533
 7082SOL     OW22487   1.794   1.117   6.772 -0.2021 -0.0210  0.2714
 7082SOL    HW122488   1.755   1.158   6.694  1.2168  0.3466 -0.2763
 7082SOL    HW222489   1.733   1.048   6.796 -0.9645  0.2538 -0.8203
 7083SOL     OW22490   8.128   0.966   2.530 -0.3191  0.6268  0.3907
 7083SOL    HW122491   8.091   1.007   2.607  1.0427  1.1829  0.7702
 7083SOL    HW222492   8.097   0.876   2.533 -0.0680  0.5841  1.7187
 7084SOL     OW22493   2.327   0.906   3.456  0.3417  0.2466 -0.1867
 7084SOL    HW122494   2.233   0.916   3.467  0.3167 -1.4208  1.2854
 7084SOL    HW222495   2.361   0.899   3.545  1.7828  0.0865 -0.7325
 7085SOL     OW22496   3.365   7.755   7.782 -0.8196  0.6090  0.4125
 7085SOL    HW122497   3.377   7.849   7.795  1.8381  0.6307 -1.8396
 7085SOL    HW222498   3.314   7.748   7.701 -0.2961  0.0732  0.1322
 7086SOL     OW22499   7.325   0.837   7.653  0.2761  0.6645 -0.2072
 7086SOL    HW122500   7.286   0.763   7.700 -2.4241  0.4987 -2.5522
 7086SOL    HW222501   7.416   0.813   7.641 -0.5414 -2.2716 -0.8724
 7087SOL     OW22502   3.632   2.486   1.712 -0.2336  0.4268 -0.1542
 7087SOL    HW122503   3.611   2.412   1.769  0.0903 -0.7433 -1.5352
 7087SOL    HW222504   3.705   2.455   1.658  1.4212  2.5393  0.7933
 7088SOL     OW22505   4.988   7.891   2.275 -0.7440 -0.3107 -0.2777
 7088SOL    HW122506   5.069   7.876   2.227 -1.1866 -0.0632 -1.1216
 7088SOL    HW222507   5.014   7.939   2.353  0.2781 -2.6029  0.8493
 7089SOL     OW22508   4.435   7.218   3.257  0.0756  0.4770  0.4538
 7089SOL    HW122509   4.384   7.137   3.251  1.4122 -0.2313 -2.0154
 7089SOL    HW222510   4.492   7.205   3.332 -1.0056 -0.1156  1.1818
 7090SOL     OW22511   0.879   2.886   0.459  0.1271  0.3442  0.1731
 7090SOL    HW122512   0.886   2.850   0.548 -0.4474  0.5236  0.2970
 7090SOL    HW222513   0.887   2.981   0.472 -1.6293  0.5016  0.2372
 7091SOL     OW22514   1.306   5.079   7.068 -0.0629  0.3948 -0.5779
 7091SOL    HW122515   1.256   5.004   7.037  0.7162 -1.0530  1.5670
 7091SOL    HW222516   1.398   5.052   7.063  0.3573  1.9268 -1.6371
 7092SOL     OW22517   4.058   5.216   0.326 -0.0708 -0.1042  0.4437
 7092SOL    HW122518   4.032   5.293   0.275 -1.2254 -0.9506 -0.2770
 7092SOL    HW222519   3.976   5.171   0.346  0.6012 -1.3042  0.5967
 7093SOL     OW22520   4.402   0.874   6.873  0.0440  0.3303 -0.6363
 7093SOL    HW122521   4.404   0.803   6.809  0.6740  0.1660 -0.4393
 7093SOL    HW222522   4.457   0.844   6.945 -0.0533  0.8280 -0.3446
 7094SOL     OW22523   3.469   5.679   0.745 -0.4224 -0.2949 -0.0651
 7094SOL    HW122524   3.410   5.673   0.670 -1.4590 -0.1144  0.7280
 7094SOL    HW222525   3.428   5.742   0.803  1.0971  0.6303  0.0228
 7095SOL     OW22526   1.769   6.046   5.819  0.1955  0.4187 -0.0900
 7095SOL    HW122527   1.757   6.014   5.730 -0.2343 -2.5492  0.9845
 7095SOL    HW222528   1.721   6.129   5.821 -1.0921 -0.2419 -2.1908
 7096SOL     OW22529   3.243   0.382   8.242 -0.4718 -0.1362 -0.5390
 7096SOL    HW122530   3.256   0.304   8.295  0.8155 -0.5128 -1.3641
 7096SOL    HW222531   3.283   0.453   8.293 -1.5738 -0.0349  0.1751
 7097SOL     OW22532   0.721   0.571   2.823 -0.3787 -0.6327  0.0461
 7097SOL    HW122533   0.720   0.484   2.782  2.6651 -1.1310  0.8685
 7097SOL    HW222534   0.747   0.554   2.914 -0.8706  1.0412  0.5156
 7098SOL     OW22535   2.978   5.258   0.308  0.2459  0.2286 -0.1396
 7098SOL    HW122536   2.963   5.267   0.214  0.1335  1.7231  0.0119
 7098SOL    HW222537   3.035   5.332   0.331  0.9500 -0.5977  0.8183
 7099SOL     OW22538   5.429   7.113   2.332 -0.3302  0.1127  0.4115
 7099SOL    HW122539   5.480   7.162   2.396  0.9343 -1.6452  0.7948
 7099SOL    HW222540   5.339   7.118   2.364  0.0517  0.6212  1.4306
 7100SOL     OW22541   1.566   7.097   0.964 -0.6581  0.1085  0.6837
 7100SOL    HW122542   1.613   7.014   0.959 -0.7112  0.0292  1.4860
 7100SOL    HW222543   1.474   7.074   0.952 -0.6059  0.1400  0.1962
 7101SOL     OW22544   6.151   0.456   1.424 -0.2132 -0.9123 -0.1612
 7101SOL    HW122545   6.185   0.545   1.429 -0.0626 -0.9209 -0.9947
 7101SOL    HW222546   6.133   0.432   1.515 -1.6968  0.5060 -0.0755
 7102SOL     OW22547   1.333   0.022   7.447  0.2291  0.7948 -0.0860
 7102SOL    HW122548   1.411   0.072   7.425  0.6554  0.0697 -0.2498
 7102SOL    HW222549   1.260   0.076   7.418  0.7546  0.2108 -2.6021
 7103SOL     OW22550   6.608   0.741   6.012  0.4302  0.0677  0.5395
 7103SOL    HW122551   6.697   0.775   6.018 -0.0728  1.4540  0.3870
 7103SOL    HW222552   6.609   0.686   5.933  0.2598  2.9544 -1.5694
 7104SOL     OW22553   6.493   4.844   3.461  0.2167  0.0983  0.8193
 7104SOL    HW122554   6.476   4.853   3.367  0.0131  0.8938  0.9326
 7104SOL    HW222555   6.511   4.933   3.491 -0.6367 -0.0244  1.7224
 7105SOL     OW22556   1.366   7.830   5.393 -0.2531 -0.6715 -0.5414
 7105SOL    HW122557   1.317   7.905   5.358 -0.7286 -0.4075  0.6541
 7105SOL    HW222558   1.301   7.761   5.403 -0.8090  0.2038  2.6463
 7106SOL     OW22559   4.386   7.264   3.920  0.0478  0.1192  0.0671
 7106SOL    HW122560   4.475   7.286   3.892  0.5200 -0.5213  1.0434
 7106SOL    HW222561   4.375   7.311   4.003 -0.1098 -0.7122  0.5236
 7107SOL     OW22562   3.887   1.328   5.065 -0.0108  0.4322 -0.0068
 7107SOL    HW122563   3.880   1.253   5.125  1.6822 -0.5458 -0.9914
 7107SOL    HW222564   3.815   1.315   5.003  0.3731 -0.4870 -0.2771
 7108SOL     OW22565   0.102   5.328   7.662 -0.0160 -0.3476  0.5993
 7108SOL    HW122566   0.104   5.239   7.695 -2.4097 -0.7773 -0.3437
 7108SOL    HW222567   0.160   5.326   7.585  0.2576 -0.9871  0.8236
 7109SOL     OW22568   2.862   2.368   1.265  0.9572  0.1585  0.3059
 7109SOL    HW122569   2.923   2.440   1.280  1.0811 -0.0830  1.0090
 7109SOL    HW222570   2.876   2.310   1.340 -0.3321  0.2431  0.6145
 7110SOL     OW22571   4.433   1.143   5.059  0.1414 -0.3212 -0.8921
 7110SOL    HW122572   4.395   1.082   5.123  1.8714 -0.5842 -0.0672
 7110SOL    HW222573   4.513   1.099   5.030  1.2168  1.3915 -0.5772
 7111SOL     OW22574   2.504   1.405   5.550  0.1009 -0.5387 -0.2484
 7111SOL    HW122575   2.457   1.458   5.486  0.4696 -0.1470 -0.1985
 7111SOL    HW222576   2.445   1.401   5.625  0.6771  1.0607  0.3246
 7112SOL     OW22577   7.574   3.473   1.930 -0.6117 -0.0952 -0.0901
 7112SOL    HW122578   7.537   3.445   1.847  2.0720  1.5993 -1.9237
 7112SOL    HW222579   7.558   3.567   1.934  0.3147  0.0492  0.7249
 7113SOL     OW22580   2.134   0.516   6.176 -0.3285  0.0515  0.4387
 7113SOL    HW122581   2.067   0.566   6.222 -0.4650 -0.0158  0.3125
 7113SOL    HW222582   2.190   0.582   6.136  0.2653  0.1279  1.3774
 7114SOL     OW22583   3.891   7.909   4.024  0.1059  0.3858  0.2382
 7114SOL    HW122584   3.962   7.942   4.079  1.3599 -0.1202 -1.0324
 7114SOL    HW222585   3.886   7.971   3.951  0.6060 -0.6661 -0.7120
 7115SOL     OW22586   4.217   0.009   4.054 -0.4167 -0.2219  0.6187
 7115SOL    HW122587   4.189   0.021   3.964 -1.3443  1.9255  1.1416
 7115SOL    HW222588   4.230  -0.085   4.064  0.0314 -0.4426 -1.8323
 7116SOL     OW22589   6.502   4.990   2.477  0.1734 -0.2505 -0.7233
 7116SOL    HW122590   6.536   5.076   2.501 -0.7536 -0.1385  0.2207
 7116SOL    HW222591   6.424   5.009   2.424  1.2625 -0.5063 -2.4696
 7117SOL     OW22592   4.786   5.690   4.972  0.1345 -0.0492 -0.1394
 7117SOL    HW122593   4.733   5.686   4.892  0.7925 -1.3815 -0.5192
 7117SOL    HW222594   4.872   5.720   4.943  0.2118  0.0028  0.1396
 7118SOL     OW22595   3.268   3.132   6.862  0.6772 -0.3529 -0.1990
 7118SOL    HW122596   3.223   3.180   6.932 -0.1222 -0.9824 -0.2666
 7118SOL    HW222597   3.225   3.161   6.782  0.1769 -1.1815 -0.2391
 7119SOL     OW22598   6.486   7.525   5.853  0.5504  0.2484  0.1983
 7119SOL    HW122599   6.453   7.473   5.927  1.0374  0.0243  0.2590
 7119SOL    HW222600   6.542   7.464   5.805 -1.4946 -0.2655 -1.5931
 7120SOL     OW22601   1.278   8.040   2.589  0.4770  0.4572 -0.0437
 7120SOL    HW122602   1.243   8.092   2.517 -1.5226  0.0023  0.5639
 7120SOL    HW222603   1.227   8.066   2.665  1.1993 -0.5240  0.8046
 7121SOL     OW22604   5.338   7.674   5.231 -0.2407  0.4346  0.0091
 7121SOL    HW122605   5.427   7.700   5.253  0.9472 -2.5761 -1.0326
 7121SOL    HW222606   5.330   7.585   5.265 -2.4088  0.1688 -1.1174
 7122SOL     OW22607   6.326   4.207   5.362  0.5491  0.7449  0.8403
 7122SOL    HW122608   6.366   4.187   5.447 -0.6074  0.4051  1.3305
 7122SOL    HW222609   6.341   4.129   5.309 -0.1825  0.2818  1.3022
 7123SOL     OW22610   4.095   5.852   8.246 -0.1573  0.0422  0.2399
 7123SOL    HW122611   4.017   5.884   8.202  0.2069 -0.1701 -0.5756
 7123SOL    HW222612   4.134   5.790   8.184  1.0052  0.6299  0.3673
 7124SOL     OW22613   5.340   6.338   4.958 -0.1430 -0.9021  0.1240
 7124SOL    HW122614   5.353   6.312   5.049  1.3213  1.1568  0.5377
 7124SOL    HW222615   5.388   6.273   4.907  0.9520 -0.7698  0.9636
 7125SOL     OW22616   0.497   6.418   2.918 -0.2342 -0.6133 -0.2273
 7125SOL    HW122617   0.406   6.436   2.940 -0.2061  0.5122 -0.9881
 7125SOL    HW222618   0.544   6.497   2.944  0.4290 -0.9414 -0.4111
 7126SOL     OW22619   6.079   5.747   6.732 -0.0281 -0.3031  0.1842
 7126SOL    HW122620   6.152   5.694   6.766  2.2284  2.1583 -0.6275
 7126SOL    HW222621   6.101   5.837   6.758 -2.3119  0.6156 -0.9340
 7127SOL     OW22622   0.103   0.189   5.860  0.6804  0.0200 -0.3801
 7127SOL    HW122623   0.095   0.110   5.914  1.7094 -0.4958 -0.9723
 7127SOL    HW222624   0.025   0.189   5.805  0.7659 -0.6868 -0.5056
 7128SOL     OW22625   6.361   7.763   1.235  0.2698 -0.2894 -0.1315
 7128SOL    HW122626   6.399   7.796   1.153  0.6168 -0.3892 -0.0134
 7128SOL    HW222627   6.395   7.821   1.302  2.3441 -1.9150  0.3070
 7129SOL     OW22628   5.169   1.514   7.104  0.1675 -0.0984 -0.3812
 7129SOL    HW122629   5.142   1.427   7.076  0.2516 -0.2230 -0.0859
 7129SOL    HW222630   5.246   1.534   7.051  0.1902 -0.2359 -0.4018
 7130SOL     OW22631   6.426   1.734   2.365 -0.0338 -0.5667 -0.0910
 7130SOL    HW122632   6.368   1.764   2.435 -0.1511  1.0966 -0.8933
 7130SOL    HW222633   6.375   1.745   2.285  0.7160 -0.8804 -0.6161
 7131SOL     OW22634   5.407   3.608   4.234 -0.8028  0.1120 -0.2891
 7131SOL    HW122635   5.376   3.670   4.300 -1.8575  0.0633 -0.7314
 7131SOL    HW222636   5.500   3.596   4.254 -0.7878  1.1904  0.3102
 7132SOL     OW22637   4.856   3.454   6.979  0.0928  0.3627  0.6391
 7132SOL    HW122638   4.926   3.433   6.917  1.0271  2.5927  0.8633
 7132SOL    HW222639   4.861   3.385   7.045  1.0177 -0.4078 -0.2137
 7133SOL     OW22640   4.883   7.117   0.731 -0.0795 -0.2955  0.0248
 7133SOL    HW122641   4.937   7.099   0.807  1.0819  0.1145 -0.6964
 7133SOL    HW222642   4.797   7.078   0.753  0.5478 -1.1191  1.0805
 7134SOL     OW22643   6.896   3.548   7.483 -0.2352  0.5368 -0.4416
 7134SOL    HW122644   6.908   3.456   7.504  0.4555  0.5998 -0.5267
 7134SOL    HW222645   6.868   3.548   7.391 -0.4328  0.4035 -0.3819
 7135SOL     OW22646   3.852   4.513   0.396  0.2338  0.2507  0.1396
 7135SOL    HW122647   3.786   4.496   0.329  1.8243 -0.5864 -1.2427
 7135SOL    HW222648   3.813   4.583   0.450 -1.6649 -0.0642 -0.7731
 7136SOL     OW22649   7.950   5.018   7.701 -0.0812 -0.5580  0.1248
 7136SOL    HW122650   8.030   5.069   7.703 -0.2719 -0.2073 -0.9575
 7136SOL    HW222651   7.880   5.081   7.720 -0.2041 -0.6400 -0.0492
 7137SOL     OW22652   4.082   1.723   6.654 -0.4589 -0.1752  0.1708
 7137SOL    HW122653   4.037   1.652   6.608 -2.6471  0.2056  1.6396
 7137SOL    HW222654   4.012   1.783   6.678  1.3998  2.8265 -1.5670
 7138SOL     OW22655   3.944   7.856   6.948  0.2868 -0.0588  0.9115
 7138SOL    HW122656   4.007   7.926   6.959  0.7369 -0.3960  0.4769
 7138SOL    HW222657   3.924   7.855   6.854 -1.3833  0.9316  1.2264
 7139SOL     OW22658   1.588   3.622   3.839  0.0372  0.0562  0.1987
 7139SOL    HW122659   1.619   3.559   3.903 -1.1899 -1.4311 -0.6471
 7139SOL    HW222660   1.541   3.570   3.774 -0.5330  1.7700 -0.8062
 7140SOL     OW22661   7.092   1.224   6.560 -0.2052  0.6440  0.3104
 7140SOL    HW122662   7.151   1.287   6.519  0.4248 -0.7487 -0.9649
 7140SOL    HW222663   7.022   1.212   6.496 -0.7402  0.6594  0.8947
 7141SOL     OW22664   3.718   4.298   5.501  0.1479 -0.7660 -0.5439
 7141SOL    HW122665   3.721   4.268   5.410 -1.1579 -1.7365 -0.2829
 7141SOL    HW222666   3.710   4.217   5.552 -2.6117 -0.0597  0.2303
 7142SOL     OW22667   4.090   1.299   0.771 -0.4157 -0.2795  0.1802
 7142SOL    HW122668   3.997   1.276   0.764 -0.2941 -1.2485  1.4773
 7142SOL    HW222669   4.128   1.273   0.688 -1.0816 -0.9440  0.0786
 7143SOL     OW22670   1.444   6.894   2.701 -0.2325 -0.4022  0.3341
 7143SOL    HW122671   1.370   6.886   2.761 -0.0414  0.5697  0.7052
 7143SOL    HW222672   1.410   6.945   2.627  0.0743  0.0933  0.5305
 7144SOL     OW22673   3.948   4.927   1.088  0.4388  0.0955  0.3767
 7144SOL    HW122674   3.878   4.910   1.151  0.0579  0.2961  0.0089
 7144SOL    HW222675   3.990   5.007   1.119  0.5643 -0.0775  0.6506
 7145SOL     OW22676   5.389   2.221   3.024 -0.2053 -0.3616  0.3316
 7145SOL    HW122677   5.302   2.247   2.993 -0.0444 -1.5007 -1.1793
 7145SOL    HW222678   5.447   2.291   2.993 -0.2876 -0.6648 -0.5202
 7146SOL     OW22679   2.988   3.163   4.031 -0.2327 -0.3175  0.3442
 7146SOL    HW122680   3.046   3.145   3.957 -1.2021  0.0659 -0.5027
 7146SOL    HW222681   2.955   3.251   4.016  0.5810  0.2813  1.9140
 7147SOL     OW22682   1.266   1.002   4.101 -0.0833 -0.0974  0.0988
 7147SOL    HW122683   1.292   0.966   4.185  0.2003  0.4980  0.2662
 7147SOL    HW222684   1.190   0.950   4.075 -0.6118  0.1897  1.0610
 7148SOL     OW22685   3.873   1.917   4.211 -0.0235  0.1403  0.1321
 7148SOL    HW122686   3.826   1.842   4.247 -0.2902  1.3203  2.2976
 7148SOL    HW222687   3.823   1.942   4.133 -0.9615 -0.7970  0.4252
 7149SOL     OW22688   2.366   4.272   3.084 -0.7859  0.5307 -0.4506
 7149SOL    HW122689   2.402   4.246   3.000 -0.5138  1.2035 -0.5483
 7149SOL    HW222690   2.439   4.266   3.145 -1.0882 -0.3817 -0.1657
 7150SOL     OW22691   1.550   2.701   4.129  0.5712 -0.2382 -0.6244
 7150SOL    HW122692   1.459   2.681   4.111  0.1156  1.5008 -0.3804
 7150SOL    HW222693   1.572   2.648   4.206 -0.4647 -0.0610 -0.2056
 7151SOL     OW22694   7.215   5.573   2.479  0.1911 -0.0536  0.3970
 7151SOL    HW122695   7.220   5.503   2.544  0.8564  0.6511  1.1164
 7151SOL    HW222696   7.152   5.636   2.514  0.6269  0.3795  0.4181
 7152SOL     OW22697   2.503   0.250   1.492  0.2187 -0.5823  0.6081
 7152SOL    HW122698   2.421   0.225   1.449  0.2635 -0.3929  0.4105
 7152SOL    HW222699   2.493   0.220   1.582 -0.8713  1.1587  1.1026
 7153SOL     OW22700   7.868   6.390   7.242 -0.1354 -0.3306  0.1286
 7153SOL    HW122701   7.843   6.300   7.265  0.3924 -0.6140 -0.4053
 7153SOL    HW222702   7.963   6.386   7.232 -0.3806 -0.3224 -2.5783
 7154SOL     OW22703   4.218   2.381   2.544  0.4011 -0.1693 -0.4258
 7154SOL    HW122704   4.239   2.347   2.457  1.5928 -0.3324 -0.0844
 7154SOL    HW222705   4.196   2.473   2.530 -1.9011 -0.8241 -1.2357
 7155SOL     OW22706   6.526   3.629   4.339  0.3954 -0.2222 -0.5493
 7155SOL    HW122707   6.518   3.701   4.277 -0.6456  0.9532  0.9474
 7155SOL    HW222708   6.527   3.550   4.284 -1.5113  0.7413 -1.9965
 7156SOL     OW22709   5.641   4.272   3.216  0.5216 -0.3383 -0.2174
 7156SOL    HW122710   5.569   4.256   3.277  0.2976  0.0232 -0.3851
 7156SOL    HW222711   5.604   4.258   3.129  1.1726 -2.0968 -0.2252
 7157SOL     OW22712   1.408   2.733   8.215 -0.4936 -0.3465 -0.3429
 7157SOL    HW122713   1.500   2.736   8.242 -1.0149  0.9330  1.3827
 7157SOL    HW222714   1.372   2.657   8.259 -0.2648 -0.8706 -1.0494
 7158SOL     OW22715   5.336   8.266   7.362  0.1432  0.2384  0.2302
 7158SOL    HW122716   5.336   8.356   7.329 -0.0813  0.5317  1.0385
 7158SOL    HW222717   5.405   8.223   7.312 -0.9836  0.3641 -1.5042
 7159SOL     OW22718   3.416   7.117   5.355  0.8906  0.3963 -0.0176
 7159SOL    HW122719   3.447   7.199   5.392  1.8746 -0.6553  1.5434
 7159SOL    HW222720   3.478   7.051   5.385  0.4908 -0.8370 -1.7884
 7160SOL     OW22721   6.961   4.316   0.876  0.5051  0.5179 -0.4173
 7160SOL    HW122722   6.882   4.287   0.922  0.7142  1.6270  0.6741
 7160SOL    HW222723   6.929   4.351   0.793  0.1158 -1.4679 -1.1332
 7161SOL     OW22724   1.556   2.157   7.456  0.5070  0.0473  0.7184
 7161SOL    HW122725   1.593   2.228   7.508  0.2511  1.7518 -1.3182
 7161SOL    HW222726   1.463   2.157   7.478  0.3643  0.8897  0.1368
 7162SOL     OW22727   4.527   2.505   1.989 -0.3277 -0.4273 -0.5056
 7162SOL    HW122728   4.596   2.502   2.056 -1.1376 -1.9253  0.2675
 7162SOL    HW222729   4.575   2.497   1.907  0.5649  0.0986 -0.0520
 7163SOL     OW22730   1.251   7.374   2.252 -0.1731 -0.0385 -0.1736
 7163SOL    HW122731   1.295   7.351   2.334 -1.0707  0.5025  0.4694
 7163SOL    HW222732   1.309   7.341   2.183  1.4977  1.1516  0.6495
 7164SOL     OW22733   1.323   2.712   6.840 -0.2140  0.4618 -0.6666
 7164SOL    HW122734   1.368   2.775   6.897  0.5979 -0.2892 -0.4723
 7164SOL    HW222735   1.371   2.715   6.758  0.8509 -1.1199 -0.1092
 7165SOL     OW22736   4.829   1.599   6.395 -0.1050  0.0225  0.1464
 7165SOL    HW122737   4.862   1.688   6.406 -0.3164 -0.0895  1.8128
 7165SOL    HW222738   4.767   1.587   6.468 -1.3246 -0.9105 -1.0156
 7166SOL     OW22739   2.069   6.534   7.027  0.1189  0.0575 -0.6271
 7166SOL    HW122740   2.034   6.600   6.968  2.0842  0.2155 -1.6730
 7166SOL    HW222741   2.088   6.581   7.108 -0.3883  0.3340 -0.6681
 7167SOL     OW22742   4.863   8.196   4.251  0.1622  0.4145  0.9693
 7167SOL    HW122743   4.944   8.189   4.302  1.7924  0.6362 -1.4817
 7167SOL    HW222744   4.880   8.143   4.173 -0.8211  3.0778 -1.0974
 7168SOL     OW22745   5.925   0.159   1.539  0.2000 -0.1841 -0.1816
 7168SOL    HW122746   5.991   0.185   1.604 -1.6772  1.4719  1.1586
 7168SOL    HW222747   5.868   0.236   1.532 -0.4161 -0.8452 -2.8143
 7169SOL     OW22748   3.328   2.528   3.470  0.6824 -0.2810  0.2372
 7169SOL    HW122749   3.297   2.606   3.424  1.2352 -0.6314 -0.7285
 7169SOL    HW222750   3.402   2.497   3.419  0.8725 -1.0762  0.9791
 7170SOL     OW22751   1.051   6.855   1.628  0.2766 -0.1766  0.2240
 7170SOL    HW122752   1.121   6.917   1.648  0.4523 -0.1785 -0.3639
 7170SOL    HW222753   1.097   6.773   1.608  0.0366 -0.5662  1.2236
 7171SOL     OW22754   2.213   2.054   1.947  0.1557  0.3430  0.3489
 7171SOL    HW122755   2.270   2.047   1.871 -0.0918  0.0187  0.1916
 7171SOL    HW222756   2.170   2.139   1.937 -1.4484 -0.5838 -0.9928
 7172SOL     OW22757   4.521   4.317   4.274 -0.2369 -0.1598  0.4009
 7172SOL    HW122758   4.571   4.242   4.240 -1.3140 -0.9485  0.5351
 7172SOL    HW222759   4.566   4.393   4.238  1.1983 -0.8480  0.7035
 7173SOL     OW22760   7.816   3.841   6.813 -0.4550  0.0465 -0.3277
 7173SOL    HW122761   7.812   3.936   6.800  0.9981  0.1088 -0.3503
 7173SOL    HW222762   7.845   3.830   6.904 -1.6175 -0.3899  0.0067
 7174SOL     OW22763   6.422   1.267   7.127  0.6858  0.4854 -0.6540
 7174SOL    HW122764   6.469   1.273   7.044  1.8999 -0.0978 -0.0152
 7174SOL    HW222765   6.381   1.180   7.126  0.2673  0.6795 -0.8531
 7175SOL     OW22766   2.813   0.041   6.246 -0.5333 -0.1756 -0.3393
 7175SOL    HW122767   2.863   0.118   6.220  0.7236 -1.1922 -1.0717
 7175SOL    HW222768   2.723   0.059   6.219 -0.6874  1.9244  1.5055
 7176SOL     OW22769   3.040   7.932   4.283 -0.0527 -0.0760 -0.6880
 7176SOL    HW122770   2.966   7.991   4.296 -0.7306 -0.9028 -0.7623
 7176SOL    HW222771   3.066   7.946   4.192  0.3875  0.7876 -0.4350
 7177SOL     OW22772   2.566   3.270   6.107 -0.1783 -0.8442  0.2286
 7177SOL    HW122773   2.626   3.343   6.125 -1.4416  0.1035  0.5983
 7177SOL    HW222774   2.554   3.272   6.012  0.6034 -1.2315  0.1138
 7178SOL     OW22775   4.716   1.683   1.868  0.6075 -0.5078  0.0758
 7178SOL    HW122776   4.753   1.765   1.834  0.3665 -0.1835  0.5951
 7178SOL    HW222777   4.682   1.639   1.790  1.8707 -0.7071 -0.3847
 7179SOL     OW22778   1.599   0.569   4.192 -0.2011  0.0609 -0.0202
 7179SOL    HW122779   1.617   0.476   4.208 -2.2647 -0.4052 -0.3301
 7179SOL    HW222780   1.545   0.596   4.266 -0.9564  0.6029 -0.7636
 7180SOL     OW22781   2.830   4.352   4.479 -0.0226  0.0161 -0.2635
 7180SOL    HW122782   2.735   4.353   4.466 -0.0227 -1.3845 -0.4538
 7180SOL    HW222783   2.843   4.286   4.548  1.0261 -1.7808 -2.1424
 7181SOL     OW22784   2.316   0.317   6.124 -0.6252  0.5153 -0.3902
 7181SOL    HW122785   2.387   0.333   6.187 -0.6767  0.8417 -0.4109
 7181SOL    HW222786   2.247   0.379   6.150  0.1614  2.1430 -2.0450
 7182SOL     OW22787   3.205   4.903   5.801  0.1444 -0.5091  0.1626
 7182SOL    HW122788   3.235   4.846   5.873  2.1280  0.5187  0.1742
 7182SOL    HW222789   3.133   4.855   5.762  0.5632 -2.1845  1.3659
 7183SOL     OW22790   3.836   6.345   2.118 -0.2751  0.0651 -0.3513
 7183SOL    HW122791   3.849   6.252   2.098  0.5229  0.0255  0.3161
 7183SOL    HW222792   3.753   6.349   2.164 -0.7012 -0.2144 -1.0847
 7184SOL     OW22793   1.984   2.245   1.088 -0.3358  0.2121  0.4101
 7184SOL    HW122794   2.019   2.174   1.142 -1.5758 -0.7560 -0.0345
 7184SOL    HW222795   2.044   2.249   1.013  0.2944  0.2923  0.9103
 7185SOL     OW22796   4.226   6.218   6.347  0.3649 -0.0158 -0.1772
 7185SOL    HW122797   4.155   6.166   6.384  0.3663 -1.0185 -1.5500
 7185SOL    HW222798   4.181   6.288   6.298  0.3108 -0.5426 -0.8933
 7186SOL     OW22799   5.192   5.127   0.493 -0.1660  0.1871  0.4713
 7186SOL    HW122800   5.185   5.060   0.561 -2.6948  0.5845  0.6185
 7186SOL    HW222801   5.177   5.079   0.411  2.5538 -0.2318  0.1706
 7187SOL     OW22802   4.599   4.737   5.048 -0.2800  0.2616  0.1811
 7187SOL    HW122803   4.650   4.658   5.030 -1.0052  0.0498 -0.9951
 7187SOL    HW222804   4.648   4.782   5.118  2.1811  0.6577 -1.7163
 7188SOL     OW22805   5.602   7.475   7.969  0.2769  0.0630 -0.1406
 7188SOL    HW122806   5.562   7.402   8.016 -1.6456  1.7507  0.9297
 7188SOL    HW222807   5.649   7.523   8.037 -0.0134  0.8467 -0.4894
 7189SOL     OW22808   0.386   2.779   7.302 -0.2311  0.0996  0.4317
 7189SOL    HW122809   0.440   2.855   7.325 -0.0042  0.3574 -0.9003
 7189SOL    HW222810   0.441   2.703   7.321  0.9135  0.3783 -1.5891
 7190SOL     OW22811   2.977   4.497   1.378 -0.5182  0.0907 -0.5294
 7190SOL    HW122812   2.922   4.556   1.430 -1.7121 -0.7916 -0.7605
 7190SOL    HW222813   3.007   4.431   1.441 -0.1881  0.2434 -0.5249
 7191SOL     OW22814   7.436   7.441   8.065 -0.3234 -0.0226  0.1375
 7191SOL    HW122815   7.342   7.451   8.080 -0.2636  0.0874  0.4347
 7191SOL    HW222816   7.448   7.347   8.051 -0.7438  0.1775 -1.7372
 7192SOL     OW22817   7.509   1.407   6.951 -0.1112  0.0104 -0.0833
 7192SOL    HW122818   7.598   1.372   6.952 -0.9871 -2.3059 -0.1647
 7192SOL    HW222819   7.471   1.372   6.870 -0.7668  1.8535 -0.5820
 7193SOL     OW22820   8.264   3.810   1.084  0.0839 -0.1262  0.2950
 7193SOL    HW122821   8.321   3.871   1.036  0.6553 -1.1371 -0.3204
 7193SOL    HW222822   8.300   3.807   1.172  1.2410 -1.0872 -0.2073
 7194SOL     OW22823   6.442   1.173   3.208 -0.1878  1.1862  0.4153
 7194SOL    HW122824   6.458   1.114   3.134  0.9710 -0.7061  2.1319
 7194SOL    HW222825   6.422   1.258   3.167  2.5563  0.7180 -2.0182
 7195SOL     OW22826   1.373   5.792   5.144 -0.4090 -0.6799 -0.0491
 7195SOL    HW122827   1.373   5.886   5.130  0.4190 -0.7866 -0.8261
 7195SOL    HW222828   1.418   5.780   5.228  0.1945 -0.4367 -0.3375
 7196SOL     OW22829   5.618   7.211   3.440  0.8851  0.1271 -0.1972
 7196SOL    HW122830   5.703   7.184   3.475  0.4590 -1.2997 -0.2604
 7196SOL    HW222831   5.566   7.232   3.517  0.6020 -1.0703 -0.0585
 7197SOL     OW22832   8.287   7.410   3.560 -0.7396 -0.6857 -0.4334
 7197SOL    HW122833   8.373   7.446   3.537 -1.4623  1.4298  0.0423
 7197SOL    HW222834   8.242   7.399   3.476 -0.3046 -1.0569 -0.6228
 7198SOL     OW22835   4.478   6.093   2.134  0.1713  0.3936  0.0842
 7198SOL    HW122836   4.398   6.145   2.134  1.5473  2.6000  0.3571
 7198SOL    HW222837   4.521   6.116   2.216  0.7423 -1.3287  0.2796
 7199SOL     OW22838   6.782   5.946   7.407 -0.3099  0.2367 -0.2278
 7199SOL    HW122839   6.830   6.018   7.365  0.7864  0.0648  0.6921
 7199SOL    HW222840   6.693   5.954   7.374 -0.0955  1.7528 -0.4858
 7200SOL     OW22841   3.995   6.066   2.946 -0.1971  0.3928 -0.0363
 7200SOL    HW122842   4.030   5.990   2.993  1.7206  1.2885 -0.0002
 7200SOL    HW222843   4.009   6.046   2.854  1.0368  1.0513  0.0057
 7201SOL     OW22844   3.042   2.133   6.511  0.5452 -0.1169 -0.0199
 7201SOL    HW122845   2.964   2.108   6.462  0.3559 -0.1712  0.3075
 7201SOL    HW222846   3.009   2.190   6.581  0.6695 -0.9248  0.7197
 7202SOL     OW22847   5.753   0.396   5.819 -0.7475 -0.1770 -0.1220
 7202SOL    HW122848   5.695   0.376   5.745 -1.3904 -1.8867  0.8185
 7202SOL    HW222849   5.724   0.337   5.889 -0.4162  1.6768  1.6489
 7203SOL     OW22850   7.681   1.670   3.548  0.5736  0.0869 -0.6252
 7203SOL    HW122851   7.631   1.746   3.519  1.3936  0.3916 -1.2432
 7203SOL    HW222852   7.737   1.648   3.474  0.2393 -1.2206 -0.5076
 7204SOL     OW22853   3.349   4.619   3.572  0.1297 -0.0822 -0.1091
 7204SOL    HW122854   3.275   4.573   3.533  1.3781 -0.3536 -2.2839
 7204SOL    HW222855   3.315   4.657   3.653 -1.8497 -1.8181 -0.0973
 7205SOL     OW22856   0.286   6.500   1.932 -0.2244  0.0110 -0.0738
 7205SOL    HW122857   0.339   6.569   1.891 -0.3293 -0.2594 -0.6571
 7205SOL    HW222858   0.328   6.487   2.018 -0.6810  1.3553  0.3668
 7206SOL     OW22859   8.037   5.909   3.108  0.1429 -0.1442  0.0506
 7206SOL    HW122860   8.010   5.905   3.200 -0.1034 -1.6112 -0.0667
 7206SOL    HW222861   7.962   5.947   3.063  0.3198  0.7187  0.4687
 7207SOL     OW22862   8.158   1.986   7.253 -0.3116  0.3359 -0.0346
 7207SOL    HW122863   8.143   2.072   7.213  0.4766  1.0160  1.0953
 7207SOL    HW222864   8.194   1.933   7.182  1.2047  1.5744 -0.2157
 7208SOL     OW22865   8.150   5.239   6.066  0.4616 -0.3475  0.2129
 7208SOL    HW122866   8.061   5.269   6.050  0.3023 -0.1841  1.3594
 7208SOL    HW222867   8.179   5.288   6.143  1.5066 -0.4587 -0.1032
 7209SOL     OW22868   2.743   6.332   5.950  0.0441  0.3241 -0.2035
 7209SOL    HW122869   2.806   6.386   5.903  0.5129 -1.3669 -1.5679
 7209SOL    HW222870   2.662   6.340   5.900  0.2180 -0.5279 -0.6270
 7210SOL     OW22871   4.280   4.225   0.365 -0.5478 -0.4221  0.1722
 7210SOL    HW122872   4.362   4.273   0.358 -1.1676  0.5037 -1.0867
 7210SOL    HW222873   4.217   4.289   0.397 -0.8148 -1.0787  0.9617
 7211SOL     OW22874   0.507   6.129   3.771 -0.3922  0.1806 -0.2552
 7211SOL    HW122875   0.494   6.037   3.747  0.5277 -0.1512  0.4566
 7211SOL    HW222876   0.423   6.171   3.755 -1.0249 -0.9505  0.0860
 7212SOL     OW22877   6.610   5.528   1.575  0.5322  0.3926  0.0035
 7212SOL    HW122878   6.597   5.578   1.494  0.7543  2.5018  1.2264
 7212SOL    HW222879   6.700   5.548   1.601 -0.1582  1.2944  1.7790
 7213SOL     OW22880   4.177   7.497   2.821  0.2511 -0.0355  0.2960
 7213SOL    HW122881   4.121   7.574   2.835 -0.9028 -1.0097  1.0992
 7213SOL    HW222882   4.175   7.450   2.904  1.7787 -0.4252  0.1372
 7214SOL     OW22883   7.667   5.088   3.134  0.3355  0.1136 -0.0382
 7214SOL    HW122884   7.602   5.143   3.178  0.1255 -0.4251  0.3408
 7214SOL    HW222885   7.749   5.108   3.179  0.7303  1.8930 -1.4993
 7215SOL     OW22886   3.088   4.113   3.888 -0.1086 -0.8316 -0.3929
 7215SOL    HW122887   3.034   4.052   3.939 -0.1822 -1.4951 -1.2705
 7215SOL    HW222888   3.146   4.057   3.836 -0.1167 -0.1589 -1.1350
 7216SOL     OW22889   3.362   3.950   0.986  0.1585  0.1671 -0.5383
 7216SOL    HW122890   3.391   3.860   0.977  0.8725  0.3166  0.1914
 7216SOL    HW222891   3.275   3.944   1.026  0.2136 -0.1911 -0.4763
 7217SOL     OW22892   3.350   0.278   3.665  0.2245  0.1321  0.2265
 7217SOL    HW122893   3.435   0.321   3.674  0.8537 -0.7877 -1.1482
 7217SOL    HW222894   3.351   0.209   3.731 -0.5370  1.8160  2.0141
 7218SOL     OW22895   7.045   5.046   7.329  1.0358  0.0496  0.1947
 7218SOL    HW122896   6.960   5.073   7.363  1.5924  0.1238  1.5568
 7218SOL    HW222897   7.088   5.127   7.304  0.4980 -0.0288 -1.0419
 7219SOL     OW22898   5.399   4.185   3.934  0.1030 -0.2912 -0.2873
 7219SOL    HW122899   5.328   4.144   3.983  0.4876  1.2427  1.6048
 7219SOL    HW222900   5.361   4.267   3.902  0.6531 -0.0665 -0.3581
 7220SOL     OW22901   3.966   1.895   3.797  0.4272 -0.2877  0.1667
 7220SOL    HW122902   4.002   1.967   3.848 -1.1616 -0.3627  1.4334
 7220SOL    HW222903   3.907   1.936   3.734  2.5743 -0.1722 -1.8432
 7221SOL     OW22904   1.791   1.552   4.979  0.1954 -0.1353 -0.4084
 7221SOL    HW122905   1.711   1.561   4.927 -0.4425 -0.6029  0.4763
 7221SOL    HW222906   1.858   1.524   4.916  0.2013  2.4033 -1.5762
 7222SOL     OW22907   0.156   4.245   4.518 -0.3020  0.4542  0.1808
 7222SOL    HW122908   0.228   4.241   4.580  2.7678  0.2250 -3.2257
 7222SOL    HW222909   0.141   4.153   4.493  0.2642  0.7516 -1.3101
 7223SOL     OW22910   4.092   4.619   0.726  0.3430 -0.5332 -0.1185
 7223SOL    HW122911   4.182   4.647   0.742  0.3946 -0.3792 -0.6624
 7223SOL    HW222912   4.038   4.691   0.759  0.3648 -1.2970  1.6152
 7224SOL     OW22913   7.202   6.761   6.382  0.4234 -0.0395 -0.0407
 7224SOL    HW122914   7.250   6.681   6.360 -1.0672 -1.4190  1.4961
 7224SOL    HW222915   7.128   6.763   6.321  1.1541  0.8403 -0.8990
 7225SOL     OW22916   6.660   6.648   1.882  0.0787 -0.0936 -0.4942
 7225SOL    HW122917   6.634   6.598   1.804  0.7786 -1.9538  0.4325
 7225SOL    HW222918   6.732   6.704   1.852  0.0596 -0.4952 -1.2899
 7226SOL     OW22919   7.658   7.816   0.987  0.5461 -0.4874 -0.1814
 7226SOL    HW122920   7.627   7.727   1.004  1.5685 -0.9945 -0.9378
 7226SOL    HW222921   7.634   7.833   0.896 -1.0391  0.6058  0.4256
 7227SOL     OW22922   4.533   0.496   2.784 -0.4209  0.4953 -0.2583
 7227SOL    HW122923   4.494   0.415   2.818 -0.5761  0.3932 -0.6700
 7227SOL    HW222924   4.520   0.490   2.689  1.7218 -0.1362 -0.5338
 7228SOL     OW22925   4.365   2.259   6.460  0.4996 -0.4499  0.2309
 7228SOL    HW122926   4.269   2.258   6.465  0.4596 -1.1447 -0.6573
 7228SOL    HW222927   4.390   2.167   6.460  1.1189 -0.2801 -0.5653
 7229SOL     OW22928   6.290   6.489   2.021  0.1876  0.4591 -0.5032
 7229SOL    HW122929   6.375   6.469   1.983  1.4055  2.3601  1.1268
 7229SOL    HW222930   6.295   6.582   2.044 -2.2974  0.5902 -0.2719
 7230SOL     OW22931   2.189   6.427   5.399 -0.1952  0.4985 -0.2340
 7230SOL    HW122932   2.102   6.401   5.369  0.0970  0.6574 -1.2707
 7230SOL    HW222933   2.238   6.345   5.404 -1.2663 -0.0038  3.4247
 7231SOL     OW22934   2.478   4.674   3.410 -0.0647  0.2623  0.2900
 7231SOL    HW122935   2.500   4.584   3.389  3.2235  0.9449  0.5003
 7231SOL    HW222936   2.518   4.689   3.496 -2.1109  1.3907  1.0792
 7232SOL     OW22937   0.213   5.302   4.130 -0.0049  0.0128  0.3064
 7232SOL    HW122938   0.172   5.363   4.192  0.6458 -1.3189  2.1041
 7232SOL    HW222939   0.168   5.219   4.144  0.9767 -0.6094 -0.1406
 7233SOL     OW22940   5.958   1.243   6.665 -0.6730  0.9715  0.0994
 7233SOL    HW122941   5.969   1.246   6.760  1.0504  3.0566 -0.1366
 7233SOL    HW222942   5.965   1.150   6.644  0.2087  0.6033  1.8787
 7234SOL     OW22943   3.798   1.968   3.588 -0.2702  0.1740  0.1878
 7234SOL    HW122944   3.704   1.948   3.594 -0.2901  0.4574  0.8944
 7234SOL    HW222945   3.817   1.967   3.495 -0.5660 -1.7962  0.1256
 7235SOL     OW22946   5.734   6.012   5.887 -0.0126  0.2555 -0.2376
 7235SOL    HW122947   5.774   5.929   5.910 -1.6982 -0.4819  0.0863
 7235SOL    HW222948   5.677   5.992   5.813  0.6920  1.4204 -1.1276
 7236SOL     OW22949   6.675   6.216   5.126  0.9507  0.4905  0.3254
 7236SOL    HW122950   6.744   6.240   5.064  1.7147 -0.8083  0.6374
 7236SOL    HW222951   6.608   6.283   5.116  0.1920 -0.7138 -3.2119
 7237SOL     OW22952   7.335   8.124   5.768  0.3601  0.0783 -0.1323
 7237SOL    HW122953   7.424   8.149   5.792 -0.1711  2.3928 -0.4141
 7237SOL    HW222954   7.286   8.128   5.850  0.4113 -0.7013 -0.0637
 7238SOL     OW22955   5.765   5.290   4.860 -0.0709  0.6408 -0.2208
 7238SOL    HW122956   5.747   5.225   4.928 -0.9094  2.4313  1.3041
 7238SOL    HW222957   5.831   5.348   4.899  2.2929 -0.5037 -2.3641
 7239SOL     OW22958   7.778   2.791   1.364 -0.1371 -0.1924  0.1034
 7239SOL    HW122959   7.729   2.865   1.328  0.0245 -0.4355 -0.6234
 7239SOL    HW222960   7.712   2.740   1.412 -0.4029  0.0015 -0.0569
 7240SOL     OW22961   6.558   0.423   7.594  0.7024  0.2450  0.4539
 7240SOL    HW122962   6.493   0.353   7.600  1.0812 -0.4434 -2.8428
 7240SOL    HW222963   6.590   0.433   7.684 -1.7548 -1.4939  1.5805
 7241SOL     OW22964   1.177   3.290   5.459  0.2318  0.3294 -0.1408
 7241SOL    HW122965   1.163   3.199   5.487 -0.0356  0.5210  0.3442
 7241SOL    HW222966   1.220   3.331   5.534  1.7330  0.2183 -0.9144
 7242SOL     OW22967   6.838   3.934   2.210 -0.1641 -0.2461 -0.8994
 7242SOL    HW122968   6.915   3.916   2.263  0.6098  0.2964 -1.8261
 7242SOL    HW222969   6.868   3.994   2.142 -1.9336  1.8195  0.0835
 7243SOL     OW22970   5.041   1.101   3.995 -0.3355 -0.2330  0.0572
 7243SOL    HW122971   5.084   1.176   4.035 -2.0776  2.0851 -2.2212
 7243SOL    HW222972   4.950   1.128   3.983 -0.3160 -1.4814 -3.6278
 7244SOL     OW22973   7.223   4.677   3.981 -0.3909 -0.6247 -0.0302
 7244SOL    HW122974   7.160   4.748   3.966 -2.2631 -2.1894  0.1620
 7244SOL    HW222975   7.235   4.676   4.076 -1.3068 -1.3285  0.0855
 7245SOL     OW22976   3.163   7.283   4.210  0.0507  0.2656  0.6766
 7245SOL    HW122977   3.111   7.264   4.289 -0.3654 -0.3375  0.2596
 7245SOL    HW222978   3.250   7.251   4.231  0.1199  0.7668  1.1687
 7246SOL     OW22979   6.406   2.425   3.013  0.4742  0.0821 -0.4000
 7246SOL    HW122980   6.413   2.512   2.975  0.6452  0.7346  1.1108
 7246SOL    HW222981   6.488   2.381   2.988  0.6774  0.5786 -0.6003
 7247SOL     OW22982   4.222   5.775   6.335  0.6070 -0.1079  0.0471
 7247SOL    HW122983   4.207   5.695   6.385 -0.0245  1.9614  3.2688
 7247SOL    HW222984   4.184   5.845   6.389  2.3545  2.5385 -2.0519
 7248SOL     OW22985   4.389   8.117   7.331 -0.1396  0.0030 -0.1603
 7248SOL    HW122986   4.303   8.141   7.365  0.4902 -0.4918  1.8353
 7248SOL    HW222987   4.440   8.198   7.335 -0.4964  0.3042 -1.3769
 7249SOL     OW22988   2.089   2.468   1.302  0.1090  0.0183 -0.2399
 7249SOL    HW122989   2.069   2.379   1.331 -0.0459 -0.7618 -2.6217
 7249SOL    HW222990   2.173   2.460   1.257  0.2824  1.1418 -0.1201
 7250SOL     OW22991   5.427   5.793   4.810  0.3635 -0.1778  0.0056
 7250SOL    HW122992   5.413   5.783   4.715  2.0047 -1.4944 -0.1443
 7250SOL    HW222993   5.519   5.819   4.817  0.3720 -0.5396  1.2543
 7251SOL     OW22994   5.619   6.597   4.083 -0.0747  0.1131 -0.1580
 7251SOL    HW122995   5.531   6.624   4.056 -0.8795 -1.1553  1.1190
 7251SOL    HW222996   5.653   6.671   4.133 -0.6115  0.4162 -0.2399
 7252SOL     OW22997   1.304   0.295   5.326 -0.0019 -0.5550 -0.1034
 7252SOL    HW122998   1.334   0.233   5.392 -0.4512 -0.0723  0.5715
 7252SOL    HW222999   1.248   0.356   5.375 -0.7958 -0.5226 -1.0354
 7253SOL     OW23000   5.879   7.654   7.057  0.0751 -0.5128 -0.1487
 7253SOL    HW123001   5.784   7.664   7.054  0.1157  0.2607  0.9550
 7253SOL    HW223002   5.894   7.588   7.125  0.3531 -0.4532 -0.1512
 7254SOL     OW23003   1.314   6.304   6.130  0.1421 -0.2226 -0.8194
 7254SOL    HW123004   1.241   6.341   6.180  1.7962  0.4564  1.1228
 7254SOL    HW223005   1.302   6.338   6.041 -0.6719  1.6402 -0.0033
 7255SOL     OW23006   4.937   5.057   4.031 -0.2903 -0.3195  0.3006
 7255SOL    HW123007   4.949   4.962   4.035  1.9670 -0.1475 -1.2379
 7255SOL    HW223008   4.986   5.083   3.953 -1.0767  2.0858  0.5964
 7256SOL     OW23009   5.713   5.081   3.079  0.0525 -0.2816  0.5717
 7256SOL    HW123010   5.633   5.054   3.124 -1.1393  0.2033 -1.1853
 7256SOL    HW223011   5.742   5.003   3.032  0.1390 -0.2228  0.5273
 7257SOL     OW23012   6.140   1.579   1.969  0.0163 -0.4722 -0.6275
 7257SOL    HW123013   6.220   1.569   2.021  0.7103  1.4758 -1.2655
 7257SOL    HW223014   6.167   1.560   1.879 -0.3932 -0.4583 -0.7522
 7258SOL     OW23015   6.914   4.981   3.505 -0.4994  0.6159 -0.3044
 7258SOL    HW123016   6.833   5.029   3.488 -1.1232 -0.1281  0.4999
 7258SOL    HW223017   6.969   4.999   3.429 -1.3943  1.1820 -0.8272
 7259SOL     OW23018   8.075   2.969   4.114  0.0980  0.3997  0.0041
 7259SOL    HW123019   8.042   3.057   4.096  0.7799  0.4752 -0.9339
 7259SOL    HW223020   8.062   2.922   4.031 -0.0119 -0.3046  0.4158
 7260SOL     OW23021   5.908   3.551   1.078 -0.3917  0.1115  0.0372
 7260SOL    HW123022   5.841   3.619   1.074  0.5037  1.1367  1.5716
 7260SOL    HW223023   5.895   3.510   1.164  1.4193  0.8480  0.6845
 7261SOL     OW23024   4.221   7.857   6.047  0.5068  0.0968  0.1068
 7261SOL    HW123025   4.303   7.899   6.072  0.6225 -0.3085  0.4246
 7261SOL    HW223026   4.225   7.850   5.952  2.1824 -2.5740  0.2914
 7262SOL     OW23027   1.225   2.402   4.628  0.6676 -0.1418 -0.5482
 7262SOL    HW123028   1.273   2.321   4.613  0.5817 -0.1561 -0.7449
 7262SOL    HW223029   1.218   2.408   4.723 -1.3795 -1.5730 -0.5648
 7263SOL     OW23030   6.341   0.643   2.952 -0.1239  0.4983  0.1770
 7263SOL    HW123031   6.325   0.577   3.020  1.0088 -0.3788 -0.3855
 7263SOL    HW223032   6.286   0.614   2.878 -0.0149  0.4680  0.1079
 7264SOL     OW23033   1.510   8.068   7.763 -0.1119 -0.0259 -0.4715
 7264SOL    HW123034   1.485   8.038   7.675  1.7213  1.1622 -1.4378
 7264SOL    HW223035   1.562   7.996   7.799  0.1841 -0.0176 -0.8714
 7265SOL     OW23036   2.303   5.400   6.263  0.3422 -0.0157 -0.0627
 7265SOL    HW123037   2.346   5.474   6.221 -1.5264  2.1597  1.7065
 7265SOL    HW223038   2.338   5.399   6.352  1.1745 -1.9917 -0.3781
 7266SOL     OW23039   0.676   7.061   1.927 -0.4239 -0.0967  0.2820
 7266SOL    HW123040   0.620   7.133   1.956  0.5404  1.0418 -0.6434
 7266SOL    HW223041   0.627   7.019   1.856 -0.4743  0.3854  0.0292
 7267SOL     OW23042   3.393   5.791   0.082 -0.7197  0.3172 -0.2243
 7267SOL    HW123043   3.470   5.759   0.130 -0.4812  0.0296 -0.8031
 7267SOL    HW223044   3.403   5.756  -0.006  0.0607  2.7914 -1.1610
 7268SOL     OW23045   5.116   4.902   7.408 -0.1951 -0.2812  0.4228
 7268SOL    HW123046   5.209   4.878   7.409 -0.8100 -2.7929  0.4376
 7268SOL    HW223047   5.116   4.995   7.384  2.3170 -0.2271  0.4640
 7269SOL     OW23048   3.999   6.396   3.795 -0.0414 -0.1280 -0.1025
 7269SOL    HW123049   3.944   6.465   3.757 -0.2338 -0.6013 -0.6992
 7269SOL    HW223050   4.027   6.431   3.879 -2.2032 -0.3456  0.7329
 7270SOL     OW23051   8.069   6.493   2.374  0.1029 -0.2232  0.0877
 7270SOL    HW123052   8.042   6.572   2.327 -0.3619 -1.0566 -1.0657
 7270SOL    HW223053   8.150   6.466   2.331 -1.0151 -1.7280 -1.1350
 7271SOL     OW23054   1.957   1.825   6.862  0.1744  0.1863 -0.6311
 7271SOL    HW123055   1.973   1.918   6.878  0.4684  0.0723 -0.2576
 7271SOL    HW223056   2.029   1.780   6.905 -0.9126 -0.3046  0.7083
 7272SOL     OW23057   4.671   2.887   0.983  0.1971 -0.2707 -0.4572
 7272SOL    HW123058   4.698   2.872   0.892 -0.9146  3.6486 -1.5540
 7272SOL    HW223059   4.650   2.980   0.986  0.1162 -0.3359  3.8436
 7273SOL     OW23060   6.143   2.002   4.272  0.3435  0.1311  0.2295
 7273SOL    HW123061   6.169   1.958   4.353 -0.9802  1.7465  1.5959
 7273SOL    HW223062   6.186   2.087   4.277  0.3585  0.1867 -0.8426
 7274SOL     OW23063   0.661   0.099   2.524 -0.6279 -0.2922  0.0401
 7274SOL    HW123064   0.740   0.060   2.487  0.0618  1.3981 -0.3044
 7274SOL    HW223065   0.657   0.066   2.613 -2.8443 -5.2380 -1.7094
 7275SOL     OW23066   0.230   0.589   0.492  0.3301  0.5745  0.6817
 7275SOL    HW123067   0.150   0.592   0.544 -0.2931  1.0683 -0.2938
 7275SOL    HW223068   0.202   0.562   0.405  0.8170  3.3523 -0.3932
 7276SOL     OW23069   6.086   3.512   5.052  0.4686  0.1551  0.1735
 7276SOL    HW123070   6.148   3.582   5.073  1.8064 -1.5209  2.0350
 7276SOL    HW223071   6.133   3.456   4.990  0.2417 -0.2607  0.3724
 7277SOL     OW23072   0.041   6.889   6.903  0.1541  0.4595 -0.1417
 7277SOL    HW123073   0.122   6.930   6.935  0.4585  1.1392 -1.7617
 7277SOL    HW223074  -0.029   6.935   6.950  0.6501  0.6601  0.4037
 7278SOL     OW23075   2.030   7.770   6.130 -0.0564  0.0129  0.0336
 7278SOL    HW123076   1.964   7.837   6.146  0.6018  0.0403  2.8066
 7278SOL    HW223077   2.111   7.819   6.118  0.3271 -0.2238  1.5338
 7279SOL     OW23078   4.740   7.110   1.292 -0.2079 -0.7241  0.0746
 7279SOL    HW123079   4.670   7.104   1.227 -0.6084  1.2853  0.2768
 7279SOL    HW223080   4.814   7.146   1.244  0.0698 -0.9694  0.3171
 7280SOL     OW23081   1.815   1.832   3.461  0.3477 -0.4921 -0.3741
 7280SOL    HW123082   1.730   1.869   3.438  0.9883  0.3960 -1.3847
 7280SOL    HW223083   1.853   1.893   3.523 -0.2010 -1.4556  0.9303
 7281SOL     OW23084   4.370   3.474   1.772 -0.2076  0.0185  0.0468
 7281SOL    HW123085   4.297   3.530   1.745 -1.5544 -2.9173 -2.6108
 7281SOL    HW223086   4.444   3.506   1.720 -0.3283  0.9689  0.4411
 7282SOL     OW23087   5.130   5.375   1.837  0.1471 -0.6214  0.8404
 7282SOL    HW123088   5.222   5.351   1.842  0.0467 -0.8142  1.7885
 7282SOL    HW223089   5.096   5.325   1.762  1.2738  1.0292 -0.8183
 7283SOL     OW23090   4.061   4.965   4.282 -0.0355 -0.4072 -0.0062
 7283SOL    HW123091   4.061   4.990   4.374 -0.9029  0.2189 -0.1756
 7283SOL    HW223092   4.066   4.869   4.283  4.5873 -0.3065  0.6495
 7284SOL     OW23093   1.062   2.497   3.721 -0.0405 -0.1893 -0.4013
 7284SOL    HW123094   0.998   2.428   3.740  1.2436 -0.9534  1.3647
 7284SOL    HW223095   1.010   2.577   3.713 -1.3982 -1.0984 -0.9029
 7285SOL     OW23096   1.259   3.991   7.275  0.7897  0.1464  0.0704
 7285SOL    HW123097   1.284   3.903   7.246  0.8229  0.4340 -0.7750
 7285SOL    HW223098   1.168   4.001   7.248  1.4450  1.2032 -1.8198
 7286SOL     OW23099   3.776   6.810   0.792  0.3838 -0.2351 -0.2539
 7286SOL    HW123100   3.760   6.732   0.845  1.2447 -1.8099 -2.2525
 7286SOL    HW223101   3.871   6.809   0.776  0.4623  1.4288 -0.0009
 7287SOL     OW23102   3.649   6.700   8.083  0.2125  0.0523 -0.1912
 7287SOL    HW123103   3.737   6.713   8.047  0.5717  0.7837  0.9047
 7287SOL    HW223104   3.637   6.774   8.143 -1.4012  0.2939 -0.8062
 7288SOL     OW23105   7.430   7.308   7.772  0.0853 -0.0356 -0.2091
 7288SOL    HW123106   7.348   7.357   7.766 -1.5032 -2.4976  0.3426
 7288SOL    HW223107   7.437   7.285   7.865  1.3983  0.1506 -0.2528
 7289SOL     OW23108   3.926   7.289   7.881  0.6792 -0.0225  0.2690
 7289SOL    HW123109   3.896   7.371   7.922  0.8488  0.2368 -0.1191
 7289SOL    HW223110   4.014   7.276   7.917  0.6470 -0.0423  0.3420
 7290SOL     OW23111   5.472   6.994   0.063  0.3627  0.3608 -0.2442
 7290SOL    HW123112   5.451   6.978   0.155  2.1462  2.1938  0.5153
 7290SOL    HW223113   5.538   7.063   0.065  0.5952  0.2666 -2.9035
 7291SOL     OW23114   1.987   4.866   2.588 -0.0777  0.0843 -0.1365
 7291SOL    HW123115   1.894   4.871   2.567 -0.3723  2.2882  1.4840
 7291SOL    HW223116   2.018   4.956   2.580  1.3034 -0.1678  2.0144
 7292SOL     OW23117   0.100   3.688   3.580 -0.2787  0.3649  1.0743
 7292SOL    HW123118   0.100   3.781   3.558 -1.2074  0.3063  0.7907
 7292SOL    HW223119   0.192   3.666   3.592  0.0781  0.9388 -0.4915
 7293SOL     OW23120   2.716   0.249   5.658 -0.0326  0.1020 -0.2627
 7293SOL    HW123121   2.791   0.191   5.667 -0.7968 -0.6229  1.8143
 7293SOL    HW223122   2.642   0.190   5.644 -0.4731  0.7109 -0.5203
 7294SOL     OW23123   3.616   3.451   3.106  0.0097  0.7603  0.1215
 7294SOL    HW123124   3.684   3.499   3.059 -0.5209  2.9401  1.5179
 7294SOL    HW223125   3.596   3.506   3.182 -0.7314 -1.6031  1.6952
 7295SOL     OW23126   6.409   5.110   4.545  0.1095 -0.7881 -0.1950
 7295SOL    HW123127   6.457   5.186   4.578  1.1096 -1.1432 -0.8005
 7295SOL    HW223128   6.341   5.147   4.488  0.0847 -0.3168  0.1378
 7296SOL     OW23129   1.292   0.246   5.842 -0.2479 -0.0615  0.1782
 7296SOL    HW123130   1.358   0.312   5.822  1.4082 -1.7882 -0.1848
 7296SOL    HW223131   1.293   0.239   5.938  0.1575 -0.1436  0.1680
 7297SOL     OW23132   0.450   6.655   0.421 -0.5220  0.5598 -0.7234
 7297SOL    HW123133   0.485   6.721   0.360  0.2185 -0.4485 -1.4144
 7297SOL    HW223134   0.442   6.576   0.367 -0.0983 -0.2760  0.4416
 7298SOL     OW23135   5.062   1.415   1.345 -0.4045  0.0671  0.0102
 7298SOL    HW123136   5.081   1.455   1.430 -2.6146  0.6009  0.2861
 7298SOL    HW223137   5.014   1.484   1.297 -0.7656 -0.8632 -0.9748
 7299SOL     OW23138   4.393   4.067   5.803 -0.4802 -0.2160  0.2476
 7299SOL    HW123139   4.367   4.086   5.713  0.5466 -1.8805 -0.4144
 7299SOL    HW223140   4.362   4.143   5.853 -0.0398  1.2626 -1.6750
 7300SOL     OW23141   6.464   0.912   7.878 -0.4965 -0.8271 -0.4641
 7300SOL    HW123142   6.539   0.897   7.935  0.5176 -0.8432 -1.7774
 7300SOL    HW223143   6.427   0.825   7.864 -0.9291 -0.7894  0.3902
 7301SOL     OW23144   3.805   0.597   6.305  0.2533 -0.0514 -0.7940
 7301SOL    HW123145   3.892   0.563   6.326 -0.4335 -1.2793  0.1161
 7301SOL    HW223146   3.792   0.668   6.367 -0.2324 -1.2329  0.4901
 7302SOL     OW23147   4.819   5.027   5.630 -0.5599 -0.1143 -0.1562
 7302SOL    HW123148   4.855   5.004   5.715  0.4246 -0.5779 -0.6863
 7302SOL    HW223149   4.737   4.977   5.624 -0.3245 -0.5493  0.2608
 7303SOL     OW23150   4.142   6.559   1.293 -0.2527  0.7404 -0.0327
 7303SOL    HW123151   4.197   6.513   1.356  1.0491  0.4135 -1.3848
 7303SOL    HW223152   4.055   6.520   1.304  0.1869 -0.0121  0.8410
 7304SOL     OW23153   7.417   5.395   2.987  0.4702 -0.1652  0.0160
 7304SOL    HW123154   7.476   5.455   2.941  0.7182 -1.4854 -1.4468
 7304SOL    HW223155   7.331   5.437   2.980  0.6645  0.1045 -0.8691
 7305SOL     OW23156   5.166   5.155   6.758 -0.1093 -0.1137  0.8276
 7305SOL    HW123157   5.099   5.184   6.696  0.4273 -2.6082 -1.0328
 7305SOL    HW223158   5.240   5.214   6.743  0.1607 -0.9191 -1.2764
 7306SOL     OW23159   2.268   6.332   1.478 -0.3686  0.6616  0.0169
 7306SOL    HW123160   2.349   6.334   1.427 -1.1905  1.0639 -1.2673
 7306SOL    HW223161   2.286   6.392   1.552  1.2602 -0.8906  0.9305
 7307SOL     OW23162   3.209   2.699   5.187 -0.1505 -0.5847 -0.1942
 7307SOL    HW123163   3.151   2.717   5.261  0.6337  2.2604 -0.2136
 7307SOL    HW223164   3.156   2.720   5.110  0.0106 -0.6552 -0.3237
 7308SOL     OW23165   2.421   7.979   1.741  0.3543 -0.1958 -0.4726
 7308SOL    HW123166   2.393   7.939   1.658 -0.9844  0.0230 -0.1380
 7308SOL    HW223167   2.357   8.048   1.758  0.3639 -0.5144  0.9601
 7309SOL     OW23168   1.691   2.089   6.130  0.1018 -0.1762 -0.1867
 7309SOL    HW123169   1.673   2.001   6.162  1.1354 -0.4860 -0.4559
 7309SOL    HW223170   1.609   2.116   6.088  0.4490 -1.8354 -1.9839
 7310SOL     OW23171   3.751   5.127   7.887  0.1139 -0.0909  1.0227
 7310SOL    HW123172   3.761   5.156   7.978  1.0968 -1.0873  1.2476
 7310SOL    HW223173   3.789   5.039   7.886 -1.4795 -0.7797  0.0399
 7311SOL     OW23174   3.459   5.737   3.534 -0.1900  0.0855  0.7235
 7311SOL    HW123175   3.407   5.812   3.506  0.3071  0.6624  1.3244
 7311SOL    HW223176   3.466   5.681   3.457  0.3012  1.1501 -0.0014
 7312SOL     OW23177   3.876   3.014   4.896  0.1175  0.6238 -0.0495
 7312SOL    HW123178   3.824   3.089   4.927 -1.5290  0.0181 -1.2486
 7312SOL    HW223179   3.822   2.938   4.919  0.4260 -0.0101 -1.4143
 7313SOL     OW23180   3.723   7.586   3.451  0.2235 -0.5369 -0.4344
 7313SOL    HW123181   3.723   7.495   3.482 -0.6902 -0.3994 -0.0061
 7313SOL    HW223182   3.632   7.613   3.458  0.4818  0.3913 -0.6521
 7314SOL     OW23183   2.086   3.740   2.900  0.2986 -0.3706 -0.1200
 7314SOL    HW123184   2.033   3.764   2.976  2.2083 -0.5386  1.3049
 7314SOL    HW223185   2.083   3.645   2.897 -0.3775 -0.3348 -0.7075
 7315SOL     OW23186   3.474   1.592   7.016  0.3787  0.2833  0.7294
 7315SOL    HW123187   3.550   1.617   7.069  0.7738  0.2005  0.2088
 7315SOL    HW223188   3.483   1.643   6.935 -0.1622  0.3339  0.7016
 7316SOL     OW23189   5.060   5.560   0.971  0.1799 -0.0864 -0.3853
 7316SOL    HW123190   5.018   5.636   1.013  1.2876 -0.2532  1.0913
 7316SOL    HW223191   5.075   5.499   1.043  4.0517  0.4870 -0.6009
 7317SOL     OW23192   5.014   2.517   0.882  0.0856 -0.8075 -0.1591
 7317SOL    HW123193   5.099   2.475   0.873  1.5298  1.9048  0.2659
 7317SOL    HW223194   5.013   2.551   0.972 -0.3663  1.3409 -0.9235
 7318SOL     OW23195   5.142   5.709   5.755  0.1466  0.4992 -0.0331
 7318SOL    HW123196   5.191   5.788   5.735  1.9455 -0.4814  0.4274
 7318SOL    HW223197   5.204   5.652   5.800 -0.9241 -1.4459 -0.9436
 7319SOL     OW23198   5.567   4.700   0.058  0.8994 -0.4009  0.0115
 7319SOL    HW123199   5.486   4.687   0.008  0.4495  0.2877  0.5399
 7319SOL    HW223200   5.609   4.776   0.017  0.1079  0.6960  1.1812
 7320SOL     OW23201   7.979   6.466   4.177 -0.3655  0.6103 -0.5329
 7320SOL    HW123202   7.971   6.435   4.087 -1.4555 -0.7964  0.0221
 7320SOL    HW223203   8.067   6.502   4.182  0.0905 -0.2566 -1.8840
 7321SOL     OW23204   5.349   7.040   8.058 -0.4311 -0.2007 -0.3028
 7321SOL    HW123205   5.411   6.968   8.068 -0.3274  0.0916  1.3998
 7321SOL    HW223206   5.313   7.053   8.146 -3.6756 -1.0152 -1.4395
 7322SOL     OW23207   5.677   0.460   3.746  0.2898  0.1692  0.0167
 7322SOL    HW123208   5.661   0.396   3.678 -1.4410  0.3567  0.2331
 7322SOL    HW223209   5.669   0.545   3.703  1.1258  0.2650  0.0413
 7323SOL     OW23210   0.029   6.258   7.686  0.0249 -0.2980 -0.1100
 7323SOL    HW123211   0.008   6.292   7.773 -0.0833  0.6375 -0.4990
 7323SOL    HW223212  -0.049   6.208   7.661  0.0968 -0.6563  0.3683
 7324SOL     OW23213   4.042   6.441   0.733 -0.5565 -0.2052 -0.3422
 7324SOL    HW123214   4.073   6.369   0.678 -0.5824 -1.2381  0.9591
 7324SOL    HW223215   4.048   6.519   0.677  0.2614 -1.0828 -1.4969
 7325SOL     OW23216   2.215   5.208   6.100 -0.0676 -0.4819 -0.0936
 7325SOL    HW123217   2.125   5.237   6.087  0.1382  0.3523  0.3415
 7325SOL    HW223218   2.253   5.272   6.161  0.6212 -1.2056  0.2476
 7326SOL     OW23219   5.366   8.111   6.411 -0.0760  0.1890  0.0832
 7326SOL    HW123220   5.304   8.111   6.484 -0.0594  3.4767  0.1733
 7326SOL    HW223221   5.320   8.158   6.341  1.1086 -0.1422 -0.9316
 7327SOL     OW23222   0.014   8.205   1.289  0.0314 -0.0859  0.0316
 7327SOL    HW123223  -0.075   8.169   1.292  0.2449 -0.6191  0.0159
 7327SOL    HW223224   0.003   8.297   1.312 -0.4641 -0.2599  0.5108
 7328SOL     OW23225   4.985   4.010   3.048 -0.2823  0.2214 -0.0831
 7328SOL    HW123226   5.072   4.002   3.007 -0.4815  1.6306 -0.7804
 7328SOL    HW223227   4.931   3.946   3.002  0.1417  0.0011 -0.2803
 7329SOL     OW23228   7.588   2.564   1.848  0.2545  0.2484 -0.0918
 7329SOL    HW123229   7.605   2.483   1.897  1.2860  2.3391  3.1875
 7329SOL    HW223230   7.493   2.570   1.843  0.1528 -0.7055  0.5044
 7330SOL     OW23231   0.995   7.105   1.210 -0.0645  0.4268 -0.4606
 7330SOL    HW123232   0.949   7.042   1.265 -1.2149  1.7850  0.1925
 7330SOL    HW223233   1.087   7.084   1.221 -0.4174 -0.8587  0.0875
 7331SOL     OW23234   2.143   4.750   3.118 -0.6132  0.3934  0.0746
 7331SOL    HW123235   2.201   4.741   3.042  0.4097  1.1039  0.7642
 7331SOL    HW223236   2.103   4.664   3.129  1.3942 -0.5058  0.4729
 7332SOL     OW23237   4.598   2.091   6.077 -0.2961  0.2021  0.6663
 7332SOL    HW123238   4.535   2.104   6.006 -2.4197 -0.0796  2.4381
 7332SOL    HW223239   4.683   2.087   6.033 -1.4896  0.6702 -1.7843
 7333SOL     OW23240   7.014   3.374   4.922 -0.3623 -0.2539  0.2647
 7333SOL    HW123241   7.039   3.372   5.014  0.2990  1.6516  0.1428
 7333SOL    HW223242   6.981   3.286   4.904 -0.1077 -0.7583  2.2058
 7334SOL     OW23243   7.222   4.733   4.948  0.0285 -0.2474 -0.1532
 7334SOL    HW123244   7.180   4.783   5.018  1.7015  0.1381  0.5874
 7334SOL    HW223245   7.211   4.787   4.870  0.2655  0.4277  0.2834
 7335SOL     OW23246   6.281   4.541   6.862  0.1016  0.6731  0.2415
 7335SOL    HW123247   6.353   4.585   6.906  1.3946 -0.0886 -1.0638
 7335SOL    HW223248   6.304   4.545   6.769 -1.7149  0.7293 -0.2249
 7336SOL     OW23249   8.216   4.873   4.650  0.3212 -0.0786  0.4750
 7336SOL    HW123250   8.280   4.806   4.626  0.9044  0.6771 -0.1396
 7336SOL    HW223251   8.146   4.826   4.694  0.4566 -1.1710 -0.4592
 7337SOL     OW23252   0.822   7.096   0.506  0.6485  0.8505 -0.0222
 7337SOL    HW123253   0.758   7.156   0.469  0.1537 -0.2574 -1.0179
 7337SOL    HW223254   0.779   7.010   0.503  1.0221  0.5520  2.1309
 7338SOL     OW23255   0.868   6.130   3.737 -0.5861  0.2193  0.5967
 7338SOL    HW123256   0.921   6.172   3.669  1.9614 -1.4122  1.5002
 7338SOL    HW223257   0.855   6.198   3.803 -0.0683  0.8019  0.1072
 7339SOL     OW23258   0.456   6.693   5.780 -0.2675 -0.0745  0.1264
 7339SOL    HW123259   0.468   6.598   5.776 -0.4722 -0.1353  0.8117
 7339SOL    HW223260   0.527   6.728   5.727  0.5423 -0.5811  0.8457
 7340SOL     OW23261   3.308   5.221   4.994 -0.2878 -0.5354  0.1336
 7340SOL    HW123262   3.243   5.244   5.060 -0.1647  0.8250 -0.2117
 7340SOL    HW223263   3.288   5.278   4.920  0.1806 -1.3703 -0.6458
 7341SOL     OW23264   8.257   1.738   5.662 -0.2347 -0.3014 -0.0797
 7341SOL    HW123265   8.166   1.713   5.682 -1.0362  1.8181 -0.8759
 7341SOL    HW223266   8.264   1.729   5.567  0.1452  0.3209 -0.1084
 7342SOL     OW23267   6.093   5.375   4.098 -0.2602  0.1645 -0.0046
 7342SOL    HW123268   6.027   5.351   4.164  0.4860 -0.5557  0.4856
 7342SOL    HW223269   6.160   5.422   4.148 -0.4103  0.8998 -0.5053
 7343SOL     OW23270   4.346   5.715   1.717 -0.0165  0.2091 -0.2162
 7343SOL    HW123271   4.298   5.798   1.712 -0.7032 -0.0396  1.7298
 7343SOL    HW223272   4.289   5.658   1.768  0.4294 -1.4952 -1.5691
 7344SOL     OW23273   2.611   4.350   1.939 -0.2871 -0.1245  0.0629
 7344SOL    HW123274   2.630   4.262   1.971  1.1058  0.4746  0.9620
 7344SOL    HW223275   2.532   4.341   1.886 -2.0495 -1.3687  2.8214
 7345SOL     OW23276   6.645   5.860   0.536 -0.5640 -0.2061 -0.0770
 7345SOL    HW123277   6.554   5.885   0.555 -0.4096  0.7627 -0.5989
 7345SOL    HW223278   6.636   5.784   0.478 -1.0594  0.7420 -1.2700
 7346SOL     OW23279   5.965   5.197   2.556  0.3859  0.0178  0.0745
 7346SOL    HW123280   5.925   5.274   2.596  1.6609  0.4136  0.6200
 7346SOL    HW223281   6.044   5.181   2.608  1.1602 -0.4942 -1.2265
 7347SOL     OW23282   3.458   1.608   3.956 -0.0546  0.2472 -0.2234
 7347SOL    HW123283   3.514   1.592   4.032 -1.8971 -0.6877  0.9870
 7347SOL    HW223284   3.444   1.522   3.918  0.4724  0.6578 -1.3603
 7348SOL     OW23285   8.215   6.502   1.739  0.2190 -0.1219 -0.1490
 7348SOL    HW123286   8.222   6.406   1.739  0.1953 -0.1313 -1.6648
 7348SOL    HW223287   8.141   6.521   1.682 -0.3818  0.7801  0.8967
 7349SOL     OW23288   4.522   0.072   8.008 -0.5279 -0.0037  0.1793
 7349SOL    HW123289   4.601   0.019   8.002  0.7936  1.3771  3.8142
 7349SOL    HW223290   4.451   0.009   8.021  0.5042 -1.0719  0.6991
 7350SOL     OW23291   1.062   5.342   5.535 -0.1940 -0.2594 -0.0928
 7350SOL    HW123292   1.149   5.364   5.567 -0.3215 -0.8030  0.6451
 7350SOL    HW223293   1.060   5.246   5.534 -1.2339 -0.2660  1.1760
 7351SOL     OW23294   6.581   4.935   0.857 -0.0900 -0.2050 -0.2116
 7351SOL    HW123295   6.617   4.857   0.899  1.3157  0.2799 -0.4870
 7351SOL    HW223296   6.540   4.902   0.777 -0.6510 -0.8218  0.3236
 7352SOL     OW23297   0.546   6.638   4.513  0.0314 -0.2297 -0.3476
 7352SOL    HW123298   0.592   6.693   4.450 -1.6259  2.1552  0.4151
 7352SOL    HW223299   0.614   6.606   4.572  1.1261  0.5024 -1.1908
 7353SOL     OW23300   4.900   3.303   7.190  0.1887 -0.2737  0.5323
 7353SOL    HW123301   4.896   3.297   7.285  0.7557  2.9517  0.8217
 7353SOL    HW223302   4.862   3.221   7.159 -2.5656 -0.2347  3.5106
 7354SOL     OW23303   2.262   6.027   3.431  0.0335  0.2123  0.2283
 7354SOL    HW123304   2.186   6.050   3.484 -0.8399 -0.5253 -0.6933
 7354SOL    HW223305   2.287   6.110   3.389 -0.5038  0.3732  0.2214
 7355SOL     OW23306   0.623   1.562   0.213 -0.2423 -0.5339 -0.8858
 7355SOL    HW123307   0.578   1.569   0.297 -0.9443  0.9624 -1.3643
 7355SOL    HW223308   0.609   1.647   0.171  2.7507 -0.1251 -1.2097
 7356SOL     OW23309   5.890   0.547   2.385  0.0130  0.1414 -0.1945
 7356SOL    HW123310   5.856   0.557   2.296 -2.1187 -1.5716  0.3774
 7356SOL    HW223311   5.839   0.609   2.437 -0.4214 -0.5785  0.2374
 7357SOL     OW23312   3.720   1.065   3.411 -0.0590 -0.2521 -0.2512
 7357SOL    HW123313   3.641   1.118   3.399 -0.5478 -1.0161 -0.4571
 7357SOL    HW223314   3.751   1.087   3.499 -0.2163  0.4297 -0.3689
 7358SOL     OW23315   1.030   2.890   3.222 -0.1152 -0.3868  0.2167
 7358SOL    HW123316   1.023   2.940   3.304 -2.6554 -0.6347  0.1863
 7358SOL    HW223317   1.020   2.799   3.249  0.6456 -0.5959 -0.1973
 7359SOL     OW23318   6.662   5.977   4.513  0.0788 -0.1360  0.5443
 7359SOL    HW123319   6.620   6.034   4.578  0.3199 -1.4852  1.9143
 7359SOL    HW223320   6.592   5.917   4.486  0.4068 -0.6322  0.7912
 7360SOL     OW23321   7.498   2.887   1.090 -0.1235  0.2834 -0.4432
 7360SOL    HW123322   7.412   2.882   1.132 -0.5445 -0.3794 -1.3944
 7360SOL    HW223323   7.536   2.969   1.124 -0.3825 -0.3155  1.3741
 7361SOL     OW23324   6.298   2.458   5.546  0.3268 -0.2108  0.1098
 7361SOL    HW123325   6.204   2.463   5.562  0.3663 -0.2711  0.3566
 7361SOL    HW223326   6.307   2.397   5.472  0.0170  1.5330 -1.4028
 7362SOL     OW23327   7.054   5.084   2.436 -0.0835 -0.0469 -0.3569
 7362SOL    HW123328   7.035   5.095   2.343  0.2824  0.3254 -0.3891
 7362SOL    HW223329   7.140   5.042   2.438 -0.9896 -1.9208 -0.2175
 7363SOL     OW23330   1.882   4.116   4.217 -0.0108  0.5747 -0.6762
 7363SOL    HW123331   1.836   4.053   4.162  4.0883 -2.0026 -1.3853
 7363SOL    HW223332   1.918   4.064   4.288  1.2017  2.5779  0.2212
 7364SOL     OW23333   2.159   6.736   6.668  0.1174  0.8222 -0.5587
 7364SOL    HW123334   2.214   6.668   6.708 -0.6004  1.1893  1.1121
 7364SOL    HW223335   2.221   6.790   6.619  1.0291  0.2823 -0.0306
 7365SOL     OW23336   7.511   3.654   4.452  0.0223  0.8995  0.0080
 7365SOL    HW123337   7.506   3.671   4.546  1.3448 -0.8898  0.4318
 7365SOL    HW223338   7.592   3.697   4.424 -0.8645  2.2544 -0.5164
 7366SOL     OW23339   2.000   3.939   7.183  0.7819  0.4526 -0.3163
 7366SOL    HW123340   1.995   3.984   7.268  1.7871 -0.1957  0.0993
 7366SOL    HW223341   2.081   3.888   7.188  0.2171 -0.5556 -1.1894
 7367SOL     OW23342   4.773   2.838   6.077 -0.3170 -0.0793 -0.2328
 7367SOL    HW123343   4.723   2.910   6.037 -0.0650  0.4005  0.3106
 7367SOL    HW223344   4.816   2.794   6.003 -0.9759 -0.0607 -0.6318
 7368SOL     OW23345   3.214   0.352   2.480 -0.2162 -0.6963 -0.3280
 7368SOL    HW123346   3.205   0.404   2.400  0.2297  0.3920  0.3068
 7368SOL    HW223347   3.249   0.268   2.451 -1.6488 -0.9123 -1.4700
 7369SOL     OW23348   7.563   0.406   1.787 -0.0983 -0.3273  0.6849
 7369SOL    HW123349   7.561   0.501   1.772 -0.3134 -0.4724 -0.2054
 7369SOL    HW223350   7.522   0.395   1.872  0.7572  0.4664  1.2186
 7370SOL     OW23351   6.432   4.256   6.968 -0.2828 -0.3238 -0.3951
 7370SOL    HW123352   6.353   4.303   6.942 -0.4573 -0.6964 -0.5239
 7370SOL    HW223353   6.471   4.313   7.035 -0.2125  0.2730 -0.9337
 7371SOL     OW23354   1.361   3.188   0.794 -0.0677 -0.6400  0.5417
 7371SOL    HW123355   1.450   3.196   0.825 -0.1729 -0.0106  0.6747
 7371SOL    HW223356   1.309   3.245   0.850  0.4987  4.7062 -3.9647
 7372SOL     OW23357   4.341   0.176   3.260 -0.5543 -0.5732  0.0728
 7372SOL    HW123358   4.320   0.237   3.332  0.4774 -0.2240  0.0878
 7372SOL    HW223359   4.372   0.232   3.189 -0.7069 -0.9921 -0.3277
 7373SOL     OW23360   2.053   0.224   1.912 -0.7621 -0.6222  0.2543
 7373SOL    HW123361   2.058   0.128   1.910  0.1654 -0.6049  1.0133
 7373SOL    HW223362   2.132   0.250   1.960 -0.9340  0.5284 -0.0890
 7374SOL     OW23363   1.246   3.400   3.147 -0.5691  0.1257 -0.5826
 7374SOL    HW123364   1.190   3.446   3.210  0.1227  1.2286 -0.7735
 7374SOL    HW223365   1.301   3.343   3.201  0.6861  1.7667 -0.0942
 7375SOL     OW23366   4.980   7.778   3.309  0.0148  0.0485  0.2536
 7375SOL    HW123367   4.955   7.833   3.383  0.5456 -0.4083  0.7813
 7375SOL    HW223368   4.917   7.799   3.240  0.8916  2.1369  0.0700
 7376SOL     OW23369   6.312   2.255   5.731 -0.0139  0.6017  0.2540
 7376SOL    HW123370   6.320   2.293   5.818  1.4081  1.1628 -0.1100
 7376SOL    HW223371   6.308   2.330   5.672  0.9775  0.2092 -0.3252
 7377SOL     OW23372   7.890   2.852   0.548  0.1733  0.6017 -0.1348
 7377SOL    HW123373   7.910   2.847   0.641 -0.3345 -2.8731 -0.1607
 7377SOL    HW223374   7.803   2.891   0.545  0.4973  1.4161  0.7925
 7378SOL     OW23375   0.599   5.676   8.275 -0.5110 -0.3951  0.1847
 7378SOL    HW123376   0.670   5.641   8.328  0.4310 -0.5215 -1.1331
 7378SOL    HW223377   0.551   5.734   8.334  0.5478 -0.4847  1.1444
 7379SOL     OW23378   7.427   5.260   0.394  0.2586  0.2247  0.7719
 7379SOL    HW123379   7.386   5.281   0.478  0.8170 -0.1016  1.1310
 7379SOL    HW223380   7.443   5.166   0.398  0.7089  0.2884  0.4842
 7380SOL     OW23381   7.065   4.673   0.150  0.3569  0.6301  0.4568
 7380SOL    HW123382   6.989   4.703   0.100 -0.1145  1.8396  1.8879
 7380SOL    HW223383   7.085   4.586   0.113 -1.4921  0.4522 -0.1601
 7381SOL     OW23384   5.903   3.148   0.663  0.8191  0.3840 -0.1175
 7381SOL    HW123385   5.831   3.105   0.710  1.4788 -0.9800 -0.3387
 7381SOL    HW223386   5.973   3.083   0.661  2.5339  2.1354  1.2009
 7382SOL     OW23387   0.083   3.031   0.257  0.3305 -0.5813  0.1440
 7382SOL    HW123388   0.056   2.978   0.182 -1.7944 -0.4964  0.7926
 7382SOL    HW223389   0.032   3.111   0.250  1.3581  0.1330  0.7606
 7383SOL     OW23390   6.253   1.339   4.638  0.3991  0.0884  0.2471
 7383SOL    HW123391   6.228   1.409   4.699  0.5422  0.9393 -0.6596
 7383SOL    HW223392   6.175   1.325   4.585  0.9771  0.8910 -0.8272
 7384SOL     OW23393   0.956   2.120   2.959  0.2315  0.3210 -0.1146
 7384SOL    HW123394   0.924   2.190   3.015  0.3797 -0.9869  1.6623
 7384SOL    HW223395   1.043   2.149   2.931  1.2008 -0.1059  2.3855
 7385SOL     OW23396   2.431   5.378   7.786 -0.1687 -0.0733 -0.3487
 7385SOL    HW123397   2.474   5.333   7.713 -0.6530 -1.6667  0.3154
 7385SOL    HW223398   2.488   5.361   7.861  0.9477  2.5619 -0.5575
 7386SOL     OW23399   6.973   0.000   6.505  0.1001  0.3425 -0.6958
 7386SOL    HW123400   6.895  -0.010   6.560 -0.6117  0.6784 -1.6358
 7386SOL    HW223401   6.987   0.095   6.500  0.4241  0.2937 -0.7485
 7387SOL     OW23402   2.074   1.089   1.885 -0.3632  0.1629  0.3862
 7387SOL    HW123403   2.156   1.138   1.893 -0.3691  0.3740 -0.7680
 7387SOL    HW223404   2.065   1.071   1.792 -2.0852  0.9218  0.3776
 7388SOL     OW23405   2.959   1.395   6.666 -0.1666 -0.5122 -0.0155
 7388SOL    HW123406   2.956   1.344   6.747  2.3137 -0.3081  0.2345
 7388SOL    HW223407   2.991   1.481   6.693 -0.8501  0.0631 -0.9969
 7389SOL     OW23408   2.739   5.324   4.192 -0.2462  0.5534 -0.3557
 7389SOL    HW123409   2.694   5.262   4.249  0.0650  0.6508 -0.0050
 7389SOL    HW223410   2.669   5.364   4.140 -0.5362  0.5290  0.0178
 7390SOL     OW23411   6.593   6.479   8.151  0.0038  0.4856  0.2481
 7390SOL    HW123412   6.658   6.542   8.184 -0.7951  2.3185 -1.5955
 7390SOL    HW223413   6.554   6.442   8.230  1.1281  1.6590  1.3786
 7391SOL     OW23414   4.122   7.274   8.081 -0.1260  0.3718  0.2011
 7391SOL    HW123415   4.192   7.276   8.015 -0.7429 -2.8890 -0.6017
 7391SOL    HW223416   4.165   7.240   8.159 -0.7290 -1.3417 -0.2062
 7392SOL     OW23417   2.493   8.035   3.511  0.1736  0.3764 -0.5589
 7392SOL    HW123418   2.514   8.021   3.604  1.3721  1.5517 -0.6335
 7392SOL    HW223419   2.524   7.956   3.467 -0.5160 -0.2450  0.0491
 7393SOL     OW23420   5.457   6.235   8.007  0.5172  0.3002  0.3373
 7393SOL    HW123421   5.507   6.178   7.947  1.7441  1.0157  0.6510
 7393SOL    HW223422   5.480   6.204   8.094  0.4047  0.6285  0.4844
 7394SOL     OW23423   5.260   3.029   4.296  0.2618 -0.2692 -0.0903
 7394SOL    HW123424   5.175   3.050   4.256  0.8815 -1.1308 -1.9110
 7394SOL    HW223425   5.322   3.085   4.250  0.4721  1.7030  2.5088
 7395SOL     OW23426   5.354   6.639   6.630 -0.1353  0.3999 -0.5881
 7395SOL    HW123427   5.323   6.609   6.716  1.0198  0.8862  0.0156
 7395SOL    HW223428   5.444   6.607   6.625  0.1659  1.3164 -1.1387
 7396SOL     OW23429   0.953   5.749   4.450  0.7388 -0.1419  0.5612
 7396SOL    HW123430   0.929   5.688   4.381  0.8348  2.3232 -1.7032
 7396SOL    HW223431   0.880   5.811   4.454  1.8672  1.1922  0.9423
 7397SOL     OW23432   4.841   2.372   2.809 -0.2459  0.5403 -0.0935
 7397SOL    HW123433   4.781   2.298   2.812  0.5350 -0.0704  0.6357
 7397SOL    HW223434   4.824   2.413   2.724  1.8062 -2.6264 -2.1849
 7398SOL     OW23435   5.075   0.027   6.657  0.0430  0.0495 -0.1478
 7398SOL    HW123436   4.993  -0.004   6.697 -0.5680  1.7295 -0.0505
 7398SOL    HW223437   5.132   0.047   6.731 -0.4264  1.4001 -0.1336
 7399SOL     OW23438   1.105   0.762   2.310  0.0738 -0.8902  0.2042
 7399SOL    HW123439   1.028   0.819   2.318  1.1321  0.7468 -0.8218
 7399SOL    HW223440   1.120   0.729   2.399  0.0237  1.2550  1.0379
 7400SOL     OW23441   5.197   8.141   0.835 -0.6768 -0.3764  0.4464
 7400SOL    HW123442   5.239   8.157   0.750  0.1611 -2.0304  0.5389
 7400SOL    HW223443   5.129   8.208   0.840 -1.0295 -0.5149 -1.7365
 7401SOL     OW23444   2.283   1.988   6.426 -0.6361 -0.1005  0.5211
 7401SOL    HW123445   2.251   2.044   6.497  0.4590 -0.0438  0.9769
 7401SOL    HW223446   2.356   1.940   6.464  0.4612  0.4919 -0.7731
 7402SOL     OW23447   3.046   1.526   6.411 -0.2177 -0.2505  0.0522
 7402SOL    HW123448   3.048   1.527   6.507  3.1588  0.1217  0.0215
 7402SOL    HW223449   2.961   1.488   6.390 -1.3508  0.3755  3.1813
 7403SOL     OW23450   5.735   2.720   7.977 -0.1462 -0.5234 -0.3149
 7403SOL    HW123451   5.803   2.676   7.927 -0.4519 -1.1907 -0.1485
 7403SOL    HW223452   5.690   2.775   7.913 -1.7904 -2.8432 -1.2268
 7404SOL     OW23453   3.012   5.834   8.183 -0.2781 -0.1361  0.1401
 7404SOL    HW123454   3.051   5.766   8.128 -0.2621  0.8118 -1.0525
 7404SOL    HW223455   2.969   5.786   8.254  1.2720 -1.2882  0.3261
 7405SOL     OW23456   0.459   5.000   3.339 -0.3911 -0.2721 -0.1954
 7405SOL    HW123457   0.390   4.970   3.398  0.3936  1.0955  1.4709
 7405SOL    HW223458   0.490   4.921   3.296 -1.1387 -1.2623  1.0625
 7406SOL     OW23459   1.342   1.919   6.947 -0.0808  0.4402 -0.1623
 7406SOL    HW123460   1.361   1.938   6.856 -0.4847  1.3132 -0.0722
 7406SOL    HW223461   1.266   1.861   6.944  1.1030 -1.1034 -0.4394
 7407SOL     OW23462   2.508   7.951   4.547  0.6194 -0.0730  0.3256
 7407SOL    HW123463   2.431   7.960   4.603  0.7434 -0.1770  0.5168
 7407SOL    HW223464   2.562   8.027   4.568  0.0805  0.5575 -0.5891
 7408SOL     OW23465   4.086   5.367   8.085  0.4811  0.3302  0.5097
 7408SOL    HW123466   4.001   5.410   8.079  1.0819  1.4114 -0.4464
 7408SOL    HW223467   4.076   5.303   8.155 -1.0603  0.5823  0.5254
 7409SOL     OW23468   1.948   2.316   5.460 -0.5909 -0.0677  0.6074
 7409SOL    HW123469   2.004   2.358   5.524  1.4952 -0.5248 -0.8572
 7409SOL    HW223470   1.908   2.388   5.411 -0.1752  0.2377  0.7226
 7410SOL     OW23471   8.028   7.647   3.166 -0.6330 -0.4881 -0.4092
 7410SOL    HW123472   7.944   7.672   3.203 -0.5882 -1.2300  0.1974
 7410SOL    HW223473   8.070   7.730   3.144 -1.1038 -0.0801  0.2132
 7411SOL     OW23474   2.513   5.045   5.818 -0.0290  0.2824  0.0191
 7411SOL    HW123475   2.606   5.063   5.835 -0.0060 -0.0218  0.2388
 7411SOL    HW223476   2.479   5.016   5.903  0.0968 -1.3429 -0.4673
 7412SOL     OW23477   4.579   5.068   1.994 -0.2555 -0.2428 -0.6768
 7412SOL    HW123478   4.632   5.027   1.926 -0.8067 -0.8117 -0.7714
 7412SOL    HW223479   4.534   4.995   2.037 -0.3309  0.1593 -0.0606
 7413SOL     OW23480   2.831   7.348   5.256 -0.0557 -0.0207  0.6101
 7413SOL    HW123481   2.815   7.374   5.347  0.4947  0.7074  0.4983
 7413SOL    HW223482   2.805   7.424   5.204  0.0132 -0.2885  0.1815
 7414SOL     OW23483   1.120   1.825   2.955  0.3918 -0.3251 -0.3009
 7414SOL    HW123484   1.136   1.919   2.967 -1.8811 -0.0864  1.1978
 7414SOL    HW223485   1.053   1.821   2.887  0.6200 -0.8774 -0.4958
 7415SOL     OW23486   5.288   1.305   5.734 -0.2052 -0.1967 -0.3489
 7415SOL    HW123487   5.274   1.326   5.642 -1.0393 -2.0768 -0.6741
 7415SOL    HW223488   5.382   1.313   5.747 -0.2877  1.7939 -0.9221
 7416SOL     OW23489   3.317   4.507   2.457 -0.5000 -0.0826  0.5743
 7416SOL    HW123490   3.334   4.430   2.402 -1.7266 -0.1952  0.3370
 7416SOL    HW223491   3.237   4.545   2.420  0.3527  1.5762  0.3952
 7417SOL     OW23492   3.250   4.266   6.657 -0.0769  0.1344 -0.2658
 7417SOL    HW123493   3.327   4.219   6.625 -1.0287 -1.2354 -0.5803
 7417SOL    HW223494   3.272   4.291   6.747  0.3102 -1.2053  0.0095
 7418SOL     OW23495   2.327   0.363   5.159  0.2015 -0.0177  0.0159
 7418SOL    HW123496   2.236   0.391   5.145  0.2488  0.5272  0.7948
 7418SOL    HW223497   2.373   0.442   5.186  0.7101 -0.4835  0.5314
 7419SOL     OW23498   6.715   5.297   3.689 -0.6082  0.5722 -0.2166
 7419SOL    HW123499   6.690   5.343   3.608 -0.3523  0.1952 -0.5104
 7419SOL    HW223500   6.670   5.345   3.758 -0.3509  1.2591 -0.5213
 7420SOL     OW23501   2.490   7.391   4.134  0.2060  0.1265 -0.0396
 7420SOL    HW123502   2.471   7.307   4.092  0.5912 -0.5784  1.1964
 7420SOL    HW223503   2.585   7.392   4.143  0.2219  0.8106 -0.2681
 7421SOL     OW23504   4.061   6.665   2.459 -0.3646  0.3216  0.2210
 7421SOL    HW123505   4.027   6.660   2.549 -0.9425  2.0789  0.1217
 7421SOL    HW223506   4.022   6.590   2.415 -1.2307  0.2501  1.0801
 7422SOL     OW23507   5.480   0.577   2.650 -0.1451  0.1388  0.2938
 7422SOL    HW123508   5.564   0.610   2.617 -0.2750  0.7055  0.5203
 7422SOL    HW223509   5.434   0.656   2.681 -2.0048  0.2726 -2.6013
 7423SOL     OW23510   4.832   3.468   3.307  0.2256  0.1799 -0.5805
 7423SOL    HW123511   4.870   3.481   3.393 -2.2832 -0.0501  0.6070
 7423SOL    HW223512   4.869   3.385   3.277  0.6292 -0.0523  0.5262
 7424SOL     OW23513   5.653   7.853   5.926 -0.4289 -0.8224 -0.3390
 7424SOL    HW123514   5.633   7.884   5.838 -0.6266  0.8240  0.2813
 7424SOL    HW223515   5.743   7.883   5.942 -0.6101 -0.5949  0.2542
 7425SOL     OW23516   6.530   7.227   4.917 -0.1242  0.0470 -0.0640
 7425SOL    HW123517   6.522   7.198   5.008  1.0040 -1.0742 -0.3182
 7425SOL    HW223518   6.616   7.197   4.889 -1.5982 -2.1810 -2.4014
 7426SOL     OW23519   4.449   0.390   3.098 -0.1201  0.3817  0.1085
 7426SOL    HW123520   4.354   0.392   3.086 -0.0009  1.0960 -0.8157
 7426SOL    HW223521   4.483   0.367   3.012  0.6276  2.2327 -0.1110
 7427SOL     OW23522   0.073   0.619   7.908 -0.3107 -0.0297 -0.4539
 7427SOL    HW123523   0.144   0.555   7.899  1.1518  1.8535 -3.0145
 7427SOL    HW223524   0.005   0.589   7.847  0.2532  0.6563 -1.4378
 7428SOL     OW23525   1.166   6.796   0.161  0.4602  0.4727 -0.0978
 7428SOL    HW123526   1.258   6.779   0.139  0.9015  1.8110  0.6031
 7428SOL    HW223527   1.170   6.832   0.250 -0.8267 -0.2947  0.2790
 7429SOL     OW23528   6.488   3.054   3.270  0.2123 -0.1704 -0.4232
 7429SOL    HW123529   6.499   2.990   3.341  0.9977  0.1213 -0.2792
 7429SOL    HW223530   6.407   3.026   3.226 -1.3165  0.7380  1.7167
 7430SOL     OW23531   1.181   7.830   0.810  0.3015  0.2278  0.0608
 7430SOL    HW123532   1.219   7.821   0.898 -1.2047  0.2352  0.7207
 7430SOL    HW223533   1.095   7.790   0.816  0.6667 -0.8999 -1.7631
 7431SOL     OW23534   3.724   7.536   5.959  0.2158  0.2098 -1.1753
 7431SOL    HW123535   3.704   7.449   5.996  1.0577  0.4883 -0.0341
 7431SOL    HW223536   3.747   7.519   5.868  0.5925 -0.7909 -0.9003
 7432SOL     OW23537   2.021   5.706   4.470 -0.0839 -0.0450 -0.5559
 7432SOL    HW123538   1.964   5.760   4.523  1.6183 -0.2716  1.6003
 7432SOL    HW223539   2.105   5.751   4.471  0.7182 -1.4816 -0.7065
 7433SOL     OW23540   0.762   3.559   4.180  0.1210  1.0168  0.7654
 7433SOL    HW123541   0.689   3.497   4.177  0.5492  0.5511 -0.3829
 7433SOL    HW223542   0.798   3.551   4.268  0.2729 -0.4744  0.5697
 7434SOL     OW23543   2.130   5.962   0.920  0.1914 -0.1050  0.3069
 7434SOL    HW123544   2.102   5.998   1.004  0.9305  2.1475 -0.3828
 7434SOL    HW223545   2.129   5.867   0.933 -1.4725  0.1611  2.2747
 7435SOL     OW23546   0.105   3.735   6.146  0.0739  0.0648  0.6775
 7435SOL    HW123547   0.045   3.794   6.192 -0.6952  0.2886 -0.5815
 7435SOL    HW223548   0.158   3.794   6.091 -0.3236 -0.3701 -0.1729
 7436SOL     OW23549   8.303   4.158   2.082  0.5144 -0.3174 -0.1995
 7436SOL    HW123550   8.306   4.136   2.175  0.2538  0.5393  0.0177
 7436SOL    HW223551   8.210   4.174   2.064  0.7333  0.9213 -0.2697
 7437SOL     OW23552   1.279   7.602   3.339 -1.0242  0.5740  0.4357
 7437SOL    HW123553   1.288   7.650   3.257 -2.4310  0.0995 -0.0219
 7437SOL    HW223554   1.186   7.611   3.362 -1.3701 -2.0124  0.2542
 7438SOL     OW23555   5.488   7.200   2.605  0.0519 -0.1958  0.7135
 7438SOL    HW123556   5.480   7.204   2.700  0.8279 -1.8395  0.8553
 7438SOL    HW223557   5.440   7.277   2.574  2.5428  2.2032  2.5740
 7439SOL     OW23558   4.469   6.996   0.070  0.2998  0.2496  0.4127
 7439SOL    HW123559   4.448   6.932   0.002  0.0027 -0.0504  0.7847
 7439SOL    HW223560   4.563   7.008   0.064  0.1363  1.0544 -0.7902
 7440SOL     OW23561   3.813   2.216   6.049 -0.1700 -0.2828 -0.7198
 7440SOL    HW123562   3.882   2.231   5.984 -0.2188 -0.7868 -0.8869
 7440SOL    HW223563   3.733   2.248   6.006 -0.1596 -0.3789 -0.8129
 7441SOL     OW23564   7.423   6.727   4.997 -0.0370 -0.2275 -0.0823
 7441SOL    HW123565   7.470   6.668   4.938  0.4653  0.4097 -0.3268
 7441SOL    HW223566   7.348   6.676   5.028 -0.3002 -0.5584 -1.2734
 7442SOL     OW23567   0.251   3.479   7.378  0.1469  0.2246  0.4444
 7442SOL    HW123568   0.233   3.389   7.351 -1.4358  0.7898 -0.4928
 7442SOL    HW223569   0.168   3.510   7.414  0.9321  1.0296  1.5727
 7443SOL     OW23570   3.663   1.037   0.026  0.0031 -0.2004  0.4837
 7443SOL    HW123571   3.718   0.973  -0.020 -0.5665 -0.4168  0.1038
 7443SOL    HW223572   3.725   1.105   0.055  0.2422  0.5229 -1.6065
 7444SOL     OW23573   3.161   1.842   6.359  0.3666  0.3423  0.2840
 7444SOL    HW123574   3.220   1.806   6.425  0.9723  0.5582 -0.1236
 7444SOL    HW223575   3.209   1.830   6.276  0.0921  1.0630  0.0209
 7445SOL     OW23576   1.396   0.992   3.093  0.1439 -0.6533 -0.2152
 7445SOL    HW123577   1.334   1.065   3.090  0.1710 -0.5785  0.8046
 7445SOL    HW223578   1.366   0.932   3.024 -0.2700  0.0067 -0.6127
 7446SOL     OW23579   7.638   0.475   0.151  0.3509 -0.6875 -0.0351
 7446SOL    HW123580   7.702   0.546   0.153 -0.9344  0.5204 -0.7973
 7446SOL    HW223581   7.662   0.424   0.073 -1.0861  1.1813 -1.7313
 7447SOL     OW23582   5.694   6.347   7.081 -0.5277 -0.0674  0.0247
 7447SOL    HW123583   5.787   6.350   7.106  0.0591  0.4577 -2.1157
 7447SOL    HW223584   5.652   6.410   7.139  0.7542  0.9737 -0.1486
 7448SOL     OW23585   1.266   3.259   1.190 -0.0842  0.6617 -0.1343
 7448SOL    HW123586   1.356   3.261   1.222 -0.5126  1.3356  1.0279
 7448SOL    HW223587   1.250   3.166   1.169  0.2337  0.2333  1.5014
 7449SOL     OW23588   6.711   1.848   3.139 -0.5202  0.2019 -0.1488
 7449SOL    HW123589   6.756   1.853   3.223 -0.9530 -1.6205  0.1934
 7449SOL    HW223590   6.780   1.826   3.076 -0.2152  1.4696 -0.2859
 7450SOL     OW23591   4.787   5.649   4.709  0.2689 -0.0632  0.6526
 7450SOL    HW123592   4.769   5.555   4.710  0.5506 -0.1324 -0.4722
 7450SOL    HW223593   4.866   5.658   4.656 -0.6947  0.9601 -0.6658
 7451SOL     OW23594   3.786   1.904   1.110  0.2006 -0.3551 -0.5032
 7451SOL    HW123595   3.771   1.891   1.016  0.1406  0.1058 -0.5576
 7451SOL    HW223596   3.872   1.945   1.115 -0.5866  1.3300 -0.4702
 7452SOL     OW23597   1.222   8.161   8.210 -0.2015 -0.7627  0.4792
 7452SOL    HW123598   1.303   8.187   8.254  0.8889 -2.6948 -0.3163
 7452SOL    HW223599   1.251   8.105   8.138 -2.2089 -0.8161 -0.3181
 7453SOL     OW23600   5.561   7.603   5.988 -0.1678  0.5073  0.7597
 7453SOL    HW123601   5.641   7.551   5.985  0.0957  0.7906  2.2200
 7453SOL    HW223602   5.588   7.691   5.961 -0.4554  0.0883 -0.9416
 7454SOL     OW23603   1.840   6.036   4.367  0.1164 -0.1782 -0.1050
 7454SOL    HW123604   1.836   5.954   4.417 -2.4637 -0.0354  0.0010
 7454SOL    HW223605   1.794   6.017   4.285 -1.2647  1.3836  0.2749
 7455SOL     OW23606   0.966   5.670   5.725 -0.1146 -0.0291 -0.1506
 7455SOL    HW123607   0.906   5.647   5.796 -1.1284 -0.9010 -1.2886
 7455SOL    HW223608   1.053   5.650   5.761 -0.7506 -2.6392  0.0477
 7456SOL     OW23609   3.529   4.933   2.250  0.4209  0.3947 -0.4938
 7456SOL    HW123610   3.497   5.006   2.304  2.8528  1.0396  0.1533
 7456SOL    HW223611   3.601   4.896   2.302 -0.2232 -1.9091 -1.2330
 7457SOL     OW23612   8.061   0.523   0.366  0.2359  0.4154 -0.2629
 7457SOL    HW123613   7.985   0.569   0.401  0.6567  0.5846  0.4239
 7457SOL    HW223614   8.043   0.430   0.385  1.3039  0.6547  2.0484
 7458SOL     OW23615   2.306   6.840   2.290 -0.3253 -0.1222  0.1481
 7458SOL    HW123616   2.257   6.848   2.208  0.9741 -2.0776 -0.8550
 7458SOL    HW223617   2.394   6.870   2.269  0.1772 -1.2241  0.6514
 7459SOL     OW23618   4.322   3.992   6.497 -0.1397 -0.0860  0.4659
 7459SOL    HW123619   4.266   3.933   6.446 -0.5223  0.2917  0.4448
 7459SOL    HW223620   4.284   4.079   6.482  1.7520  0.4876 -1.3655
 7460SOL     OW23621   4.605   5.895   0.981 -0.2296  0.0513 -0.1440
 7460SOL    HW123622   4.613   5.820   0.922 -0.2779  3.0992 -4.1537
 7460SOL    HW223623   4.674   5.881   1.046 -0.4604 -3.6085 -0.5587
 7461SOL     OW23624   7.759   3.526   2.737  0.2220 -0.3838  0.4473
 7461SOL    HW123625   7.835   3.565   2.694  1.7225 -1.1671  2.3188
 7461SOL    HW223626   7.740   3.448   2.685  0.1789  0.2512 -0.5071
 7462SOL     OW23627   4.635   0.894   5.064 -0.7026  0.4353 -0.2484
 7462SOL    HW123628   4.730   0.887   5.079 -0.9291  0.0832  1.1491
 7462SOL    HW223629   4.599   0.812   5.098 -1.3169 -0.3395 -2.7274
 7463SOL     OW23630   3.466   4.318   1.012 -0.2322 -1.0537 -0.1288
 7463SOL    HW123631   3.488   4.236   1.056  1.0182 -0.9021 -0.4504
 7463SOL    HW223632   3.549   4.348   0.974 -1.0035 -0.4407 -1.3561
 7464SOL     OW23633   6.964   7.566   0.831  0.2422 -0.2910 -0.2838
 7464SOL    HW123634   6.921   7.625   0.769  1.2707  0.0319 -0.6974
 7464SOL    HW223635   6.904   7.563   0.906 -0.4417  0.2483 -0.7960
 7465SOL     OW23636   4.235   6.615   1.048 -0.3048  0.8311 -0.0157
 7465SOL    HW123637   4.160   6.601   0.991  0.3525 -0.2403 -0.6466
 7465SOL    HW223638   4.204   6.594   1.135 -0.9943  1.3167 -0.1463
 7466SOL     OW23639   5.471   1.507   8.036 -0.6840 -0.7930 -0.2872
 7466SOL    HW123640   5.420   1.428   8.048 -0.9917 -0.7446 -1.2435
 7466SOL    HW223641   5.486   1.540   8.125  1.7106 -3.3381  0.3073
 7467SOL     OW23642   2.497   2.429   6.621 -0.0059  0.3337 -0.4954
 7467SOL    HW123643   2.552   2.364   6.665 -0.2926 -0.1571 -0.8611
 7467SOL    HW223644   2.513   2.414   6.528 -2.5102 -1.3335 -0.6782
 7468SOL     OW23645   5.211   6.893   0.394  0.1233 -0.4795  0.0885
 7468SOL    HW123646   5.217   6.944   0.475  1.2913  0.2699 -0.4550
 7468SOL    HW223647   5.160   6.816   0.418  1.0808 -0.6288  1.7313
 7469SOL     OW23648   4.960   5.120   8.256  0.0688  0.1499 -0.0958
 7469SOL    HW123649   5.047   5.148   8.286  0.7179 -1.1144 -0.7740
 7469SOL    HW223650   4.907   5.115   8.336  0.6060  0.9479  0.3150
 7470SOL     OW23651   6.732   7.962   7.257 -0.0043  0.1365  0.0438
 7470SOL    HW123652   6.748   7.987   7.166 -0.9041 -0.4246 -0.2858
 7470SOL    HW223653   6.808   7.994   7.305  1.2257 -0.8985 -1.1496
 7471SOL     OW23654   3.372   0.802   0.580  0.0799 -0.3439  1.3002
 7471SOL    HW123655   3.307   0.871   0.590 -0.7299 -0.8929 -0.0208
 7471SOL    HW223656   3.451   0.836   0.621 -0.1860  1.5309  0.2969
 7472SOL     OW23657   0.437   5.656   3.299 -0.0241  0.0042  0.3967
 7472SOL    HW123658   0.406   5.691   3.216  1.6001  0.8637  0.1246
 7472SOL    HW223659   0.432   5.730   3.360  2.7363  0.5831  0.0001
 7473SOL     OW23660   2.962   2.181   1.428  0.5316 -0.3077 -0.4141
 7473SOL    HW123661   2.901   2.112   1.454  1.0635 -0.1153  1.4598
 7473SOL    HW223662   3.039   2.134   1.397  0.0360 -0.5498 -1.2922
 7474SOL     OW23663   5.322   0.100   5.166  0.0590 -0.2178  0.9993
 7474SOL    HW123664   5.291   0.121   5.253 -0.5968 -1.3353  1.0356
 7474SOL    HW223665   5.255   0.135   5.107  1.1634  1.7492  0.8709
 7475SOL     OW23666   4.893   5.384   2.547 -0.2184  0.1797 -0.2199
 7475SOL    HW123667   4.929   5.421   2.628  0.4614 -1.6427  0.3401
 7475SOL    HW223668   4.962   5.398   2.482  0.4988 -1.0077  0.2505
 7476SOL     OW23669   7.978   7.147   6.428 -0.4436 -0.2482 -0.0327
 7476SOL    HW123670   8.026   7.223   6.458 -1.1905 -0.2875  1.2822
 7476SOL    HW223671   7.888   7.178   6.416 -0.6144 -0.7615 -0.1205
 7477SOL     OW23672   7.234   3.995   0.314  0.5292  0.8339  0.3844
 7477SOL    HW123673   7.181   3.998   0.235  0.1960  1.6368  0.6366
 7477SOL    HW223674   7.321   3.971   0.284 -0.0547 -0.9142  0.0082
 7478SOL     OW23675   2.947   0.859   0.690 -0.3645  0.0392  0.5074
 7478SOL    HW123676   2.978   0.939   0.648 -0.4694 -0.7792 -1.1741
 7478SOL    HW223677   3.000   0.853   0.770  2.2762 -0.1191 -1.1722
 7479SOL     OW23678   3.932   2.282   3.040  0.0210  0.4321 -0.6044
 7479SOL    HW123679   3.903   2.368   3.011 -0.5265  0.2640 -0.5780
 7479SOL    HW223680   4.027   2.288   3.046 -0.2373  2.0069  2.5603
 7480SOL     OW23681   3.002   4.662   3.565 -0.0431  0.6125  0.0988
 7480SOL    HW123682   3.052   4.712   3.501  0.2582  1.4861  1.0072
 7480SOL    HW223683   3.020   4.571   3.543 -0.6427  0.8697 -1.6189
 7481SOL     OW23684   4.010   5.887   0.878  0.3099 -0.2320 -0.0876
 7481SOL    HW123685   4.088   5.836   0.856 -0.4089 -0.6348 -1.7823
 7481SOL    HW223686   3.974   5.914   0.794 -0.1962  1.7844  0.7357
 7482SOL     OW23687   4.527   0.724   0.043 -0.3747 -0.1223  0.3084
 7482SOL    HW123688   4.557   0.689   0.127 -2.7474 -0.3600  1.0931
 7482SOL    HW223689   4.513   0.647  -0.012 -0.5878 -0.0801  0.3049
 7483SOL     OW23690   2.453   1.039   0.653 -0.2146 -0.2941 -0.5072
 7483SOL    HW123691   2.360   1.055   0.673 -0.3566 -2.8215  1.0336
 7483SOL    HW223692   2.452   0.966   0.592  0.7893 -1.0336  0.3542
 7484SOL     OW23693   1.582   6.283   5.586 -0.4095 -0.4145 -0.6927
 7484SOL    HW123694   1.577   6.250   5.496 -1.2807 -0.7165 -0.5389
 7484SOL    HW223695   1.510   6.240   5.631 -1.1722  1.2108 -0.3194
 7485SOL     OW23696   0.510   7.541   5.078  0.0257  0.1573 -0.6698
 7485SOL    HW123697   0.523   7.465   5.135 -1.3046 -0.7805 -1.5869
 7485SOL    HW223698   0.485   7.611   5.138  1.1786 -0.1384  0.1784
 7486SOL     OW23699   3.332   5.376   2.373  0.0023  0.1062 -0.0331
 7486SOL    HW123700   3.238   5.386   2.385 -0.0374 -0.7251  0.4084
 7486SOL    HW223701   3.349   5.411   2.286 -1.1361 -2.2136 -1.2231
 7487SOL     OW23702   2.379   3.701   2.103  0.5926  0.4424 -0.0035
 7487SOL    HW123703   2.322   3.657   2.166 -1.3655 -0.7602 -2.5276
 7487SOL    HW223704   2.468   3.674   2.128 -0.1364 -0.1175  2.1055
 7488SOL     OW23705   2.039   8.260   3.414  0.0703  0.4279 -0.4249
 7488SOL    HW123706   2.127   8.222   3.420 -0.0462  0.2845  0.4771
 7488SOL    HW223707   2.044   8.320   3.339  0.9361  0.4178 -0.3829
 7489SOL     OW23708   2.967   2.296   0.374  0.2092 -0.1610  0.1822
 7489SOL    HW123709   3.012   2.379   0.389 -0.2946  0.0307  0.6686
 7489SOL    HW223710   2.930   2.304   0.286  1.5915 -0.5440 -0.4472
 7490SOL     OW23711   6.718   3.880   6.346  0.6947 -0.4175  0.0467
 7490SOL    HW123712   6.802   3.859   6.305 -0.6066  0.8338 -3.4135
 7490SOL    HW223713   6.721   3.836   6.431  3.6360 -2.8851 -1.2575
 7491SOL     OW23714   1.239   0.657   4.686  0.2565  0.3629  0.0389
 7491SOL    HW123715   1.292   0.618   4.616  0.8663  0.0048  0.6939
 7491SOL    HW223716   1.293   0.648   4.764 -0.8731 -0.2319  0.7631
 7492SOL     OW23717   0.781   5.105   2.909  0.8317  0.2349 -0.0420
 7492SOL    HW123718   0.769   5.011   2.902  2.3181  0.0036  0.3736
 7492SOL    HW223719   0.694   5.139   2.930  0.6918 -1.2687  1.9162
 7493SOL     OW23720   4.099   4.181   3.699  1.0123  0.1507  0.6403
 7493SOL    HW123721   4.079   4.162   3.607 -3.2732  1.3998  1.1936
 7493SOL    HW223722   4.136   4.270   3.697  0.4352  0.3801  0.1941
 7494SOL     OW23723   4.567   3.686   1.446 -0.5820  0.3833 -0.0471
 7494SOL    HW123724   4.531   3.605   1.410 -0.2808  1.1385 -2.0999
 7494SOL    HW223725   4.531   3.755   1.390  1.9265  1.3660 -0.5184
 7495SOL     OW23726   4.234   1.555   1.819 -0.1325 -0.1532  0.0182
 7495SOL    HW123727   4.171   1.514   1.878 -1.6479  0.6223 -1.0414
 7495SOL    HW223728   4.297   1.485   1.798 -0.7329 -0.9746  0.9438
 7496SOL     OW23729   1.895   7.629   3.764  0.4494 -0.4777  0.1830
 7496SOL    HW123730   1.951   7.592   3.833  0.5954 -2.2344 -0.8452
 7496SOL    HW223731   1.808   7.636   3.804  0.9898  0.5821  1.2180
 7497SOL     OW23732   4.944   8.196   3.178 -0.3244  0.5622  0.9412
 7497SOL    HW123733   4.898   8.125   3.133  0.1102  0.3255  0.8641
 7497SOL    HW223734   4.886   8.220   3.251  0.2020 -0.9022  1.8759
 7498SOL     OW23735   2.727   4.780   5.140  0.0796 -0.3542  0.2339
 7498SOL    HW123736   2.683   4.755   5.058 -1.7374 -2.2490  1.7452
 7498SOL    HW223737   2.820   4.780   5.118 -0.3603 -1.2658 -1.7189
 7499SOL     OW23738   3.563   1.813   7.637 -0.7657 -0.0205 -0.0956
 7499SOL    HW123739   3.575   1.907   7.650  0.4031 -0.2766  0.7200
 7499SOL    HW223740   3.517   1.807   7.553 -1.8954  1.3254  0.4052
 7500SOL     OW23741   3.576   4.801   7.940 -0.4943  0.0045  0.6998
 7500SOL    HW123742   3.498   4.752   7.964 -0.7589  1.2644  2.4543
 7500SOL    HW223743   3.557   4.835   7.852 -1.3926 -0.7332  0.6094
 7501SOL     OW23744   3.267   2.959   6.341 -0.2389  0.1076  0.4006
 7501SOL    HW123745   3.300   2.881   6.385 -2.1001 -0.1046  1.4499
 7501SOL    HW223746   3.327   3.029   6.368 -0.9379 -0.1687  2.7040
 7502SOL     OW23747   7.724   4.468   5.501 -0.2020 -0.0530 -0.2278
 7502SOL    HW123748   7.656   4.492   5.563  1.4510 -1.3985  2.2013
 7502SOL    HW223749   7.685   4.396   5.450 -0.9347 -0.1621  0.4780
 7503SOL     OW23750   3.956   3.536   4.577  0.3873 -0.4159 -0.2800
 7503SOL    HW123751   3.883   3.598   4.578 -0.7289 -1.7076 -0.1374
 7503SOL    HW223752   3.915   3.450   4.570  1.9159 -1.1478 -0.5641
 7504SOL     OW23753   2.956   2.260   6.966 -0.0148  0.4738  0.1255
 7504SOL    HW123754   2.999   2.289   6.886  1.0296  0.8158  0.7946
 7504SOL    HW223755   2.900   2.333   6.992  1.5778  1.4013  1.0692
 7505SOL     OW23756   7.105   6.013   6.424 -0.1676 -0.1571  0.7438
 7505SOL    HW123757   7.182   6.005   6.480  0.3529 -0.4782  0.0017
 7505SOL    HW223758   7.085   5.923   6.397  0.6966  0.1443 -1.0264
 7506SOL     OW23759   0.517   1.238   0.222  0.0178 -0.3170 -0.7908
 7506SOL    HW123760   0.455   1.216   0.291 -1.5624 -1.2354 -2.4669
 7506SOL    HW223761   0.469   1.295   0.163  1.6310  1.1693 -0.7118
 7507SOL     OW23762   8.155   7.703   3.981  0.1592 -0.2285 -0.2390
 7507SOL    HW123763   8.078   7.677   3.930 -0.7571  1.3826  0.3077
 7507SOL    HW223764   8.141   7.795   4.001  1.3896 -0.3753  1.3908
 7508SOL     OW23765   0.624   8.138   5.253  0.4309 -0.1063 -0.3427
 7508SOL    HW123766   0.544   8.114   5.206 -1.3807  0.6970  2.2322
 7508SOL    HW223767   0.631   8.233   5.242  0.4407 -0.0252  0.3462
 7509SOL     OW23768   6.844   5.495   4.978  0.3276 -0.1668 -0.1665
 7509SOL    HW123769   6.775   5.457   4.924  0.9464 -2.0254  0.2870
 7509SOL    HW223770   6.925   5.463   4.939  0.7996 -0.9460  1.3989
 7510SOL     OW23771   3.690   5.846   1.824 -0.4601  0.2281  0.1102
 7510SOL    HW123772   3.597   5.846   1.802 -0.8674 -3.9831  1.3063
 7510SOL    HW223773   3.694   5.803   1.910  2.5462  0.6474  0.2307
 7511SOL     OW23774   0.623   0.225   1.647 -0.0500 -0.0185 -0.3500
 7511SOL    HW123775   0.659   0.313   1.660  0.8037 -0.5377  0.8543
 7511SOL    HW223776   0.598   0.224   1.554  1.6139  0.8911 -0.8371
 7512SOL     OW23777   7.159   1.762   2.873 -0.2577  0.2082 -0.4976
 7512SOL    HW123778   7.237   1.806   2.907  0.9501 -0.2466 -2.5597
 7512SOL    HW223779   7.154   1.790   2.782 -2.1723 -0.2665 -0.5548
 7513SOL     OW23780   4.789   2.666   1.633  0.1404 -0.8473  0.3395
 7513SOL    HW123781   4.870   2.617   1.621 -0.2294 -1.6104  0.9128
 7513SOL    HW223782   4.741   2.617   1.699 -0.5986 -0.1580  0.3208
 7514SOL     OW23783   3.173   4.871   2.691  0.3084  0.4504  0.6247
 7514SOL    HW123784   3.132   4.785   2.690 -0.5989  0.8259  2.6067
 7514SOL    HW223785   3.144   4.912   2.609 -1.4562 -0.1389  0.9233
 7515SOL     OW23786   5.551   2.074   8.270  0.0493  0.1251  0.9588
 7515SOL    HW123787   5.575   2.146   8.329  0.3242  0.9371 -0.1323
 7515SOL    HW223788   5.623   2.071   8.206 -0.1528 -0.8745  0.7808
 7516SOL     OW23789   1.221   5.447   2.925 -0.5906  0.3807  0.4107
 7516SOL    HW123790   1.206   5.478   3.014  1.2228 -0.5080  1.0450
 7516SOL    HW223791   1.300   5.493   2.897  0.4007 -1.3678  0.2623
 7517SOL     OW23792   7.390   3.857   1.467  0.0474 -0.9125  0.2983
 7517SOL    HW123793   7.432   3.926   1.417 -0.7830 -1.5538 -1.3483
 7517SOL    HW223794   7.400   3.883   1.558  1.1753  0.5370 -0.2223
 7518SOL     OW23795   5.693   2.332   3.403  0.0228  0.0366 -0.2075
 7518SOL    HW123796   5.762   2.391   3.433 -0.4009  2.1656 -3.0724
 7518SOL    HW223797   5.616   2.358   3.454  0.3541  0.5436  0.0433
 7519SOL     OW23798   4.909   1.120   0.965 -0.5666 -0.1698 -0.6476
 7519SOL    HW123799   4.814   1.117   0.968 -0.5774  0.8544  0.1716
 7519SOL    HW223800   4.930   1.194   0.908 -0.2631  0.0390 -0.2713
 7520SOL     OW23801   5.007   0.921   7.909  0.4119 -0.7096  0.3275
 7520SOL    HW123802   4.922   0.940   7.948  0.9976  0.5288  1.0376
 7520SOL    HW223803   4.990   0.851   7.846 -0.7533 -1.9073  1.9587
 7521SOL     OW23804   1.146   6.791   3.012  0.0593  0.2812  0.4313
 7521SOL    HW123805   1.146   6.829   2.924  0.0425 -1.6662 -0.4410
 7521SOL    HW223806   1.148   6.696   2.997 -1.7170 -0.1181  2.5087
 7522SOL     OW23807   2.083   3.343   4.803  0.1310 -0.3587  0.3795
 7522SOL    HW123808   2.012   3.397   4.769  0.7441 -0.0251 -0.3693
 7522SOL    HW223809   2.055   3.320   4.892  0.0763  1.5787  0.8863
 7523SOL     OW23810   7.238   0.814   8.099 -0.5035 -0.3748  0.7288
 7523SOL    HW123811   7.188   0.896   8.103 -1.0006 -0.6481  0.2916
 7523SOL    HW223812   7.329   0.842   8.091 -0.3264  0.1324  3.9961
 7524SOL     OW23813   6.569   0.318   7.324 -0.0960 -0.5398 -0.0044
 7524SOL    HW123814   6.586   0.320   7.418 -1.6745  0.0917  0.2688
 7524SOL    HW223815   6.597   0.231   7.296 -0.8417 -1.1973  1.2771
 7525SOL     OW23816   5.981   7.308   5.805 -0.2514  0.1794  0.3148
 7525SOL    HW123817   6.037   7.337   5.876 -0.0516  0.2204  0.1422
 7525SOL    HW223818   6.007   7.217   5.790 -0.9309 -0.1141  0.9079
 7526SOL     OW23819   3.856   1.553   0.771 -0.2102 -0.0538 -0.5117
 7526SOL    HW123820   3.780   1.604   0.798 -1.5851 -1.2453 -2.0235
 7526SOL    HW223821   3.873   1.494   0.844 -1.5461 -0.6476 -0.6675
 7527SOL     OW23822   3.411   1.192   3.633 -0.2884 -0.5072 -0.3118
 7527SOL    HW123823   3.318   1.176   3.621 -0.2166 -2.2781  1.1204
 7527SOL    HW223824   3.443   1.113   3.678  1.6537  0.5965  0.3203
 7528SOL     OW23825   3.274   5.116   1.094  0.4054  0.0585  0.3548
 7528SOL    HW123826   3.204   5.108   1.158  1.4612  0.3813  1.5813
 7528SOL    HW223827   3.236   5.084   1.013 -1.8080  2.1849  0.4939
 7529SOL     OW23828   2.019   4.371   8.188  0.7321  0.4765  0.6184
 7529SOL    HW123829   1.984   4.439   8.245  2.2220  0.5669  1.4625
 7529SOL    HW223830   1.970   4.379   8.107 -1.0365  0.7095  1.6975
 7530SOL     OW23831   2.846   5.077   5.232 -0.2943  0.7013  0.5797
 7530SOL    HW123832   2.882   5.028   5.159  0.2116  0.2901  1.0947
 7530SOL    HW223833   2.754   5.091   5.210 -0.4606 -0.5571  0.4611
 7531SOL     OW23834   7.994   6.243   3.955  0.1032 -0.5587  0.6749
 7531SOL    HW123835   7.976   6.160   4.000 -2.8052 -1.4075 -1.8404
 7531SOL    HW223836   7.911   6.291   3.961  1.0135  1.1464 -0.0480
 7532SOL     OW23837   6.017   4.782   5.219 -0.1858  0.1572  0.3929
 7532SOL    HW123838   5.988   4.835   5.293 -1.3688  1.8458 -1.2320
 7532SOL    HW223839   5.990   4.832   5.142  2.5275 -0.7228 -1.1915
 7533SOL     OW23840   5.080   4.609   4.375 -0.0201  0.0768 -0.2039
 7533SOL    HW123841   5.136   4.687   4.382 -0.4354  0.3513  0.1026
 7533SOL    HW223842   5.127   4.542   4.424  0.7795 -0.1201 -1.2314
 7534SOL     OW23843   6.732   4.317   7.471 -0.2325 -0.0997  0.8632
 7534SOL    HW123844   6.762   4.320   7.380 -0.9551  0.2171  0.6318
 7534SOL    HW223845   6.738   4.224   7.495 -1.0374 -0.3440  0.1495
 7535SOL     OW23846   5.075   1.411   1.892 -0.0596  0.1100 -0.1423
 7535SOL    HW123847   4.987   1.430   1.858 -0.3684  2.3789  1.7332
 7535SOL    HW223848   5.066   1.327   1.937 -0.4208 -1.3094 -2.7950
 7536SOL     OW23849   3.617   3.134   6.270 -0.1805 -0.2886  0.0674
 7536SOL    HW123850   3.638   3.219   6.230 -1.0234  0.2142  0.6623
 7536SOL    HW223851   3.686   3.120   6.335  1.5022 -1.3612 -1.8934
 7537SOL     OW23852   0.452   5.397   0.806  0.4721  0.1904 -0.4410
 7537SOL    HW123853   0.477   5.322   0.752  0.5372  1.5079 -2.2935
 7537SOL    HW223854   0.363   5.377   0.835  1.4377 -1.7875  1.2606
 7538SOL     OW23855   0.539   5.217   1.674  0.0515  0.4446  0.4550
 7538SOL    HW123856   0.617   5.180   1.633 -0.9401 -0.4677 -0.6322
 7538SOL    HW223857   0.562   5.308   1.692  0.4308  0.9610 -2.4031
 7539SOL     OW23858   7.160   2.241   6.722  0.1307 -0.0703  0.6151
 7539SOL    HW123859   7.172   2.146   6.722 -2.2007 -0.4138 -0.8047
 7539SOL    HW223860   7.081   2.256   6.774 -0.4498  0.9408 -0.5244
 7540SOL     OW23861   0.527   7.531   3.890 -0.3869  0.2584 -0.1205
 7540SOL    HW123862   0.486   7.481   3.961  1.3784  0.7169  1.2437
 7540SOL    HW223863   0.500   7.622   3.905  1.9138  0.7160  1.3749
 7541SOL     OW23864   8.263   3.937   2.997  0.3579 -0.2873  0.1945
 7541SOL    HW123865   8.244   3.862   2.940 -0.9088 -0.9909  1.4906
 7541SOL    HW223866   8.245   3.905   3.086 -0.4996  1.6192  0.7500
 7542SOL     OW23867   6.591   1.468   7.211 -0.0306 -0.5853  0.1124
 7542SOL    HW123868   6.578   1.491   7.302 -1.9435  0.2222 -0.3496
 7542SOL    HW223869   6.524   1.402   7.193  0.4398 -0.8610 -0.6655
 7543SOL     OW23870   0.132   5.981   3.278 -0.1755  0.0313 -0.5752
 7543SOL    HW123871   0.115   5.941   3.193  3.0740 -0.1314 -1.2364
 7543SOL    HW223872   0.047   5.983   3.321 -1.4248 -2.3285 -2.7702
 7544SOL     OW23873   4.669   5.153   4.129 -0.1591  0.6038  0.7304
 7544SOL    HW123874   4.679   5.153   4.224  1.0207 -2.0387  0.6542
 7544SOL    HW223875   4.750   5.190   4.095  0.0514  0.1355  0.7190
 7545SOL     OW23876   3.030   3.302   6.875  0.0822 -0.3260  0.2265
 7545SOL    HW123877   3.078   3.383   6.892 -2.3022  1.2576 -0.2452
 7545SOL    HW223878   2.974   3.291   6.952 -1.0869 -0.3759 -0.6084
 7546SOL     OW23879   1.268   2.447   6.868  0.4453 -0.7353 -0.1829
 7546SOL    HW123880   1.317   2.529   6.862 -0.5773 -0.0770  0.1574
 7546SOL    HW223881   1.326   2.380   6.832  0.9797  0.2821 -1.2292
 7547SOL     OW23882   4.137   3.424   6.775  0.2375 -0.0819 -0.1259
 7547SOL    HW123883   4.118   3.370   6.698 -0.4618  0.9327 -0.6732
 7547SOL    HW223884   4.200   3.489   6.745  0.0631  0.2377  0.1831
 7548SOL     OW23885   1.243   4.570   5.260 -0.1896  0.2602 -0.3079
 7548SOL    HW123886   1.265   4.477   5.251  0.3191  0.0224  2.8027
 7548SOL    HW223887   1.156   4.578   5.221 -1.0081 -1.9106  1.0010
 7549SOL     OW23888   2.709   6.366   0.996 -0.0001  0.2261  0.1744
 7549SOL    HW123889   2.731   6.306   0.925  1.0747  0.4637  0.2967
 7549SOL    HW223890   2.753   6.448   0.972 -1.2789  0.9014  0.1142
 7550SOL     OW23891   8.301   4.352   0.182  0.0778 -0.5210  0.5617
 7550SOL    HW123892   8.256   4.433   0.156 -0.3089 -0.2963  1.9236
 7550SOL    HW223893   8.394   4.374   0.177 -0.0174 -0.1277  0.4864
 7551SOL     OW23894   2.600   5.067   6.280 -0.3701 -0.8222 -0.1018
 7551SOL    HW123895   2.538   5.066   6.207 -0.2795  5.3860 -0.5227
 7551SOL    HW223896   2.685   5.047   6.240 -0.6796  0.2081 -1.3038
 7552SOL     OW23897   4.046   4.640   5.585  0.3670  0.2241  0.0192
 7552SOL    HW123898   4.090   4.608   5.507 -2.0449 -1.7348 -0.6198
 7552SOL    HW223899   4.062   4.572   5.651  1.9513  1.6158  1.0957
 7553SOL     OW23900   8.014   1.131   1.794  0.4610  0.3804 -0.0399
 7553SOL    HW123901   7.930   1.085   1.797  1.5863 -1.7719 -0.9373
 7553SOL    HW223902   8.005   1.200   1.860 -1.9214  0.0495  0.0471
 7554SOL     OW23903   7.001   6.701   0.344  0.0133 -0.0275 -0.2880
 7554SOL    HW123904   6.930   6.671   0.287 -1.0240  0.8124  0.5453
 7554SOL    HW223905   7.057   6.755   0.288  1.9229 -3.4495 -1.8259
 7555SOL     OW23906   3.118   0.821   7.926 -0.3706  0.7881  0.6144
 7555SOL    HW123907   3.147   0.731   7.941 -1.4577  0.7553  2.5663
 7555SOL    HW223908   3.133   0.866   8.009  1.6520  2.8506 -0.8093
 7556SOL     OW23909   2.745   2.176   3.191  0.1176  1.0430  0.4504
 7556SOL    HW123910   2.780   2.265   3.199 -2.0353  2.0151 -0.3164
 7556SOL    HW223911   2.658   2.189   3.153 -0.5903 -1.3410  1.1948
 7557SOL     OW23912   4.326   4.638   0.455 -0.5331 -0.0302  0.0754
 7557SOL    HW123913   4.298   4.576   0.387  0.7650 -0.7433  0.1683
 7557SOL    HW223914   4.247   4.653   0.507 -1.9316  1.6797 -2.4359
 7558SOL     OW23915   4.212   3.798   8.125 -0.1418  0.2165  0.2566
 7558SOL    HW123916   4.255   3.861   8.067 -0.7354  0.6825  0.3196
 7558SOL    HW223917   4.278   3.778   8.192  0.1014  0.6592  0.1504
 7559SOL     OW23918   1.670   4.418   5.235 -0.7666 -0.1859 -0.0937
 7559SOL    HW123919   1.736   4.487   5.230 -1.1761  0.3322  1.3075
 7559SOL    HW223920   1.652   4.394   5.144 -0.3620  1.3118 -0.5720
 7560SOL     OW23921   0.633   4.075   2.334  0.1345  0.0879  0.0805
 7560SOL    HW123922   0.580   4.012   2.383 -1.7351 -0.7273 -2.8217
 7560SOL    HW223923   0.716   4.029   2.318 -0.6232 -1.0618 -0.6450
 7561SOL     OW23924   8.026   6.263   6.717  0.1396 -0.2027  0.1824
 7561SOL    HW123925   8.044   6.238   6.807  1.8644 -0.7871 -0.3052
 7561SOL    HW223926   8.017   6.180   6.670 -0.1881  0.0971 -0.2905
 7562SOL     OW23927   7.627   2.394   0.965 -0.4303  0.5508  0.5499
 7562SOL    HW123928   7.655   2.386   1.056  1.8258 -0.6335 -0.1854
 7562SOL    HW223929   7.604   2.486   0.954 -1.7391  0.4944  2.5589
 7563SOL     OW23930   4.114   7.484   4.622  0.0063 -0.5488  0.2158
 7563SOL    HW123931   4.179   7.420   4.593  0.8710 -0.0714  1.0930
 7563SOL    HW223932   4.163   7.545   4.676 -1.1297 -0.0386  0.6733
 7564SOL     OW23933   4.092   5.149   1.131 -0.6212 -0.2768  0.0659
 7564SOL    HW123934   4.167   5.159   1.190 -1.3695 -0.7760  1.1117
 7564SOL    HW223935   4.077   5.237   1.097  0.5307 -0.1991 -0.2609
 7565SOL     OW23936   2.455   6.511   7.992  0.5528 -0.0733 -0.5798
 7565SOL    HW123937   2.370   6.494   7.952 -0.0981  2.3950 -0.3646
 7565SOL    HW223938   2.516   6.458   7.942 -1.1496 -2.1277 -0.5464
 7566SOL     OW23939   0.333   4.683   0.876 -0.3146  0.0174  0.3013
 7566SOL    HW123940   0.307   4.600   0.914 -0.3190  0.5441  1.4539
 7566SOL    HW223941   0.410   4.710   0.926  0.1991  0.2958 -0.6174
 7567SOL     OW23942   2.468   5.901   3.553 -0.0334  0.0407  0.1413
 7567SOL    HW123943   2.386   5.926   3.510 -0.5097 -1.0932  0.3903
 7567SOL    HW223944   2.474   5.960   3.629 -0.9058 -0.2546  0.4456
 7568SOL     OW23945   4.504   6.004   7.749 -0.0310  0.1543 -0.8140
 7568SOL    HW123946   4.458   5.986   7.667 -1.7665  0.9746 -0.0504
 7568SOL    HW223947   4.436   6.035   7.809  1.0363 -1.3057  1.2446
 7569SOL     OW23948   5.230   6.139   6.631  0.1406  0.1426 -0.0799
 7569SOL    HW123949   5.231   6.093   6.547 -0.2129 -0.6430  0.3369
 7569SOL    HW223950   5.286   6.086   6.687 -0.5726  0.0179  0.5178
 7570SOL     OW23951   1.185   5.870   3.959  0.8339  0.5129 -0.5649
 7570SOL    HW123952   1.199   5.827   4.043 -0.5876 -0.4700 -0.8120
 7570SOL    HW223953   1.090   5.872   3.949  0.9744  1.3578 -1.7750
 7571SOL     OW23954   2.303   2.276   0.154  0.5205 -0.7072  0.1803
 7571SOL    HW123955   2.391   2.282   0.118  1.1749  0.2265  1.8802
 7571SOL    HW223956   2.313   2.229   0.236 -0.3389  0.6110  1.0654
 7572SOL     OW23957   8.159   2.963   5.934  0.3067  0.3972 -0.8494
 7572SOL    HW123958   8.091   3.030   5.937 -2.2785 -2.1529  1.1818
 7572SOL    HW223959   8.229   2.996   5.989 -1.6168  0.7876  1.4411
 7573SOL     OW23960   1.924   6.006   5.043 -0.1584 -0.6281 -0.3955
 7573SOL    HW123961   1.993   6.006   5.109  2.1301 -1.3613 -2.7107
 7573SOL    HW223962   1.884   6.093   5.050 -0.7253 -1.0657  2.6603
 7574SOL     OW23963   8.129   1.492   7.024 -0.2637  0.4756 -0.3735
 7574SOL    HW123964   8.085   1.558   6.972 -2.4584 -0.6144  0.0327
 7574SOL    HW223965   8.212   1.532   7.050 -1.2375  2.7643 -0.7347
 7575SOL     OW23966   7.132   2.311   7.484  0.3337  0.5206 -0.2807
 7575SOL    HW123967   7.213   2.261   7.480  0.0161 -0.0847  0.8241
 7575SOL    HW223968   7.161   2.401   7.504  0.7733  0.4545 -0.6058
 7576SOL     OW23969   8.181   3.654   0.210  0.1523 -0.3379  0.6661
 7576SOL    HW123970   8.154   3.743   0.232 -1.4949 -1.0058  1.4371
 7576SOL    HW223971   8.142   3.638   0.124  0.6031 -0.2390  0.4463
 7577SOL     OW23972   3.777   4.917   5.072  0.2336  0.1637 -0.2157
 7577SOL    HW123973   3.706   4.854   5.085 -0.3513  0.8169 -0.2247
 7577SOL    HW223974   3.750   4.994   5.122  0.7576  0.5537 -0.5330
 7578SOL     OW23975   2.881   4.975   0.659 -0.1688 -0.0689 -0.2123
 7578SOL    HW123976   2.862   4.962   0.752  0.6938  0.8148  0.0892
 7578SOL    HW223977   2.911   4.889   0.629 -1.3069 -0.5942  0.0990
 7579SOL     OW23978   7.067   2.060   8.227  0.5474  0.0002 -0.4643
 7579SOL    HW123979   7.001   2.072   8.296  0.3390  0.0152 -0.6638
 7579SOL    HW223980   7.028   2.099   8.149  0.3468 -0.9100 -0.8372
 7580SOL     OW23981   6.988   2.870   5.316 -0.3827  0.6780 -0.6266
 7580SOL    HW123982   6.964   2.913   5.398  1.0268  3.5700 -1.6557
 7580SOL    HW223983   6.911   2.817   5.293 -1.2608  0.8045  1.9094
 7581SOL     OW23984   3.075   2.876   6.566  0.4443 -0.4769 -0.2979
 7581SOL    HW123985   3.021   2.902   6.491 -0.5037  0.7873  0.7843
 7581SOL    HW223986   3.156   2.925   6.555 -0.0903  0.5110  0.0157
 7582SOL     OW23987   3.467   8.301   7.715  0.0969 -0.3542  0.4161
 7582SOL    HW123988   3.373   8.287   7.727 -0.1926 -0.3226 -1.5596
 7582SOL    HW223989   3.498   8.223   7.669  0.6482  0.4848 -0.6782
 7583SOL     OW23990   7.870   2.396   7.079  0.3603  0.1354  0.2614
 7583SOL    HW123991   7.894   2.488   7.075  1.0504  0.0997  2.6958
 7583SOL    HW223992   7.785   2.391   7.035  1.6508  1.4084 -2.4532
 7584SOL     OW23993   7.154   0.407   0.993 -0.3913 -0.2640  0.3596
 7584SOL    HW123994   7.173   0.322   1.034 -1.8981 -0.1297  1.3918
 7584SOL    HW223995   7.239   0.439   0.964  0.3610 -1.5912  1.0106
 7585SOL     OW23996   0.167   7.708   5.010 -0.8542  0.4124 -0.1903
 7585SOL    HW123997   0.113   7.693   5.087 -0.6257  1.8808  0.2840
 7585SOL    HW223998   0.220   7.785   5.033 -0.8790  0.9515 -1.8563
 7586SOL     OW23999   4.905   3.085   8.300  0.2635 -0.0248  0.5138
 7586SOL    HW124000   4.888   3.123   8.387  1.8451 -0.1046  0.8688
 7586SOL    HW224001   4.875   2.994   8.308 -1.7370  0.5966  0.2569
 7587SOL     OW24002   0.953   4.407   2.318  0.0770  0.3203  0.4328
 7587SOL    HW124003   0.929   4.453   2.238 -1.6023 -1.4531 -0.1252
 7587SOL    HW224004   0.879   4.349   2.336  0.5237  0.5348  3.1736
 7588SOL     OW24005   0.440   5.945   0.523 -0.2339 -0.2730 -0.4812
 7588SOL    HW124006   0.534   5.930   0.513 -0.4202 -1.1658 -0.8833
 7588SOL    HW224007   0.425   5.941   0.617 -0.0006 -0.8972 -0.4706
 7589SOL     OW24008   2.704   3.663   3.687 -0.2377 -0.6413  0.1063
 7589SOL    HW124009   2.762   3.674   3.763  2.0798  0.1515 -1.7147
 7589SOL    HW224010   2.749   3.709   3.616 -1.8512 -2.2759 -2.0254
 7590SOL     OW24011   5.388   4.859   1.112 -0.1882 -0.1907  0.3897
 7590SOL    HW124012   5.299   4.823   1.116 -0.5164  0.3478 -1.4678
 7590SOL    HW224013   5.420   4.832   1.026  0.8442  1.0289  0.3849
 7591SOL     OW24014   6.816   2.149   5.787 -0.2253 -0.4867 -0.2497
 7591SOL    HW124015   6.769   2.225   5.822 -0.7982  0.1968 -2.4763
 7591SOL    HW224016   6.847   2.104   5.865 -3.9060 -0.5424  1.3025
 7592SOL     OW24017   0.637   5.015   1.293 -0.1548  0.4797 -1.0095
 7592SOL    HW124018   0.680   5.032   1.377  0.3556  1.4938 -1.4607
 7592SOL    HW224019   0.695   5.056   1.228  0.6219 -2.1975 -2.0834
 7593SOL     OW24020   2.746   6.406   2.290 -0.2222  0.0184 -0.2225
 7593SOL    HW124021   2.836   6.384   2.264 -0.4963  1.2504 -2.3325
 7593SOL    HW224022   2.706   6.321   2.309  0.8594 -0.6998 -1.0538
 7594SOL     OW24023   8.157   5.570   7.977  0.0940  0.2903 -0.2117
 7594SOL    HW124024   8.150   5.500   8.042 -0.9845  0.0882 -0.5453
 7594SOL    HW224025   8.143   5.526   7.893 -1.3186  1.0310 -0.3689
 7595SOL     OW24026   4.425   5.807   3.337  0.0287 -0.7277 -0.0392
 7595SOL    HW124027   4.355   5.749   3.309 -2.0089  1.8264 -0.4575
 7595SOL    HW224028   4.397   5.839   3.423  1.3644 -0.7327  0.4078
 7596SOL     OW24029   4.236   2.678   6.980 -0.2387  0.2781  0.3358
 7596SOL    HW124030   4.156   2.628   6.966  1.0027 -1.3078 -1.3220
 7596SOL    HW224031   4.297   2.616   7.020  0.5117  1.1740  0.6029
 7597SOL     OW24032   3.721   0.329   1.907 -0.5410  0.8107 -0.8235
 7597SOL    HW124033   3.669   0.274   1.965  1.1747 -1.1724 -1.0859
 7597SOL    HW224034   3.785   0.371   1.965 -0.0391  0.3084 -1.0110
 7598SOL     OW24035   3.228   1.738   3.231 -0.2276 -0.0955  0.1981
 7598SOL    HW124036   3.150   1.714   3.281 -0.0181 -0.1187  0.5143
 7598SOL    HW224037   3.207   1.823   3.194 -0.7395 -0.4853 -0.4311
 7599SOL     OW24038   7.780   8.176   7.400 -0.0704 -0.1198 -0.1776
 7599SOL    HW124039   7.807   8.192   7.491 -2.1885 -1.0054  0.6511
 7599SOL    HW224040   7.841   8.228   7.347  0.0147  1.9236  1.8430
 7600SOL     OW24041   7.021   8.254   6.927 -0.3785 -0.7054  0.7623
 7600SOL    HW124042   7.104   8.223   6.892  0.1776 -0.2279  1.6379
 7600SOL    HW224043   7.034   8.348   6.941  0.0546 -1.1926  3.9804
 7601SOL     OW24044   3.524   2.728   1.048 -0.1677  0.2210  0.3906
 7601SOL    HW124045   3.544   2.794   0.981 -1.0279  0.1249  0.0232
 7601SOL    HW224046   3.452   2.678   1.010  0.2043 -0.6694  0.8437
 7602SOL     OW24047   6.520   1.823   4.741  0.0026 -0.2949 -0.0655
 7602SOL    HW124048   6.557   1.827   4.829 -1.3890 -1.3033  0.5794
 7602SOL    HW224049   6.468   1.902   4.733 -0.5144 -0.5913  0.3237
 7603SOL     OW24050   5.432   5.266   0.363 -0.0328  0.0631 -0.0659
 7603SOL    HW124051   5.384   5.266   0.446 -0.1905 -2.5729 -0.1185
 7603SOL    HW224052   5.524   5.275   0.390 -0.1661  0.2498  0.3355
 7604SOL     OW24053   0.260   5.438   3.904 -0.8005  0.2338  0.2167
 7604SOL    HW124054   0.175   5.443   3.861 -0.8958 -0.3290  0.3368
 7604SOL    HW224055   0.244   5.389   3.985 -0.5587  0.9965  0.7398
 7605SOL     OW24056   4.461   3.290   3.983  0.9454  0.3952  0.1697
 7605SOL    HW124057   4.406   3.212   3.988  0.6912  0.6590  1.5987
 7605SOL    HW224058   4.492   3.292   3.892 -1.2904  0.1882 -0.6218
 7606SOL     OW24059   4.549   7.476   2.073  0.2930  0.1983  0.0729
 7606SOL    HW124060   4.608   7.537   2.028  1.0588 -1.3137 -1.0117
 7606SOL    HW224061   4.484   7.533   2.115  0.5483  1.7379 -1.5230
 7607SOL     OW24062   2.712   5.695   0.222 -0.6328  0.0829 -0.1074
 7607SOL    HW124063   2.716   5.627   0.290  0.6088  0.3913  0.1381
 7607SOL    HW224064   2.712   5.777   0.271 -0.5359  0.2884 -0.4568
 7608SOL     OW24065   2.836   4.178   2.142 -0.3973 -0.5664  0.2790
 7608SOL    HW124066   2.877   4.170   2.056 -0.9263 -0.7003  0.0311
 7608SOL    HW224067   2.744   4.153   2.126 -1.1390  2.0405  0.3350
 7609SOL     OW24068   8.053   0.753   3.605  0.4105 -0.1788  0.7082
 7609SOL    HW124069   8.110   0.750   3.528 -0.0248  1.7999  0.2945
 7609SOL    HW224070   8.030   0.661   3.621  0.2676 -0.5927 -1.7132
 7610SOL     OW24071   3.550   4.538   2.027  0.0992  0.3383  0.0234
 7610SOL    HW124072   3.592   4.453   2.037  1.3789  0.9728  0.1790
 7610SOL    HW224073   3.534   4.546   1.933  0.3109  0.0757 -0.0360
 7611SOL     OW24074   5.038   7.462   5.739 -0.8147  0.0643 -0.0361
 7611SOL    HW124075   4.969   7.481   5.802 -0.5938  2.4857 -0.4864
 7611SOL    HW224076   4.998   7.478   5.653  0.6815  3.0661 -0.2597
 7612SOL     OW24077   6.843   2.983   6.697  0.1626  0.1012  0.3639
 7612SOL    HW124078   6.889   3.037   6.760  0.5348  1.2057 -0.8326
 7612SOL    HW224079   6.758   3.025   6.685  0.3711  0.3220 -0.4111
 7613SOL     OW24080   2.659   4.679   4.162  0.1648  0.1044  0.3712
 7613SOL    HW124081   2.580   4.731   4.175 -0.2838 -0.4180 -0.2583
 7613SOL    HW224082   2.632   4.608   4.105  1.1848  0.1459 -0.1771
 7614SOL     OW24083   3.588   7.822   0.252 -0.2448  0.0005  0.3493
 7614SOL    HW124084   3.539   7.740   0.261 -1.7233  0.9653  1.1990
 7614SOL    HW224085   3.574   7.868   0.335  1.5895  0.5788  0.3531
 7615SOL     OW24086   7.401   5.554   6.042 -0.4147  0.1866 -0.0856
 7615SOL    HW124087   7.392   5.528   5.951 -0.6966 -0.2778  0.0715
 7615SOL    HW224088   7.333   5.620   6.055  0.6442  1.4193 -0.6257
 7616SOL     OW24089   4.975   5.686   8.163  0.5402  0.3523  0.1861
 7616SOL    HW124090   5.038   5.747   8.204  0.9585  0.0336  0.0261
 7616SOL    HW224091   5.030   5.628   8.110  0.0956  0.1223 -0.0208
 7617SOL     OW24092   5.553   0.252   5.047 -0.4337 -0.1593 -0.1450
 7617SOL    HW124093   5.526   0.263   4.956  0.2917 -0.7880 -0.4420
 7617SOL    HW224094   5.474   0.221   5.092 -0.5221 -0.8404 -0.7620
 7618SOL     OW24095   0.772   4.618   2.723  0.5075 -0.4477  0.5831
 7618SOL    HW124096   0.842   4.666   2.680  1.2023  0.9654  3.1433
 7618SOL    HW224097   0.806   4.530   2.734  0.6625 -0.5770 -0.9407
 7619SOL     OW24098   6.944   1.457   3.085  0.5044 -0.4603 -0.6795
 7619SOL    HW124099   6.958   1.367   3.115 -1.7583 -0.4963  0.3295
 7619SOL    HW224100   6.853   1.476   3.106  0.1105  1.0946 -3.5358
 7620SOL     OW24101   5.786   5.590   5.315  0.0701  0.3082 -0.3435
 7620SOL    HW124102   5.859   5.613   5.257  0.9649 -1.9382 -0.1409
 7620SOL    HW224103   5.823   5.594   5.403 -0.5058  0.7932 -0.1192
 7621SOL     OW24104   4.494   5.663   2.724 -0.1215 -0.3511 -0.0556
 7621SOL    HW124105   4.482   5.651   2.630 -0.7033  0.5733 -0.1052
 7621SOL    HW224106   4.487   5.758   2.738  1.4406 -0.3140  0.7178
 7622SOL     OW24107   8.185   7.344   3.836 -0.3786 -0.5800  0.2931
 7622SOL    HW124108   8.220   7.370   3.751  1.5035 -0.5221  1.0705
 7622SOL    HW224109   8.102   7.301   3.815  0.4221 -1.2414 -1.6310
 7623SOL     OW24110   4.732   2.791   2.524  0.0727 -0.3583 -0.5324
 7623SOL    HW124111   4.703   2.766   2.437 -0.2991  1.3621 -0.9139
 7623SOL    HW224112   4.652   2.802   2.575  0.2585 -0.6862 -0.1672
 7624SOL     OW24113   0.554   2.047   5.495 -0.2899  0.3762  0.0397
 7624SOL    HW124114   0.603   2.011   5.421 -3.8277 -0.0278 -2.2280
 7624SOL    HW224115   0.554   2.142   5.479 -0.3922  0.3628 -0.0391
 7625SOL     OW24116   0.110   3.441   1.946 -0.0986  0.0465  0.0398
 7625SOL    HW124117   0.029   3.486   1.923 -1.6322 -2.0943  1.0359
 7625SOL    HW224118   0.140   3.402   1.864  0.8495  2.2175 -0.6745
 7626SOL     OW24119   6.992   6.909   0.729  0.1056 -0.3756 -0.8455
 7626SOL    HW124120   7.013   6.959   0.808  1.1416 -0.0873 -1.2934
 7626SOL    HW224121   7.075   6.866   0.706 -0.1919 -0.4590 -1.7727
 7627SOL     OW24122   0.128   7.646   3.213 -0.6096 -0.2829 -0.3155
 7627SOL    HW124123   0.135   7.652   3.118  0.2641 -0.8056 -0.2880
 7627SOL    HW224124   0.076   7.722   3.238 -1.4204 -0.5154 -1.2744
 7628SOL     OW24125   3.271   7.139   7.598 -0.1086  0.2020 -0.5756
 7628SOL    HW124126   3.274   7.224   7.555 -0.9213  1.0543  1.0496
 7628SOL    HW224127   3.363   7.112   7.604  0.3946  2.1764  1.2682
 7629SOL     OW24128   0.095   3.507   4.248 -0.5740 -0.1745  0.3958
 7629SOL    HW124129   0.057   3.421   4.265 -1.6201 -0.0638 -1.3136
 7629SOL    HW224130   0.189   3.492   4.242 -0.6623 -1.0259  1.0937
 7630SOL     OW24131   4.283   6.591   6.499  0.3978  0.4798 -0.2757
 7630SOL    HW124132   4.373   6.568   6.473  1.4029  0.6007  2.8724
 7630SOL    HW224133   4.276   6.684   6.480  0.6221  0.2575 -1.4444
 7631SOL     OW24134   6.273   6.595   3.512  0.0103  0.5050 -0.0916
 7631SOL    HW124135   6.316   6.679   3.498 -1.4322  1.0799 -1.1546
 7631SOL    HW224136   6.179   6.613   3.504 -0.3999 -0.9388  1.0836
 7632SOL     OW24137   1.659   1.363   2.996  0.0389 -0.3003  0.7439
 7632SOL    HW124138   1.613   1.390   3.076  0.0679  1.4239  0.1884
 7632SOL    HW224139   1.752   1.374   3.017  0.1181 -1.5476  1.0699
 7633SOL     OW24140   4.230   2.181   7.722 -0.6636 -0.4951  0.0621
 7633SOL    HW124141   4.151   2.200   7.773 -0.7329 -1.6621  0.4073
 7633SOL    HW224142   4.202   2.189   7.630 -1.2376 -1.1298  0.1813
 7634SOL     OW24143   4.947   6.159   6.761 -0.6076  0.3566 -0.2541
 7634SOL    HW124144   4.945   6.068   6.793  0.5898  1.4301  3.0604
 7634SOL    HW224145   5.040   6.176   6.743 -0.7924  1.0348 -0.5940
 7635SOL     OW24146   3.755   5.866   4.987  0.4563 -0.0845 -0.6813
 7635SOL    HW124147   3.716   5.858   5.074  0.7264  1.6093 -0.3845
 7635SOL    HW224148   3.845   5.837   4.998  0.1971 -0.8680 -0.6295
 7636SOL     OW24149   0.551   2.618   7.443  0.2007 -0.8417  0.4011
 7636SOL    HW124150   0.572   2.676   7.517  2.0286  0.0260 -0.7542
 7636SOL    HW224151   0.636   2.584   7.416 -0.2930 -0.1801 -2.0841
 7637SOL     OW24152   4.781   3.139   0.755  0.1367 -0.1592  0.5706
 7637SOL    HW124153   4.754   3.162   0.844  1.9171 -0.2073  1.1401
 7637SOL    HW224154   4.781   3.044   0.754  0.5894 -0.1608  0.6709
 7638SOL     OW24155   6.937   7.914   0.068  0.1373 -0.2877 -0.3537
 7638SOL    HW124156   6.910   7.873   0.150  2.0488 -0.3494  0.2695
 7638SOL    HW224157   7.030   7.892   0.060  0.3742  1.1428 -1.6783
 7639SOL     OW24158   6.063   6.272   5.686 -0.3130 -0.3955  0.1447
 7639SOL    HW124159   6.037   6.362   5.702 -0.0533 -0.7047  2.4369
 7639SOL    HW224160   6.054   6.261   5.591 -0.9234  1.8375 -0.0828
 7640SOL     OW24161   7.136   6.189   4.978  0.0410  0.3838 -0.6700
 7640SOL    HW124162   7.134   6.277   4.939  1.4826  0.0551 -1.5573
 7640SOL    HW224163   7.077   6.194   5.053 -0.6005  1.8506 -1.2543
 7641SOL     OW24164   4.698   8.280   0.928  0.3287  0.8655 -0.0851
 7641SOL    HW124165   4.629   8.243   0.983  0.6691  2.0346  1.1698
 7641SOL    HW224166   4.757   8.207   0.910 -1.1411 -0.1111 -1.0554
 7642SOL     OW24167   6.765   4.863   5.340  0.2043  0.1147  0.0888
 7642SOL    HW124168   6.720   4.882   5.258 -0.3133  0.8087  0.5323
 7642SOL    HW224169   6.743   4.772   5.359  1.2086 -0.4068 -1.0955
 7643SOL     OW24170   4.554   7.793   0.491 -0.2170  0.4986 -0.0391
 7643SOL    HW124171   4.477   7.851   0.491 -1.1861 -0.6850 -3.6848
 7643SOL    HW224172   4.623   7.846   0.450 -0.8123 -0.4830 -2.3858
 7644SOL     OW24173   1.942   4.266   7.472 -0.4586  0.2005 -0.3196
 7644SOL    HW124174   1.847   4.271   7.482 -0.4662 -0.6379  0.0722
 7644SOL    HW224175   1.959   4.174   7.453  0.3031  0.2937 -0.0991
 7645SOL     OW24176   0.181   3.748   4.481 -0.3505 -0.5581 -0.7519
 7645SOL    HW124177   0.095   3.706   4.477 -0.6842 -0.0065  0.7251
 7645SOL    HW224178   0.164   3.841   4.469 -0.1398 -0.2455  1.3159
 7646SOL     OW24179   2.822   5.880   3.236  0.1287  0.0776  0.7734
 7646SOL    HW124180   2.805   5.973   3.249 -0.2679 -0.0103  0.8923
 7646SOL    HW224181   2.776   5.858   3.155  0.0451 -0.0578  0.8562
 7647SOL     OW24182   6.076   2.658   4.107 -0.2656  0.3853 -0.5332
 7647SOL    HW124183   5.999   2.610   4.078  0.3477  0.2860 -2.0539
 7647SOL    HW224184   6.046   2.748   4.119 -0.9727  0.0208  0.4415
 7648SOL     OW24185   6.477   4.025   4.979 -0.2175  0.3718  0.1025
 7648SOL    HW124186   6.464   3.967   4.905 -0.5813  1.2330 -0.5106
 7648SOL    HW224187   6.503   3.967   5.051 -0.5171 -0.5313 -0.5176
 7649SOL     OW24188   6.427   2.743   0.841 -0.4751  0.0846 -0.3991
 7649SOL    HW124189   6.512   2.752   0.885 -1.3097  1.0313  1.0661
 7649SOL    HW224190   6.436   2.796   0.762  0.6260 -0.6103 -0.7467
 7650SOL     OW24191   4.798   5.403   4.876  0.2516  1.0940 -0.4383
 7650SOL    HW124192   4.716   5.417   4.922  0.8515 -0.7502  1.2422
 7650SOL    HW224193   4.832   5.320   4.910  1.4489  0.4147 -3.1338
 7651SOL     OW24194   4.991   6.647   2.940  0.4904 -0.1183  0.2539
 7651SOL    HW124195   4.898   6.661   2.919  0.4655 -0.7457 -0.0552
 7651SOL    HW224196   5.034   6.728   2.911  0.1570 -0.1551 -0.3559
 7652SOL     OW24197   6.480   3.571   0.777  0.1674  0.1046 -0.1896
 7652SOL    HW124198   6.574   3.564   0.794  0.1277  1.0128  0.4714
 7652SOL    HW224199   6.471   3.649   0.723 -0.2512  0.3473  0.2211
 7653SOL     OW24200   4.002   4.471   2.110 -0.2699  0.4729 -0.1216
 7653SOL    HW124201   3.944   4.446   2.182  2.5638 -0.7590  1.8322
 7653SOL    HW224202   4.006   4.566   2.113 -0.1819  0.4245  1.3428
 7654SOL     OW24203   0.383   7.821   5.960  0.0450 -0.9171 -0.2713
 7654SOL    HW124204   0.381   7.811   5.865  0.9612  1.5891 -0.5906
 7654SOL    HW224205   0.476   7.829   5.982 -0.2303 -0.2802  0.6945
 7655SOL     OW24206   4.836   0.031   2.355 -0.3785  0.4338 -0.3638
 7655SOL    HW124207   4.810   0.043   2.446 -1.6743  0.5395 -0.7265
 7655SOL    HW224208   4.876  -0.056   2.353 -2.1400 -0.4209 -0.0488
 7656SOL     OW24209   3.061   0.771   3.029  0.1034  0.3738 -0.2099
 7656SOL    HW124210   3.149   0.807   3.041  0.6021 -0.5023 -1.1794
 7656SOL    HW224211   3.034   0.800   2.942 -1.6801  2.8904  1.1136
 7657SOL     OW24212   0.477   7.752   2.757  0.0249  0.1803 -0.3248
 7657SOL    HW124213   0.495   7.819   2.823 -2.0414  1.3894 -0.9340
 7657SOL    HW224214   0.416   7.692   2.800 -0.7074  0.5315 -0.8715
 7658SOL     OW24215   1.818   6.201   1.033 -0.3481  0.2090  0.0842
 7658SOL    HW124216   1.859   6.165   0.954 -1.7070  0.5623 -0.8045
 7658SOL    HW224217   1.872   6.169   1.105  1.4406  0.6164 -1.0414
 7659SOL     OW24218   5.634   1.882   2.863  0.0801 -0.5237  0.3548
 7659SOL    HW124219   5.709   1.933   2.834 -1.2384  0.8462 -0.7204
 7659SOL    HW224220   5.588   1.940   2.924  0.0906 -1.4953  1.3113
 7660SOL     OW24221   2.968   6.372   1.866 -0.1850 -0.5822  0.6062
 7660SOL    HW124222   2.910   6.389   1.791 -0.5456 -0.3338  0.9414
 7660SOL    HW224223   2.922   6.305   1.917  0.8526 -2.0241 -0.2850
 7661SOL     OW24224   2.423   3.960   6.153 -0.1747  0.0220 -0.0190
 7661SOL    HW124225   2.420   3.910   6.234  0.1896 -0.0294 -0.0345
 7661SOL    HW224226   2.511   3.943   6.117  0.4010  1.6192  0.5830
 7662SOL     OW24227   0.333   4.350   7.884  0.0022 -0.2478 -0.3308
 7662SOL    HW124228   0.387   4.385   7.955 -0.5085  1.2942 -0.6988
 7662SOL    HW224229   0.244   4.375   7.907 -0.2299 -0.2508 -1.2203
 7663SOL     OW24230   0.299   1.808   4.278  0.2170 -0.4320  0.1183
 7663SOL    HW124231   0.238   1.788   4.207  0.3828  1.1228 -0.4742
 7663SOL    HW224232   0.366   1.741   4.271 -0.6598 -1.2967 -0.1356
 7664SOL     OW24233   1.386   3.810   1.927 -0.2072  0.0637  0.5120
 7664SOL    HW124234   1.323   3.807   1.855  1.8752  0.1148 -1.3412
 7664SOL    HW224235   1.394   3.719   1.955  0.3481 -0.2113 -0.5334
 7665SOL     OW24236   4.264   7.356   7.828  0.6538 -0.3873 -0.1580
 7665SOL    HW124237   4.233   7.446   7.829 -2.0725 -1.2863  0.7399
 7665SOL    HW224238   4.276   7.336   7.735  1.6444  0.9745 -0.3449
 7666SOL     OW24239   0.742   3.351   7.248 -0.1416 -0.0812  0.0519
 7666SOL    HW124240   0.687   3.370   7.323  0.5215  1.9901  0.0266
 7666SOL    HW224241   0.830   3.338   7.285 -0.2243 -1.2501 -0.1382
 7667SOL     OW24242   2.147   5.045   8.266  0.1372  0.4405  0.1458
 7667SOL    HW124243   2.220   5.102   8.291 -0.6335  2.3855 -1.9106
 7667SOL    HW224244   2.187   4.958   8.258  1.6577  0.9656  1.7589
 7668SOL     OW24245   6.001   2.504   3.162  0.0534 -0.7488  0.2972
 7668SOL    HW124246   5.973   2.581   3.112 -0.5725 -0.9489  0.3287
 7668SOL    HW224247   6.029   2.538   3.246 -0.5166 -0.5840  0.4229
 7669SOL     OW24248   2.503   1.768   6.428  0.5144 -0.0030  0.4845
 7669SOL    HW124249   2.443   1.693   6.427  1.8343 -1.0972  0.4576
 7669SOL    HW224250   2.557   1.755   6.350 -0.0280  1.6544 -0.1822
 7670SOL     OW24251   3.373   2.543   0.215 -0.4093 -0.6439 -0.0989
 7670SOL    HW124252   3.368   2.471   0.152  3.3584 -0.8982 -0.2087
 7670SOL    HW224253   3.368   2.501   0.301 -2.0850 -0.6287 -0.1760
 7671SOL     OW24254   4.888   3.923   6.882  0.3345  0.5200 -0.1008
 7671SOL    HW124255   4.906   3.909   6.789  2.1544 -0.9172  0.4554
 7671SOL    HW224256   4.815   3.864   6.901  0.6882  0.0020 -0.3534
 7672SOL     OW24257   4.736   6.515   2.594 -0.3888 -0.2512  0.3903
 7672SOL    HW124258   4.721   6.503   2.688 -2.7135 -1.2956 -0.0714
 7672SOL    HW224259   4.775   6.602   2.587 -0.8508  0.1268  2.2581
 7673SOL     OW24260   6.973   1.844   4.841  0.0711  0.0511  0.0211
 7673SOL    HW124261   7.002   1.915   4.900  0.9197 -0.5396  0.3184
 7673SOL    HW224262   6.981   1.765   4.894  1.0462 -0.5152 -0.9627
 7674SOL     OW24263   0.911   3.191   1.683  0.3054 -0.0971  0.3935
 7674SOL    HW124264   0.872   3.116   1.729  1.4979  0.3438  2.1554
 7674SOL    HW224265   1.005   3.173   1.682  0.3643  0.1125 -1.5408
 7675SOL     OW24266   7.918   3.044   0.097 -0.5368 -0.2647 -0.0016
 7675SOL    HW124267   7.920   3.021   0.190 -0.9052 -0.3600 -0.0186
 7675SOL    HW224268   7.825   3.042   0.073 -0.4258 -0.4224 -0.4190
 7676SOL     OW24269   7.399   6.061   1.703 -0.8788  0.2939  0.0477
 7676SOL    HW124270   7.332   6.110   1.751 -1.1497  0.0633 -0.0844
 7676SOL    HW224271   7.353   5.982   1.673  0.0218 -0.9482  1.8289
 7677SOL     OW24272   2.290   0.274   2.288 -0.2910 -0.1339  0.0783
 7677SOL    HW124273   2.275   0.199   2.345  0.9782  0.7321  1.6090
 7677SOL    HW224274   2.257   0.349   2.338  3.5567  1.0421  1.0375
 7678SOL     OW24275   1.242   3.026   4.227 -0.2590 -0.6396 -0.2238
 7678SOL    HW124276   1.149   3.006   4.222 -0.3596  0.0996 -1.7530
 7678SOL    HW224277   1.271   2.988   4.310 -1.8375 -1.1878  0.0898
 7679SOL     OW24278   0.758   3.391   4.691 -0.2608 -0.5721  0.4925
 7679SOL    HW124279   0.742   3.299   4.668  1.4986 -0.6200 -0.6547
 7679SOL    HW224280   0.853   3.396   4.705 -0.4650  0.8816  1.4832
 7680SOL     OW24281   2.544   4.532   3.969 -0.1876 -0.4103 -0.2499
 7680SOL    HW124282   2.560   4.529   3.874  1.1607 -1.1081 -0.0053
 7680SOL    HW224283   2.486   4.457   3.986 -2.4807  1.1587 -0.8797
 7681SOL     OW24284   2.301   2.121   7.443  0.1211 -0.3295 -0.3111
 7681SOL    HW124285   2.360   2.062   7.489 -0.0869 -2.0204 -2.1327
 7681SOL    HW224286   2.215   2.081   7.452 -0.0062 -0.3784 -1.6812
 7682SOL     OW24287   3.360   5.095   0.162  0.0352 -0.0497 -0.2048
 7682SOL    HW124288   3.298   5.078   0.232  0.5230  0.9023  0.4667
 7682SOL    HW224289   3.334   5.180   0.126  0.7923  0.2452 -0.0760
 7683SOL     OW24290   3.248   2.720   1.463  0.0613 -0.2180 -0.1534
 7683SOL    HW124291   3.214   2.652   1.522  1.0882 -2.2539 -1.8247
 7683SOL    HW224292   3.243   2.801   1.514 -1.2954 -1.5180  1.8635
 7684SOL     OW24293   6.748   5.422   4.015  0.3954  0.4633 -0.3791
 7684SOL    HW124294   6.689   5.487   3.975 -2.3900  0.1142  2.9202
 7684SOL    HW224295   6.819   5.474   4.053 -0.4685  1.3848  0.0135
 7685SOL     OW24296   0.926   2.602   7.964 -0.0558  0.0466  0.1618
 7685SOL    HW124297   0.956   2.583   7.875 -0.3571  0.2546  0.0128
 7685SOL    HW224298   0.855   2.666   7.952 -1.4067 -1.3866  0.4189
 7686SOL     OW24299   7.646   3.546   6.552  0.3979  0.1223 -0.5615
 7686SOL    HW124300   7.625   3.617   6.490  0.5702  1.0119  0.3866
 7686SOL    HW224301   7.568   3.490   6.551 -1.0304  2.0102  1.0000
 7687SOL     OW24302   5.521   1.175   6.543 -0.5912 -0.0335  0.4802
 7687SOL    HW124303   5.518   1.080   6.552  1.7097 -0.1474  0.3643
 7687SOL    HW224304   5.581   1.204   6.612  0.3519  1.1292 -0.7925
 7688SOL     OW24305   7.864   6.636   3.014  0.6184 -0.1084  0.0724
 7688SOL    HW124306   7.891   6.553   3.054  2.5245  0.7784  0.6894
 7688SOL    HW224307   7.808   6.678   3.079 -2.3172 -1.9032 -1.1636
 7689SOL     OW24308   7.360   7.430   3.957 -0.3620 -0.2192  0.1669
 7689SOL    HW124309   7.346   7.335   3.957 -1.4536 -0.0624  0.0544
 7689SOL    HW224310   7.449   7.441   3.923  0.8256 -1.3550  2.7607
 7690SOL     OW24311   1.164   0.735   5.386 -0.0953  0.0395  0.1814
 7690SOL    HW124312   1.213   0.794   5.443  1.4785  0.1560 -1.2648
 7690SOL    HW224313   1.075   0.771   5.385  0.0010  0.3601  2.0760
 7691SOL     OW24314   1.469   4.455   3.635  0.3870 -0.2379  0.2458
 7691SOL    HW124315   1.548   4.496   3.670  0.5966  1.0262 -1.6443
 7691SOL    HW224316   1.405   4.526   3.630  0.7338 -0.0898 -2.9798
 7692SOL     OW24317   4.914   8.286   7.849 -0.0739  0.5383 -0.0804
 7692SOL    HW124318   4.930   8.380   7.850  0.7276  0.3994  0.8799
 7692SOL    HW224319   4.824   8.277   7.881  0.4834  0.8734  1.6444
 7693SOL     OW24320   7.994   6.310   5.930  0.0017  0.0494 -0.0814
 7693SOL    HW124321   7.904   6.329   5.958 -0.1035 -1.6267  0.8198
 7693SOL    HW224322   8.020   6.385   5.877 -1.6259  0.9506  0.3796
 7694SOL     OW24323   6.363   7.838   7.995  0.4902  0.2458 -0.3569
 7694SOL    HW124324   6.404   7.767   7.946 -1.3609 -0.1355 -1.4074
 7694SOL    HW224325   6.302   7.794   8.055  1.7518  0.7845  1.3895
 7695SOL     OW24326   8.183   5.137   7.818  0.6849  0.2955  0.2376
 7695SOL    HW124327   8.264   5.100   7.784  0.5653 -0.1971  0.4773
 7695SOL    HW224328   8.203   5.159   7.909  0.7326  0.7511  0.1169
 7696SOL     OW24329   0.884   0.020   2.418  0.0924 -0.2211 -0.2243
 7696SOL    HW124330   0.954  -0.022   2.470  1.7198  0.8974 -1.4646
 7696SOL    HW224331   0.866  -0.043   2.348 -1.5604 -1.3846  1.1910
 7697SOL     OW24332   1.043   8.158   5.442  0.0670  0.1772 -0.1414
 7697SOL    HW124333   1.123   8.135   5.394  0.7275  1.3699  0.3568
 7697SOL    HW224334   1.026   8.249   5.417  0.5948  0.9106  2.0907
 7698SOL     OW24335   7.774   7.167   5.953 -0.7657  0.2179  0.3266
 7698SOL    HW124336   7.792   7.216   6.034 -2.7397  1.0600  0.2597
 7698SOL    HW224337   7.848   7.188   5.896  0.2571  0.2194  1.6195
 7699SOL     OW24338   5.531   0.573   0.419 -0.0566  0.4039  0.0670
 7699SOL    HW124339   5.446   0.609   0.395 -0.2052 -0.2193 -0.3530
 7699SOL    HW224340   5.544   0.601   0.510 -0.7315  0.4542  0.1512
 7700SOL     OW24341   4.934   5.162   6.597 -0.2957 -0.0679 -0.2776
 7700SOL    HW124342   4.866   5.228   6.606 -0.7529 -0.6440  0.5050
 7700SOL    HW224343   4.887   5.079   6.588  0.2812 -0.3283 -0.9465
 7701SOL     OW24344   0.428   1.992   3.458 -0.5837 -0.3085  0.1623
 7701SOL    HW124345   0.445   2.036   3.374 -0.5834  0.4072  0.5365
 7701SOL    HW224346   0.416   1.900   3.434 -0.3083 -0.1551 -0.5945
 7702SOL     OW24347   1.803   5.509   6.199  0.0409 -0.1515 -0.0320
 7702SOL    HW124348   1.780   5.599   6.223  0.2322 -0.7357  2.5027
 7702SOL    HW224349   1.888   5.495   6.242 -0.0584 -1.5846 -0.3046
 7703SOL     OW24350   1.677   6.957   2.313  0.0994 -0.2756 -0.0822
 7703SOL    HW124351   1.588   6.987   2.297  0.0789  0.3805  1.2327
 7703SOL    HW224352   1.671   6.862   2.311 -0.9705 -0.2672  1.7203
 7704SOL     OW24353   1.411   2.268   3.200 -0.9875 -0.0057 -0.6102
 7704SOL    HW124354   1.471   2.195   3.183 -2.2133 -1.3455  0.5612
 7704SOL    HW224355   1.466   2.337   3.237  0.0408 -0.7210 -0.7903
 7705SOL     OW24356   7.576   7.518   4.935  0.0527 -0.0839 -0.3442
 7705SOL    HW124357   7.560   7.471   5.017 -0.3556  0.3789 -0.1623
 7705SOL    HW224358   7.593   7.608   4.962  1.6763 -0.2821 -0.6213
 7706SOL     OW24359   2.703   5.343   7.921 -0.4762 -0.0619  0.3017
 7706SOL    HW124360   2.753   5.341   7.839 -1.2903  0.9366 -0.2272
 7706SOL    HW224361   2.746   5.278   7.977  0.3863 -0.4004 -0.7412
 7707SOL     OW24362   1.901   6.942   5.421  0.1201  0.5566  0.4513
 7707SOL    HW124363   1.842   7.017   5.416  1.0178  1.1780 -1.4935
 7707SOL    HW224364   1.988   6.980   5.429  0.5351 -0.2777  0.0138
 7708SOL     OW24365   2.756   4.872   2.800 -0.1318  0.1219 -0.7956
 7708SOL    HW124366   2.768   4.881   2.895 -2.5971 -1.5908 -0.2614
 7708SOL    HW224367   2.821   4.808   2.773 -2.6822 -3.2910  0.7078
 7709SOL     OW24368   2.313   7.743   3.740 -0.8088  0.1642 -0.0670
 7709SOL    HW124369   2.275   7.711   3.823 -1.1037  1.6852  0.3957
 7709SOL    HW224370   2.253   7.710   3.673 -0.2980 -1.5003  0.2787
 7710SOL     OW24371   0.472   1.111   2.123 -0.2603 -0.7910 -0.0955
 7710SOL    HW124372   0.380   1.090   2.110 -0.0372 -1.7124 -0.2533
 7710SOL    HW224373   0.480   1.202   2.097 -1.0084 -0.8817 -0.6664
 7711SOL     OW24374   5.352   1.826   3.133 -0.1147  0.6856 -0.5491
 7711SOL    HW124375   5.418   1.757   3.126 -0.5156  0.2586 -0.1789
 7711SOL    HW224376   5.386   1.897   3.080  0.2617  0.1664 -1.0105
 7712SOL     OW24377   7.487   4.554   2.570 -0.7142 -0.0603 -0.4472
 7712SOL    HW124378   7.451   4.617   2.508 -0.4509  0.1165 -0.4180
 7712SOL    HW224379   7.444   4.471   2.547 -1.8726  0.3422  0.2101
 7713SOL     OW24380   2.351   5.895   3.958 -0.4227 -0.2556 -0.0639
 7713SOL    HW124381   2.400   5.973   3.986  0.7098 -1.0235  0.1555
 7713SOL    HW224382   2.276   5.929   3.910  0.4362  0.9522 -0.5685
 7714SOL     OW24383   5.907   5.838   7.539 -0.4172 -0.2005  0.2563
 7714SOL    HW124384   5.948   5.756   7.567 -0.2836  0.2655  1.4875
 7714SOL    HW224385   5.933   5.848   7.447  1.1511 -0.5946  0.6302
 7715SOL     OW24386   6.213   5.554   0.852 -0.0859 -0.0193 -0.2209
 7715SOL    HW124387   6.149   5.597   0.909 -2.4799 -0.7302 -2.3207
 7715SOL    HW224388   6.259   5.493   0.910  2.2594  4.0511  2.4562
 7716SOL     OW24389   5.251   6.188   2.808 -0.0178  0.1244 -0.2137
 7716SOL    HW124390   5.254   6.195   2.713 -0.7230  1.5136 -0.1358
 7716SOL    HW224391   5.175   6.240   2.834  0.9722  0.8757  1.2208
 7717SOL     OW24392   5.894   1.803   7.066 -0.5974  0.4404  0.0457
 7717SOL    HW124393   5.946   1.801   7.146 -0.2795  1.3996 -0.1359
 7717SOL    HW224394   5.810   1.840   7.094 -1.3399 -1.4453  0.4153
 7718SOL     OW24395   8.012   5.241   5.776  0.1753  0.1006  0.3810
 7718SOL    HW124396   7.917   5.250   5.778 -0.0975 -1.8084 -1.9955
 7718SOL    HW224397   8.032   5.179   5.846 -0.3728  0.0257  0.4707
 7719SOL     OW24398   7.095   3.288   5.964 -0.5828  0.0796 -0.9823
 7719SOL    HW124399   7.177   3.336   5.952  0.5533 -1.1069  1.6456
 7719SOL    HW224400   7.030   3.355   5.982  0.5810  0.8160  0.5988
 7720SOL     OW24401   4.852   4.281   6.072  0.3282  0.3586  0.0042
 7720SOL    HW124402   4.878   4.239   5.991  1.3982  1.6841 -0.3528
 7720SOL    HW224403   4.792   4.351   6.046 -0.9460 -0.4964  0.5437
 7721SOL     OW24404   1.259   1.031   6.744 -0.4118  0.2391  0.0200
 7721SOL    HW124405   1.239   0.939   6.762 -1.6140  0.7249  1.3006
 7721SOL    HW224406   1.188   1.080   6.787  0.7941  1.8065  0.2959
 7722SOL     OW24407   4.439   1.397   1.744  0.1642 -0.5949 -0.7317
 7722SOL    HW124408   4.521   1.438   1.715 -0.2142 -0.1048 -1.1198
 7722SOL    HW224409   4.449   1.305   1.720  0.6829 -0.5757 -0.6001
 7723SOL     OW24410   3.502   5.035   0.404 -0.0335 -0.5272 -0.3909
 7723SOL    HW124411   3.460   5.026   0.318 -0.3250  0.7300 -0.4000
 7723SOL    HW224412   3.594   5.053   0.384 -0.0977 -0.2519 -0.4454
 7724SOL     OW24413   2.386   0.560   2.148  0.7762 -0.6188  0.4642
 7724SOL    HW124414   2.401   0.653   2.135 -0.0293 -0.4540  0.6964
 7724SOL    HW224415   2.293   0.553   2.172  0.8645 -1.4607  0.5934
 7725SOL     OW24416   2.566   5.885   1.248  0.1473  0.0132 -0.5494
 7725SOL    HW124417   2.642   5.934   1.215  0.7190  0.5391  1.5028
 7725SOL    HW224418   2.604   5.816   1.303 -0.8698  0.3513  0.5908
 7726SOL     OW24419   2.587   4.830   3.220 -0.0529  0.1257  0.1639
 7726SOL    HW124420   2.547   4.771   3.284 -0.1766  1.2696  1.1699
 7726SOL    HW224421   2.530   4.907   3.220 -0.4342 -0.1297 -1.8353
 7727SOL     OW24422   4.610   2.276   4.098  0.6688  0.1554 -0.6455
 7727SOL    HW124423   4.540   2.287   4.163  0.4154 -1.5698 -0.6013
 7727SOL    HW224424   4.573   2.312   4.018  0.6683  1.5427 -0.0290
 7728SOL     OW24425   7.360   2.467   5.607 -0.2491  0.3614  0.1716
 7728SOL    HW124426   7.301   2.420   5.548  0.8838 -0.9994  0.1001
 7728SOL    HW224427   7.357   2.558   5.577 -2.4304  0.3538  0.2843
 7729SOL     OW24428   2.661   1.849   8.084  0.2574  0.5822 -0.4752
 7729SOL    HW124429   2.621   1.814   8.005  0.2063  0.6539 -0.4802
 7729SOL    HW224430   2.756   1.839   8.069  0.2065 -1.3490  0.3213
 7730SOL     OW24431   6.410   4.889   3.218  0.1295  0.0671  0.0295
 7730SOL    HW124432   6.425   4.839   3.138 -1.6378  0.3293 -0.4881
 7730SOL    HW224433   6.426   4.980   3.192  2.9442 -0.1612  0.8661
 7731SOL     OW24434   6.738   3.075   7.427 -0.0001 -0.4330  0.4218
 7731SOL    HW124435   6.759   2.981   7.434  0.4888 -0.2347  1.6772
 7731SOL    HW224436   6.658   3.085   7.478 -1.4254 -0.5871 -1.7002
 7732SOL     OW24437   1.470   5.466   7.241  0.1353  0.0568  0.2307
 7732SOL    HW124438   1.393   5.523   7.233  1.0097  1.0238 -1.5582
 7732SOL    HW224439   1.471   5.416   7.159  1.1838 -0.2195  0.4080
 7733SOL     OW24440   5.766   2.028   1.255  0.1928  0.2672  0.5004
 7733SOL    HW124441   5.693   1.975   1.286 -0.2437  0.9561  0.6572
 7733SOL    HW224442   5.747   2.041   1.161 -0.1861  0.9084  0.6575
 7734SOL     OW24443   4.133   6.307   5.903  0.5496  0.1403  0.1246
 7734SOL    HW124444   4.040   6.303   5.927  0.9602  0.0529  1.8202
 7734SOL    HW224445   4.160   6.215   5.899  0.7441  0.1853  0.4161
 7735SOL     OW24446   8.269   6.540   6.024 -0.6039  0.3284 -0.3793
 7735SOL    HW124447   8.310   6.476   5.966 -0.9669  0.0752 -0.3565
 7735SOL    HW224448   8.201   6.580   5.971  1.2368  2.4868 -1.2106
 7736SOL     OW24449   5.990   2.004   8.125 -0.2948  0.2259  0.3846
 7736SOL    HW124450   6.053   1.967   8.064 -0.8996 -0.7713  0.3534
 7736SOL    HW224451   6.043   2.048   8.191  0.3490  2.5875 -1.6086
 7737SOL     OW24452   8.260   5.179   3.000 -0.5110 -0.5806 -0.2117
 7737SOL    HW124453   8.210   5.215   3.073 -0.1267 -0.2356 -0.1194
 7737SOL    HW224454   8.291   5.094   3.032  1.5888  0.5511  0.8784
 7738SOL     OW24455   5.795   5.172   0.981  0.4143  0.1200 -0.9110
 7738SOL    HW124456   5.812   5.107   0.913 -0.6661 -0.6623 -0.4470
 7738SOL    HW224457   5.706   5.154   1.009  1.2738 -0.3823  1.5955
 7739SOL     OW24458   0.171   3.371   5.797  0.2658 -0.0678  0.3579
 7739SOL    HW124459   0.229   3.445   5.812  0.3111  0.3338 -1.7194
 7739SOL    HW224460   0.193   3.339   5.710 -1.5059 -0.9296  0.1839
 7740SOL     OW24461   7.068   2.031   4.268 -0.1173  0.1246  0.0445
 7740SOL    HW124462   7.013   1.989   4.334  0.1046  0.0038  0.1526
 7740SOL    HW224463   7.008   2.052   4.196  0.0842 -1.9013 -0.7339
 7741SOL     OW24464   4.523   0.286   7.803  0.0695 -0.0586 -0.4892
 7741SOL    HW124465   4.435   0.319   7.787  0.6847  1.8602 -0.1147
 7741SOL    HW224466   4.510   0.208   7.857 -1.4192 -0.0843 -0.8671
 7742SOL     OW24467   1.993   6.824   2.487  0.6643  0.3047 -0.0879
 7742SOL    HW124468   1.947   6.880   2.550  0.0737 -0.3361  0.0519
 7742SOL    HW224469   2.084   6.853   2.491  0.2252  1.8267 -0.6146
 7743SOL     OW24470   4.292   3.348   5.312  0.0253  0.1353 -0.3872
 7743SOL    HW124471   4.316   3.440   5.305 -2.4170  0.7897 -0.4293
 7743SOL    HW224472   4.298   3.328   5.406  0.5746  0.3286 -0.3817
 7744SOL     OW24473   3.991   1.557   0.123 -0.3247  0.6344  0.1017
 7744SOL    HW124474   4.054   1.547   0.194  0.8049 -0.1443 -0.9908
 7744SOL    HW224475   3.993   1.651   0.102  0.8406  0.5348 -0.2544
 7745SOL     OW24476   5.581   4.505   8.077  0.5058 -0.1356  0.2616
 7745SOL    HW124477   5.556   4.554   7.998 -0.5771  0.2359  0.8343
 7745SOL    HW224478   5.676   4.520   8.085  0.3962  0.8723 -0.2470
 7746SOL     OW24479   5.071   5.538   3.171 -0.0818 -0.5389  0.0809
 7746SOL    HW124480   5.085   5.614   3.228  0.4153 -0.8175  0.3248
 7746SOL    HW224481   5.013   5.571   3.102 -1.9729 -0.5931  1.5931
 7747SOL     OW24482   8.177   0.057   8.041  0.1313  0.6109  0.0739
 7747SOL    HW124483   8.154   0.059   8.134 -0.0940 -2.1047  0.1137
 7747SOL    HW224484   8.144  -0.027   8.009  0.8102  1.1908 -2.3156
 7748SOL     OW24485   5.123   3.654   1.305  0.0655 -0.5114 -0.2914
 7748SOL    HW124486   5.062   3.668   1.377  0.6008 -2.3984  0.5664
 7748SOL    HW224487   5.123   3.736   1.257 -1.0250  0.4502  1.3146
 7749SOL     OW24488   7.970   1.101   1.247  0.0547 -0.0865  0.1980
 7749SOL    HW124489   7.879   1.130   1.259 -0.8788 -2.0682 -1.7634
 7749SOL    HW224490   7.998   1.074   1.334 -1.6948 -0.7017  0.5892
 7750SOL     OW24491   4.829   5.078   0.734 -0.0781  0.0337 -0.7388
 7750SOL    HW124492   4.760   5.014   0.716 -0.1372 -0.6873  1.9156
 7750SOL    HW224493   4.888   5.034   0.794  0.6396  2.0114  0.0518
 7751SOL     OW24494   6.670   1.678   3.648 -0.4606  0.1864  0.3191
 7751SOL    HW124495   6.652   1.641   3.562  1.1421 -0.5371  0.2817
 7751SOL    HW224496   6.601   1.643   3.705  1.1311 -3.0994  0.3477
 7752SOL     OW24497   7.641   2.557   7.446 -0.1685  0.6023  0.2983
 7752SOL    HW124498   7.689   2.510   7.377 -1.6751 -0.0986 -0.2903
 7752SOL    HW224499   7.705   2.565   7.517  0.6007 -1.0236 -0.1591
 7753SOL     OW24500   7.526   6.699   3.824 -0.4955 -0.2917  0.2031
 7753SOL    HW124501   7.560   6.709   3.735 -1.7591 -1.0211 -0.3692
 7753SOL    HW224502   7.602   6.716   3.880  0.4617 -0.4280 -1.0205
 7754SOL     OW24503   4.107   7.414   4.180  0.2423  0.1481 -0.0210
 7754SOL    HW124504   4.079   7.372   4.098  0.4136 -0.9899  0.5031
 7754SOL    HW224505   4.198   7.438   4.164  0.4570 -0.6052  0.0393
 7755SOL     OW24506   8.249   7.511   1.200 -0.2814  0.3319  0.1015
 7755SOL    HW124507   8.163   7.501   1.240 -0.6369  1.4276 -0.3726
 7755SOL    HW224508   8.310   7.474   1.265 -1.1463 -1.0080  0.1745
 7756SOL     OW24509   3.755   7.314   2.239  0.0896  0.0893  0.3552
 7756SOL    HW124510   3.721   7.234   2.198 -1.7620  0.6131  0.8419
 7756SOL    HW224511   3.678   7.367   2.255  1.2131  1.5473  0.9938
 7757SOL     OW24512   1.768   3.263   2.566  0.1969 -0.3288 -0.1459
 7757SOL    HW124513   1.702   3.329   2.544  1.3684  1.1061  0.5052
 7757SOL    HW224514   1.823   3.306   2.631  1.8849 -1.4221 -0.8135
 7758SOL     OW24515   3.386   2.093   5.926 -0.7530 -0.7695 -0.1758
 7758SOL    HW124516   3.469   2.075   5.884 -0.4520  1.5555 -0.6707
 7758SOL    HW224517   3.398   2.067   6.017  0.7285  0.1474 -0.1027
 7759SOL     OW24518   6.266   2.724   6.642  0.2947 -0.1639  0.2512
 7759SOL    HW124519   6.288   2.665   6.715 -0.4444  0.1707  0.7496
 7759SOL    HW224520   6.343   2.722   6.585  0.5807 -1.0117  0.6629
 7760SOL     OW24521   6.259   7.278   3.573  0.1254  0.2339  0.1873
 7760SOL    HW124522   6.270   7.372   3.559  1.1035 -0.3346 -3.1885
 7760SOL    HW224523   6.177   7.270   3.621 -0.6400  2.7317 -0.6724
 7761SOL     OW24524   4.325   3.940   2.198  0.1735 -0.6766 -0.7212
 7761SOL    HW124525   4.243   3.892   2.185 -0.8060  0.3833  1.3959
 7761SOL    HW224526   4.309   4.024   2.156 -0.2057 -0.0905  0.5883
 7762SOL     OW24527   6.048   1.661   1.285 -0.2355 -0.0237  0.1855
 7762SOL    HW124528   6.062   1.755   1.292 -1.4118  0.2090 -0.4789
 7762SOL    HW224529   6.010   1.635   1.370  0.2718  0.0672  0.4384
 7763SOL     OW24530   8.163   0.875   0.272  0.1406 -0.0038  0.5429
 7763SOL    HW124531   8.169   0.791   0.227  1.8327 -0.7640  2.1514
 7763SOL    HW224532   8.086   0.866   0.329  0.3814 -0.4959  0.7908
 7764SOL     OW24533   6.258   2.785   1.252 -0.3189 -0.2358  0.5604
 7764SOL    HW124534   6.266   2.880   1.254  1.0342 -0.3567  1.1194
 7764SOL    HW224535   6.221   2.761   1.337 -0.9577 -0.2017  0.3023
 7765SOL     OW24536   0.693   2.480   3.824 -0.3188 -0.0179  0.0255
 7765SOL    HW124537   0.683   2.555   3.765 -2.1771 -1.2288 -1.2339
 7765SOL    HW224538   0.680   2.516   3.911 -0.5561  1.2395 -0.5193
 7766SOL     OW24539   7.813   5.744   2.618  0.2292  0.0645  0.1408
 7766SOL    HW124540   7.718   5.736   2.609  0.4748  0.5094 -3.2322
 7766SOL    HW224541   7.826   5.828   2.661 -0.9071 -0.4525  1.5620
 7767SOL     OW24542   6.840   2.017   1.540  0.3927 -0.1092 -0.3940
 7767SOL    HW124543   6.815   1.958   1.612 -0.8104  0.1734 -0.5562
 7767SOL    HW224544   6.891   1.963   1.481  1.4469 -0.3319  0.7092
 7768SOL     OW24545   8.242   5.852   3.429  0.3031 -0.1643  0.0151
 7768SOL    HW124546   8.309   5.794   3.465  0.0683 -1.0024 -0.8591
 7768SOL    HW224547   8.183   5.869   3.502  1.5615  0.7245  0.8331
 7769SOL     OW24548   6.533   3.513   1.291  0.0256  0.1039 -0.1356
 7769SOL    HW124549   6.545   3.499   1.385 -0.4657  2.3409  0.2909
 7769SOL    HW224550   6.535   3.425   1.253 -0.9437 -0.9097  2.0883
 7770SOL     OW24551   3.210   6.960   6.263  0.2285  0.7170 -0.2565
 7770SOL    HW124552   3.144   6.911   6.311  0.1828  1.6539  0.6491
 7770SOL    HW224553   3.229   7.036   6.318  1.6416  0.7548 -0.7695
 7771SOL     OW24554   6.110   1.272   1.398 -0.0868  0.3681 -0.4854
 7771SOL    HW124555   6.159   1.314   1.469 -1.7500  0.5703  0.5722
 7771SOL    HW224556   6.121   1.178   1.413  0.4488  0.4141 -0.5872
 7772SOL     OW24557   4.732   1.223   0.674 -0.3385 -0.2336 -0.9649
 7772SOL    HW124558   4.688   1.302   0.641 -0.1402  0.7363  1.0259
 7772SOL    HW224559   4.824   1.247   0.678 -0.4805  0.0137  1.2037
 7773SOL     OW24560   7.125   5.306   6.448 -0.0134 -0.1001 -0.3765
 7773SOL    HW124561   7.039   5.344   6.465 -0.0980 -0.5789  0.2659
 7773SOL    HW224562   7.113   5.251   6.371 -0.4024 -0.5664  0.0151
 7774SOL     OW24563   0.438   6.109   7.881  0.6381 -0.4832 -0.0205
 7774SOL    HW124564   0.458   6.145   7.967 -2.1422 -0.1902  0.5386
 7774SOL    HW224565   0.388   6.029   7.899 -1.4043  0.4581 -1.3383
 7775SOL     OW24566   1.733   0.233   3.375  0.1029 -0.2205 -0.9623
 7775SOL    HW124567   1.731   0.163   3.310  0.8016 -0.9353 -0.2202
 7775SOL    HW224568   1.819   0.272   3.365  0.4143 -0.6811 -0.1028
 7776SOL     OW24569   0.623   0.158   3.737 -0.1527  0.1162  0.5036
 7776SOL    HW124570   0.567   0.233   3.759 -1.5392 -1.0365  1.0133
 7776SOL    HW224571   0.607   0.143   3.644 -1.6644 -0.9783  0.9239
 7777SOL     OW24572   1.659   4.061   6.190 -0.3744  0.3306  0.3876
 7777SOL    HW124573   1.750   4.056   6.160 -1.2245 -1.6546 -2.0845
 7777SOL    HW224574   1.658   4.013   6.273  0.4475 -1.5843 -0.6763
 7778SOL     OW24575   5.859   1.184   1.497 -0.2033 -0.5135  0.9004
 7778SOL    HW124576   5.801   1.253   1.530  0.6443 -0.5116  2.4504
 7778SOL    HW224577   5.933   1.231   1.459  0.1785 -0.5596  1.5838
 7779SOL     OW24578   0.615   5.630   2.032 -0.6652  0.5047 -0.2420
 7779SOL    HW124579   0.650   5.570   2.098 -0.8545  1.1156  0.4349
 7779SOL    HW224580   0.556   5.687   2.081  0.4098  2.0105 -0.6195
 7780SOL     OW24581   3.892   3.874   1.713  0.6377  0.1371  0.1931
 7780SOL    HW124582   3.920   3.819   1.639 -0.9596 -0.9445  0.3894
 7780SOL    HW224583   3.969   3.928   1.732  1.6183 -0.7313 -1.1947
 7781SOL     OW24584   5.262   8.214   7.003  0.4390 -0.3225 -0.0997
 7781SOL    HW124585   5.228   8.296   6.967 -0.3837 -0.1690  1.0276
 7781SOL    HW224586   5.354   8.232   7.022  0.4118  0.1472 -0.4084
 7782SOL     OW24587   3.812   4.564   0.884 -0.2301 -0.7590 -0.0957
 7782SOL    HW124588   3.881   4.542   0.821 -2.2844  0.1652 -2.7769
 7782SOL    HW224589   3.769   4.481   0.903  1.6687 -1.3613  1.6975
 7783SOL     OW24590   4.374   5.362   4.376  0.3675  0.0858  0.4433
 7783SOL    HW124591   4.370   5.399   4.287  0.5421  1.6422  1.0591
 7783SOL    HW224592   4.288   5.382   4.414  0.1858 -0.8456  0.5303
 7784SOL     OW24593   2.903   1.157   7.776  0.4006  0.3844  0.2369
 7784SOL    HW124594   2.862   1.104   7.845 -1.3251  0.9400 -0.3582
 7784SOL    HW224595   2.856   1.134   7.696  1.2908  0.9888 -0.4746
 7785SOL     OW24596   3.670   1.195   4.987  0.5052 -0.4312 -0.2587
 7785SOL    HW124597   3.714   1.128   4.934  0.3556  0.2907 -1.3025
 7785SOL    HW224598   3.644   1.149   5.067 -0.6546 -1.9345 -1.4719
 7786SOL     OW24599   2.923   2.838   2.997  0.8426 -0.0516  0.3533
 7786SOL    HW124600   2.983   2.858   2.925 -0.2117 -1.1110 -0.8205
 7786SOL    HW224601   2.959   2.759   3.037  0.1454 -0.7728 -0.4448
 7787SOL     OW24602   6.122   2.934   2.060 -0.3176  0.2021  0.0754
 7787SOL    HW124603   6.051   2.897   2.008 -0.7059  0.5675  0.3405
 7787SOL    HW224604   6.109   2.897   2.148 -0.8623  1.1539  0.4060
 7788SOL     OW24605   3.556   4.741   5.082  0.1774 -0.6128  0.1402
 7788SOL    HW124606   3.605   4.697   5.152 -0.6086  1.0839  1.7859
 7788SOL    HW224607   3.473   4.694   5.077  0.2901 -0.8208  0.2353
 7789SOL     OW24608   5.961   5.709   1.440  0.4330  0.3217 -0.3698
 7789SOL    HW124609   5.934   5.618   1.427 -1.3957  0.8782 -0.6355
 7789SOL    HW224610   5.982   5.714   1.534 -1.2868  0.0733  0.0442
 7790SOL     OW24611   1.303   3.995   0.008  0.2878 -0.5742  0.2393
 7790SOL    HW124612   1.245   4.061   0.044 -0.6352 -2.4760  2.3939
 7790SOL    HW224613   1.262   3.969  -0.075 -0.5743 -0.0904  0.5163
 7791SOL     OW24614   2.309   2.332   1.184 -0.2120  0.1812 -0.2180
 7791SOL    HW124615   2.249   2.284   1.127  0.6757  0.9319 -1.8066
 7791SOL    HW224616   2.393   2.288   1.174 -0.1749 -0.0340  0.9630
 7792SOL     OW24617   1.913   5.483   0.405  0.1008  0.1626  0.0575
 7792SOL    HW124618   1.970   5.496   0.329  0.9338 -1.3009  0.4081
 7792SOL    HW224619   1.832   5.528   0.383  0.4557  0.0113 -1.5642
 7793SOL     OW24620   3.789   0.436   4.741  0.7646  0.2487 -0.0016
 7793SOL    HW124621   3.846   0.511   4.760 -0.8681  1.6138 -0.3724
 7793SOL    HW224622   3.728   0.435   4.814  1.6198 -1.5903  0.7103
 7794SOL     OW24623   4.448   6.676   2.092 -0.2003  0.1018  0.1353
 7794SOL    HW124624   4.505   6.622   2.037 -0.9096 -0.4043 -0.1192
 7794SOL    HW224625   4.379   6.706   2.033 -1.5505 -1.3060  0.9557
 7795SOL     OW24626   7.844   3.290   3.382 -0.0823 -0.2279  0.6324
 7795SOL    HW124627   7.788   3.258   3.452 -0.4342 -0.1647  0.3794
 7795SOL    HW224628   7.916   3.227   3.377 -0.8665 -1.0831  0.0103
 7796SOL     OW24629   2.336   0.121   5.377 -0.1391 -0.0232  0.0166
 7796SOL    HW124630   2.307   0.212   5.372  0.8735  0.4269  2.0011
 7796SOL    HW224631   2.359   0.099   5.287 -0.7954  1.5341 -0.5647
 7797SOL     OW24632   5.732   5.416   7.326  0.7404 -0.0870  0.0328
 7797SOL    HW124633   5.781   5.345   7.285  1.4250 -0.8310  2.0688
 7797SOL    HW224634   5.679   5.373   7.393 -1.2410  0.9560 -0.8192
 7798SOL     OW24635   4.567   6.607   0.027 -0.1891 -0.0412 -0.1288
 7798SOL    HW124636   4.612   6.665   0.088 -0.3612 -0.9092  0.8479
 7798SOL    HW224637   4.514   6.550   0.083 -1.9203  0.4646 -1.2116
 7799SOL     OW24638   4.672   2.528   1.064 -0.1458  0.1681  0.3216
 7799SOL    HW124639   4.730   2.464   1.104 -0.7180 -1.3679 -1.2259
 7799SOL    HW224640   4.607   2.547   1.132  0.1045 -0.7881  0.8426
 7800SOL     OW24641   4.472   0.420   1.625  0.0114 -0.0741 -0.7746
 7800SOL    HW124642   4.550   0.451   1.580 -0.0741  0.2919 -0.6749
 7800SOL    HW224643   4.410   0.398   1.555 -0.4274  1.2919 -0.8226
 7801SOL     OW24644   0.620   4.448   5.795 -0.3489  0.0106  0.3792
 7801SOL    HW124645   0.548   4.444   5.732 -0.5139 -0.0647  0.5731
 7801SOL    HW224646   0.662   4.533   5.779  1.2433 -1.0947 -1.6276
 7802SOL     OW24647   7.711   4.397   1.624  0.6313 -0.1433 -0.0005
 7802SOL    HW124648   7.782   4.460   1.611  0.9176 -0.2457  1.0699
 7802SOL    HW224649   7.714   4.342   1.546  0.0204  1.5043 -1.2250
 7803SOL     OW24650   4.655   4.028   3.751  0.5120 -0.5240  0.0432
 7803SOL    HW124651   4.648   3.963   3.820 -0.6605  0.5627  0.9584
 7803SOL    HW224652   4.573   4.076   3.754 -0.0116 -1.1555 -2.8328
 7804SOL     OW24653   0.485   0.502   4.074  0.4351  0.2474  0.3402
 7804SOL    HW124654   0.513   0.440   4.141  0.9408  0.3934  0.2741
 7804SOL    HW224655   0.559   0.563   4.067  0.2643  0.4000 -0.1408
 7805SOL     OW24656   1.924   0.787   4.624 -0.1943 -0.1398 -0.4682
 7805SOL    HW124657   1.952   0.801   4.534 -1.7186 -2.1341 -1.2828
 7805SOL    HW224658   1.835   0.754   4.617 -1.7907  3.2543  1.9454
 7806SOL     OW24659   2.173   4.138   7.872  0.0269  0.0951  0.2058
 7806SOL    HW124660   2.154   4.098   7.957 -0.4027 -0.3813 -0.1125
 7806SOL    HW224661   2.090   4.175   7.844 -0.2760 -1.3289 -0.8386
 7807SOL     OW24662   2.887   5.711   1.666 -0.4935  0.0643  0.0163
 7807SOL    HW124663   2.897   5.801   1.696 -0.0788  0.0228  0.0091
 7807SOL    HW224664   2.965   5.666   1.698 -0.9494 -0.4166  0.4666
 7808SOL     OW24665   7.135   7.482   6.077  0.8978  0.2656 -0.1135
 7808SOL    HW124666   7.092   7.513   5.997  0.1942 -0.0018  0.1573
 7808SOL    HW224667   7.220   7.451   6.048  0.1112 -1.1238 -0.9804
 7809SOL     OW24668   4.525   0.592   5.248 -0.2559 -0.0803  0.0761
 7809SOL    HW124669   4.563   0.598   5.161  0.8704  0.4431  0.5890
 7809SOL    HW224670   4.437   0.557   5.234 -0.1279  0.1241 -1.2722
 7810SOL     OW24671   2.220   2.012   3.098 -0.9361  0.2849  0.1760
 7810SOL    HW124672   2.170   2.087   3.064 -1.6776 -0.9728 -1.6206
 7810SOL    HW224673   2.162   1.972   3.163 -0.6151  1.1556  1.0032
 7811SOL     OW24674   2.708   2.785   2.606  0.0505 -0.3983 -0.3675
 7811SOL    HW124675   2.639   2.721   2.591 -0.7645  0.5369 -0.6202
 7811SOL    HW224676   2.758   2.750   2.679  0.5635 -2.1149 -1.5096
 7812SOL     OW24677   7.235   1.573   2.373 -0.1976  0.3247 -0.2714
 7812SOL    HW124678   7.207   1.504   2.313 -0.9786  0.7598 -0.4111
 7812SOL    HW224679   7.281   1.636   2.318 -1.3946  0.9999 -0.5222
 7813SOL     OW24680   8.260   4.071   6.011  0.2750 -0.2421 -0.0494
 7813SOL    HW124681   8.272   4.116   5.928  0.4160 -0.2491 -0.0328
 7813SOL    HW224682   8.337   4.093   6.062  0.4225 -0.6333 -0.1002
 7814SOL     OW24683   0.348   2.119   4.287  0.4806  0.0879  0.0392
 7814SOL    HW124684   0.308   2.037   4.316 -0.9757  0.7448 -0.0276
 7814SOL    HW224685   0.371   2.105   4.195  0.3227 -0.2753  0.0559
 7815SOL     OW24686   4.786   0.796   2.967  0.0230  0.7388 -0.7586
 7815SOL    HW124687   4.814   0.705   2.957 -0.6618  0.4269  0.0591
 7815SOL    HW224688   4.844   0.846   2.910  0.1192 -0.2629 -1.5579
 7816SOL     OW24689   6.523   6.136   1.230  0.3928  0.0253  0.0879
 7816SOL    HW124690   6.488   6.070   1.170 -0.9745  0.7737  0.0390
 7816SOL    HW224691   6.534   6.090   1.313  0.7919 -0.6126 -0.3133
 7817SOL     OW24692   2.321   3.514   3.993 -0.1155 -0.2175 -0.1098
 7817SOL    HW124693   2.319   3.514   3.898 -1.2803  2.5311 -0.1396
 7817SOL    HW224694   2.413   3.531   4.015  0.6926 -3.5805 -0.6512
 7818SOL     OW24695   0.624   1.659   4.215  0.4160 -0.1764 -0.4206
 7818SOL    HW124696   0.560   1.622   4.154  1.8948  0.4544 -2.3847
 7818SOL    HW224697   0.692   1.592   4.221  0.0850 -0.4236  0.9176
 7819SOL     OW24698   4.553   0.652   4.204  0.1405 -0.1295 -0.2918
 7819SOL    HW124699   4.625   0.605   4.163  1.5145 -0.4876  2.4314
 7819SOL    HW224700   4.575   0.745   4.191  1.3680 -0.2327  0.9403
 7820SOL     OW24701   5.491   3.522   5.571 -0.2317  0.9521 -0.6125
 7820SOL    HW124702   5.477   3.601   5.519  0.4931  1.0435 -0.6718
 7820SOL    HW224703   5.414   3.516   5.627 -2.2517 -0.4819 -3.4060
 7821SOL     OW24704   0.695   5.915   0.117 -0.2996 -0.1390 -0.1306
 7821SOL    HW124705   0.608   5.926   0.154 -0.0148  0.1982  0.4544
 7821SOL    HW224706   0.691   5.961   0.033 -0.3626  0.8302  0.3968
 7822SOL     OW24707   2.039   8.035   2.124 -0.3180 -0.6980  0.2007
 7822SOL    HW124708   1.972   8.010   2.187 -2.1247 -0.0607 -1.4100
 7822SOL    HW224709   2.071   7.952   2.088 -1.1035 -0.9681  0.1259
 7823SOL     OW24710   8.145   4.695   7.324  0.5238 -0.0847  0.0275
 7823SOL    HW124711   8.076   4.638   7.358 -0.7199  0.9499 -0.7222
 7823SOL    HW224712   8.098   4.766   7.280  2.0834 -0.0261 -1.5742
 7824SOL     OW24713   0.073   6.726   5.804 -0.0622 -0.0804  0.2310
 7824SOL    HW124714   0.116   6.665   5.864  0.8451  0.2381 -0.0989
 7824SOL    HW224715   0.122   6.718   5.722 -0.3418  0.6208 -0.0090
 7825SOL     OW24716   5.458   7.710   2.057 -0.3441  0.0401 -0.0755
 7825SOL    HW124717   5.372   7.741   2.029 -0.5828  0.1566  0.7904
 7825SOL    HW224718   5.498   7.785   2.101  0.2421  0.0123 -0.5379
 7826SOL     OW24719   3.140   2.012   1.612  0.0739 -0.4302  0.1119
 7826SOL    HW124720   3.077   1.953   1.653 -2.1379  0.8032 -1.3524
 7826SOL    HW224721   3.225   1.981   1.640 -1.2410 -1.4344  3.1235
 7827SOL     OW24722   0.462   6.436   2.647 -0.6291  0.6261  0.2584
 7827SOL    HW124723   0.483   6.425   2.740  2.7473  1.5989 -0.3480
 7827SOL    HW224724   0.474   6.529   2.630 -0.3178  0.3094 -1.3772
 7828SOL     OW24725   6.925   0.277   4.200  0.1024  0.6841 -0.1520
 7828SOL    HW124726   6.872   0.352   4.174 -2.7240 -0.9063  0.7688
 7828SOL    HW224727   6.886   0.203   4.153  2.1766 -0.3970 -0.2353
 7829SOL     OW24728   5.394   5.967   7.259  0.3454  0.6568  0.9905
 7829SOL    HW124729   5.471   5.983   7.205 -0.8652  1.5608 -0.5300
 7829SOL    HW224730   5.325   6.020   7.218 -1.0161  0.0556  2.4546
 7830SOL     OW24731   6.936   4.763   7.177  0.6659 -0.1027  0.6540
 7830SOL    HW124732   6.978   4.844   7.207  0.9412 -0.3264  0.8780
 7830SOL    HW224733   7.001   4.723   7.120 -0.4908  1.1539 -1.6363
 7831SOL     OW24734   6.082   1.762   3.106  0.0226 -0.1654 -0.7392
 7831SOL    HW124735   6.143   1.689   3.108  1.8690  1.3485  0.1428
 7831SOL    HW224736   6.138   1.840   3.100 -1.7626  1.3191  1.1492
 7832SOL     OW24737   2.306   6.904   3.314 -0.6620 -0.6677  0.2353
 7832SOL    HW124738   2.384   6.850   3.299 -0.9924 -1.1740  0.3388
 7832SOL    HW224739   2.329   6.956   3.392  0.3797  0.7216 -0.9717
 7833SOL     OW24740   5.648   6.348   3.380  0.2249  0.2886 -0.3516
 7833SOL    HW124741   5.718   6.304   3.430  0.7237  0.0542 -1.2448
 7833SOL    HW224742   5.567   6.314   3.418  0.5719  1.3316  1.3842
 7834SOL     OW24743   3.814   8.015   0.828  0.0455  0.0937 -0.3881
 7834SOL    HW124744   3.797   7.955   0.901 -0.3580 -0.3566 -0.8550
 7834SOL    HW224745   3.832   7.958   0.753  2.8806  0.5341 -0.1081
 7835SOL     OW24746   5.882   7.597   6.001 -0.1548  0.3329 -0.1946
 7835SOL    HW124747   5.880   7.518   6.054 -1.0738 -1.8467 -3.3395
 7835SOL    HW224748   5.843   7.665   6.057  1.5580 -1.1538  2.8840
 7836SOL     OW24749   2.193   0.458   2.475  0.0210 -0.9851  0.5485
 7836SOL    HW124750   2.156   0.547   2.481 -1.5165 -1.5076 -0.6703
 7836SOL    HW224751   2.151   0.411   2.547  0.8464 -0.7269  1.2029
 7837SOL     OW24752   6.908   4.434   3.174  0.1029 -0.6777 -0.6491
 7837SOL    HW124753   6.920   4.512   3.228 -1.3993 -0.9350  0.0908
 7837SOL    HW224754   6.850   4.378   3.225  1.1287 -2.2603 -1.2034
 7838SOL     OW24755   5.852   6.214   8.254  0.4185  0.0843 -0.7252
 7838SOL    HW124756   5.879   6.165   8.332  1.5691  1.4590 -0.2354
 7838SOL    HW224757   5.851   6.150   8.184  1.6046 -0.7030 -0.0320
 7839SOL     OW24758   7.833   6.477   0.884 -0.2905  0.1760  0.0352
 7839SOL    HW124759   7.809   6.390   0.915 -0.4536  0.4314  0.6292
 7839SOL    HW224760   7.867   6.522   0.961 -0.3297  0.6838 -0.2389
 7840SOL     OW24761   0.394   2.020   1.915  0.3274 -0.3315  0.1938
 7840SOL    HW124762   0.339   1.960   1.865 -2.1126  0.4597  1.8334
 7840SOL    HW224763   0.434   2.076   1.849  1.2810 -2.5955 -1.2377
 7841SOL     OW24764   0.064   2.429   0.398  0.0934 -0.2123  0.2551
 7841SOL    HW124765   0.126   2.440   0.470 -0.4796 -1.9693  1.0275
 7841SOL    HW224766   0.016   2.512   0.395  2.4146  1.1628 -0.3281
 7842SOL     OW24767   1.263   4.302   0.624 -0.0148 -0.2362 -0.4665
 7842SOL    HW124768   1.169   4.314   0.617 -0.2284 -2.1650 -1.4170
 7842SOL    HW224769   1.285   4.242   0.552  1.9027  0.0394 -0.1517
 7843SOL     OW24770   3.608   5.842   7.953  0.0134 -0.1987 -0.1568
 7843SOL    HW124771   3.615   5.936   7.937 -1.5086 -0.1731 -0.7880
 7843SOL    HW224772   3.604   5.803   7.866  0.6737 -0.8532  0.1012
 7844SOL     OW24773   1.405   2.987   5.978  0.4516 -0.2210 -0.3484
 7844SOL    HW124774   1.467   3.059   5.992  0.7343 -0.8669  2.1107
 7844SOL    HW224775   1.350   2.988   6.057 -0.1996 -2.0524 -0.7588
 7845SOL     OW24776   6.725   2.696   2.526 -0.2464  0.1341 -0.1182
 7845SOL    HW124777   6.789   2.767   2.514 -1.4090  1.0684 -0.8469
 7845SOL    HW224778   6.654   2.736   2.576  0.3626 -1.2852  1.9460
 7846SOL     OW24779   1.295   4.801   3.222  0.3183 -0.2871  0.1168
 7846SOL    HW124780   1.277   4.876   3.166 -0.3565 -0.6063 -0.0962
 7846SOL    HW224781   1.383   4.773   3.197  0.1565 -0.2132 -0.5393
 7847SOL     OW24782   0.949   5.253   7.997  0.2527 -0.0036 -0.1939
 7847SOL    HW124783   1.017   5.257   7.929  0.8066  0.1240  0.3657
 7847SOL    HW224784   0.873   5.295   7.957  0.9121  1.0666 -0.3385
 7848SOL     OW24785   4.090   6.307   7.976  0.4399 -0.3521  1.0519
 7848SOL    HW124786   4.060   6.266   8.057 -1.0571 -1.7322 -0.1648
 7848SOL    HW224787   4.010   6.342   7.936  1.1706  0.4044  0.2045
 7849SOL     OW24788   2.332   1.164   3.738 -0.0240  0.2126  0.9665
 7849SOL    HW124789   2.252   1.213   3.758 -1.3235 -1.7843  0.7569
 7849SOL    HW224790   2.345   1.106   3.813 -1.3971 -2.7717 -1.0039
 7850SOL     OW24791   6.731   6.145   3.982 -0.1512  0.0129 -0.5109
 7850SOL    HW124792   6.679   6.169   3.906  0.2708 -0.4975 -0.9694
 7850SOL    HW224793   6.668   6.115   4.047 -0.6652  2.0870 -0.0199
 7851SOL     OW24794   2.872   7.744   1.459 -0.0158  0.1894  0.0180
 7851SOL    HW124795   2.900   7.729   1.549 -0.7090 -0.2828  0.1547
 7851SOL    HW224796   2.802   7.681   1.444  1.1709 -0.8476 -1.3789
 7852SOL     OW24797   8.070   6.727   2.866  0.2289  0.2073 -0.1376
 7852SOL    HW124798   8.030   6.746   2.781 -0.7592 -0.8627  0.0678
 7852SOL    HW224799   7.996   6.700   2.922  1.0555 -0.5192  0.6323
 7853SOL     OW24800   0.839   1.526   0.856  0.1251 -0.4575  0.1932
 7853SOL    HW124801   0.898   1.451   0.851  0.1072 -0.5335  1.1473
 7853SOL    HW224802   0.768   1.498   0.913 -0.0563  0.1691  0.2849
 7854SOL     OW24803   0.117   3.997   4.332  0.6401  0.7321 -0.1633
 7854SOL    HW124804   0.042   4.021   4.277 -0.6740 -1.4280  0.6207
 7854SOL    HW224805   0.193   4.003   4.273 -0.4014  1.0124 -1.4970
 7855SOL     OW24806   4.204   4.151   4.719 -0.9518 -0.3243 -0.0948
 7855SOL    HW124807   4.256   4.113   4.647 -1.8792  2.0102 -2.0473
 7855SOL    HW224808   4.264   4.213   4.761 -0.6941 -1.0606  0.6584
 7856SOL     OW24809   7.163   2.665   5.307  0.2460 -0.4923  0.0285
 7856SOL    HW124810   7.141   2.757   5.314 -0.0542 -0.5583 -0.0648
 7856SOL    HW224811   7.235   2.653   5.370 -1.4606 -0.7508  1.9950
 7857SOL     OW24812   7.137   4.604   7.562 -0.2713 -0.0942  0.2763
 7857SOL    HW124813   7.130   4.699   7.551  0.9344 -0.1788 -1.3973
 7857SOL    HW224814   7.052   4.571   7.536 -0.7366  0.5365  0.9717
 7858SOL     OW24815   4.838   3.176   4.510 -1.0773  0.0823 -0.2262
 7858SOL    HW124816   4.764   3.195   4.567 -0.7285  0.5558  0.0658
 7858SOL    HW224817   4.875   3.262   4.488 -2.4993  0.0877 -2.8915
 7859SOL     OW24818   6.110   6.724   7.834 -0.1104 -0.3823 -0.3373
 7859SOL    HW124819   6.204   6.734   7.852  0.1254  0.0571 -1.7695
 7859SOL    HW224820   6.067   6.761   7.911  0.8471  2.2478 -1.0171
 7860SOL     OW24821   5.633   3.121   7.709 -0.6659 -0.0747 -0.1758
 7860SOL    HW124822   5.601   3.191   7.653  1.1130 -0.2230 -1.4162
 7860SOL    HW224823   5.722   3.147   7.731 -0.6690 -0.9940  0.9642
 7861SOL     OW24824   6.347   4.629   1.942 -0.6242  0.1621 -0.0373
 7861SOL    HW124825   6.259   4.665   1.943 -0.4283  0.6398 -0.1400
 7861SOL    HW224826   6.334   4.534   1.940 -1.1251  0.2556 -1.0618
 7862SOL     OW24827   0.497   4.948   7.286 -0.2113 -0.0275  0.0427
 7862SOL    HW124828   0.469   4.857   7.300 -0.1540 -0.0516 -0.0007
 7862SOL    HW224829   0.527   4.950   7.195  0.6583 -0.1916  0.3162
 7863SOL     OW24830   1.388   0.662   4.044 -0.1209  0.1291  0.9527
 7863SOL    HW124831   1.320   0.641   4.109 -0.2501  0.6045  0.9764
 7863SOL    HW224832   1.466   0.615   4.075 -0.1294  0.4983  1.5637
 7864SOL     OW24833   7.921   4.231   3.477 -0.2835  0.2877 -0.7032
 7864SOL    HW124834   7.945   4.318   3.443 -0.2290 -0.3678 -2.3631
 7864SOL    HW224835   7.951   4.170   3.410  2.1444 -1.2416  1.6655
 7865SOL     OW24836   0.009   7.222   8.156 -0.3750 -0.3291  0.3888
 7865SOL    HW124837   0.053   7.183   8.231 -2.4704 -1.0793  1.2668
 7865SOL    HW224838   0.005   7.152   8.091  0.9424  0.1588 -0.2501
 7866SOL     OW24839   4.977   7.606   8.077  0.0988  0.7137  0.1484
 7866SOL    HW124840   4.939   7.518   8.067  1.1994  0.3409 -0.9178
 7866SOL    HW224841   4.902   7.664   8.087 -0.6104 -0.6607  3.6895
 7867SOL     OW24842   6.390   0.889   5.129 -0.2745  0.2018  0.3262
 7867SOL    HW124843   6.475   0.848   5.114  0.5856  1.7173  0.8929
 7867SOL    HW224844   6.327   0.830   5.087  1.0460 -0.9356 -0.1111
 7868SOL     OW24845   5.553   3.619   5.897 -0.2166  0.2218  0.2238
 7868SOL    HW124846   5.560   3.620   5.801  3.8208 -0.5335  0.4235
 7868SOL    HW224847   5.516   3.704   5.919  0.5899  1.1670 -1.9364
 7869SOL     OW24848   1.514   4.134   1.240 -0.2094  0.0762  0.0456
 7869SOL    HW124849   1.496   4.104   1.329 -0.9890  0.3498 -0.0154
 7869SOL    HW224850   1.437   4.108   1.189  0.0490  0.2830 -0.4593
 7870SOL     OW24851   1.338   5.335   5.546  0.0232 -0.2465 -0.3556
 7870SOL    HW124852   1.421   5.382   5.545  0.7007 -1.4305 -3.0927
 7870SOL    HW224853   1.355   5.255   5.596 -0.0361  0.4362  0.7809
 7871SOL     OW24854   7.327   3.151   0.877 -0.5215 -0.1606 -0.0863
 7871SOL    HW124855   7.288   3.236   0.900 -0.6772 -0.2378 -0.0641
 7871SOL    HW224856   7.252   3.097   0.852 -0.3511 -0.1002 -0.7084
 7872SOL     OW24857   2.504   6.574   3.556 -0.1355  0.0033  0.7045
 7872SOL    HW124858   2.521   6.618   3.472 -0.2944  1.6004  1.4795
 7872SOL    HW224859   2.411   6.589   3.572  0.0874  0.4599  1.5811
 7873SOL     OW24860   0.192   0.655   1.076  0.3295  0.6478  0.0820
 7873SOL    HW124861   0.115   0.650   1.133 -0.5845  2.4309 -0.9213
 7873SOL    HW224862   0.180   0.584   1.013 -0.7795  1.2080 -0.3638
 7874SOL     OW24863   3.794   3.480   1.741 -0.2787  0.0638  0.7463
 7874SOL    HW124864   3.820   3.429   1.665  0.2004  0.5688  0.5640
 7874SOL    HW224865   3.706   3.511   1.720 -1.2578 -2.0734  1.5818
 7875SOL     OW24866   1.189   0.353   6.894  0.0079 -0.4352  0.1017
 7875SOL    HW124867   1.207   0.420   6.828 -0.7526  0.3260  0.6575
 7875SOL    HW224868   1.197   0.270   6.846 -0.6410  0.1127 -0.9890
 7876SOL     OW24869   7.813   0.347   1.904 -0.2673  0.0507 -0.4287
 7876SOL    HW124870   7.726   0.373   1.873  0.5631  1.4375 -1.6130
 7876SOL    HW224871   7.804   0.253   1.920 -1.7158 -0.0191 -1.4880
 7877SOL     OW24872   4.709   8.150   5.590 -0.0055 -0.0294 -0.0688
 7877SOL    HW124873   4.643   8.134   5.522 -0.1311  1.0382 -0.2102
 7877SOL    HW224874   4.684   8.235   5.627  1.6405  0.6792 -0.5418
 7878SOL     OW24875   1.544   0.919   0.331  0.5167  0.6736 -0.6377
 7878SOL    HW124876   1.485   0.961   0.394  1.9505  0.2866  1.0145
 7878SOL    HW224877   1.577   0.992   0.278  0.3776  1.2013 -0.0151
 7879SOL     OW24878   2.529   6.997   5.510  0.4369 -0.4596  0.1797
 7879SOL    HW124879   2.443   6.958   5.526  0.2378  0.4867  1.5395
 7879SOL    HW224880   2.522   7.033   5.422 -0.3618 -0.9028  0.0508
 7880SOL     OW24881   3.942   1.592   4.165  0.2045 -0.0311 -0.0572
 7880SOL    HW124882   3.914   1.633   4.083 -1.9790 -1.2211  0.0521
 7880SOL    HW224883   3.938   1.498   4.147 -1.3762 -0.3340  1.7238
 7881SOL     OW24884   6.313   5.965   4.699 -0.1392  0.0603  1.0041
 7881SOL    HW124885   6.313   5.966   4.795 -1.2111 -0.0820  1.0127
 7881SOL    HW224886   6.260   5.889   4.676 -2.8644  2.1000  0.3118
 7882SOL     OW24887   6.529   6.431   7.624  0.5655 -0.0309  0.0668
 7882SOL    HW124888   6.566   6.348   7.592 -0.0237 -1.2139  2.3006
 7882SOL    HW224889   6.448   6.405   7.668 -0.4644  1.9591 -0.5759
 7883SOL     OW24890   1.304   4.397   4.933 -0.0034  0.6829 -0.5360
 7883SOL    HW124891   1.292   4.360   4.846  0.7802  0.0915 -0.4019
 7883SOL    HW224892   1.399   4.395   4.947 -0.0737  1.3664  0.0727
 7884SOL     OW24893   5.213   3.236   2.455 -0.6288  0.1921 -0.1740
 7884SOL    HW124894   5.137   3.276   2.496 -1.7989 -0.8518 -1.2817
 7884SOL    HW224895   5.288   3.268   2.506 -1.5029  3.6171 -0.8966
 7885SOL     OW24896   0.214   4.800   3.170 -0.7506  0.0510 -0.3714
 7885SOL    HW124897   0.232   4.854   3.248 -0.4241  0.1138 -0.4850
 7885SOL    HW224898   0.184   4.716   3.204 -3.1570  0.9470 -0.2192
 7886SOL     OW24899   5.142   5.680   4.154 -0.4600  0.4048  0.1272
 7886SOL    HW124900   5.164   5.647   4.066 -3.1958 -0.0885 -0.4018
 7886SOL    HW224901   5.216   5.652   4.209 -0.2604 -2.1399 -1.3434
 7887SOL     OW24902   4.087   3.945   7.596 -0.5454  0.4374  0.1243
 7887SOL    HW124903   4.006   3.897   7.612 -0.4420  0.5472  1.0313
 7887SOL    HW224904   4.079   4.023   7.651 -0.3024  0.9929 -0.6250
 7888SOL     OW24905   2.094   5.898   1.608  0.1105  0.1338 -1.2368
 7888SOL    HW124906   2.024   5.946   1.653 -0.8395  0.2702 -2.8189
 7888SOL    HW224907   2.169   5.906   1.666 -0.9096  0.8506  0.0256
 7889SOL     OW24908   0.244   4.069   0.683  0.2609 -0.1585 -0.2507
 7889SOL    HW124909   0.335   4.084   0.708 -0.0185  2.3795 -0.5824
 7889SOL    HW224910   0.247   4.044   0.591  0.6062  0.3800 -0.3885
 7890SOL     OW24911   3.143   2.395   3.667 -0.0844  0.1877  0.1390
 7890SOL    HW124912   3.203   2.431   3.602 -1.5186 -0.1193 -1.3937
 7890SOL    HW224913   3.056   2.410   3.630 -0.9190 -0.0565  1.9657
 7891SOL     OW24914   1.864   3.362   1.493 -0.1905 -0.5729  0.0502
 7891SOL    HW124915   1.801   3.291   1.492 -0.6024 -0.2336  1.1773
 7891SOL    HW224916   1.949   3.320   1.477 -0.6146 -1.1045 -0.8238
 7892SOL     OW24917   2.589   7.866   4.287 -0.1639 -0.1144 -0.2570
 7892SOL    HW124918   2.523   7.864   4.218  0.8987  0.6112 -1.3235
 7892SOL    HW224919   2.540   7.891   4.366 -1.3254 -0.5947 -0.8073
 7893SOL     OW24920   2.574   4.760   1.407 -0.1353 -0.3512 -0.6993
 7893SOL    HW124921   2.521   4.680   1.417 -1.9124  0.6726 -1.6399
 7893SOL    HW224922   2.664   4.730   1.413 -0.8205 -2.0237  1.9379
 7894SOL     OW24923   1.266   0.993   5.928 -0.4865 -0.4159  0.4786
 7894SOL    HW124924   1.211   1.007   5.850  0.6683 -1.0127 -0.4594
 7894SOL    HW224925   1.221   1.041   5.998 -0.7746  1.3583 -0.8885
 7895SOL     OW24926   5.339   3.982   6.402  0.3266 -0.1032  0.2723
 7895SOL    HW124927   5.407   4.049   6.394  1.1473 -0.8483  0.8459
 7895SOL    HW224928   5.335   3.963   6.496 -0.4417 -0.3033  0.2054
 7896SOL     OW24929   1.125   2.434   6.217 -0.4108  0.3694 -0.3109
 7896SOL    HW124930   1.109   2.388   6.134 -0.2936 -0.2017 -0.0130
 7896SOL    HW224931   1.212   2.472   6.207 -0.8691  1.3018 -0.9134
 7897SOL     OW24932   2.616   2.188   4.419 -0.2502  0.1936  0.0496
 7897SOL    HW124933   2.584   2.145   4.340  1.7462  1.0135 -1.2527
 7897SOL    HW224934   2.634   2.278   4.391 -0.0847  0.6479  1.5938
 7898SOL     OW24935   8.197   1.287   4.361  0.0430 -0.8870 -0.1307
 7898SOL    HW124936   8.270   1.318   4.414 -0.2393  0.8565 -0.7232
 7898SOL    HW224937   8.142   1.237   4.422 -0.0084  0.6384  1.1025
 7899SOL     OW24938   3.581   3.445   4.381 -0.1295  0.0368  0.2360
 7899SOL    HW124939   3.499   3.461   4.333  0.6287  1.6018 -0.5906
 7899SOL    HW224940   3.580   3.509   4.452 -0.0637 -0.5909  0.8063
 7900SOL     OW24941   7.697   0.903   0.858  0.2473 -0.1058 -0.8875
 7900SOL    HW124942   7.756   0.975   0.880 -0.8181  0.5507 -0.1319
 7900SOL    HW224943   7.633   0.902   0.929 -0.6181 -0.8450 -1.6667
 7901SOL     OW24944   2.187   3.696   4.184  0.7566 -0.2169  0.5814
 7901SOL    HW124945   2.223   3.670   4.099  1.4910 -3.5233  1.8039
 7901SOL    HW224946   2.262   3.729   4.233  0.1920  2.4312 -0.2682
 7902SOL     OW24947   5.752   6.118   7.371  0.2438 -0.0296  0.3239
 7902SOL    HW124948   5.754   6.116   7.467 -0.8462  1.5988  0.3997
 7902SOL    HW224949   5.675   6.172   7.350  1.2009  0.6697 -1.4483
 7903SOL     OW24950   6.103   2.322   0.970  0.1912  0.6647 -0.0502
 7903SOL    HW124951   6.191   2.320   0.932  0.0474  0.9632 -0.3994
 7903SOL    HW224952   6.095   2.411   1.005 -0.4733  1.0660 -1.2020
 7904SOL     OW24953   3.798   7.057   7.974 -0.1616 -0.5214 -0.0024
 7904SOL    HW124954   3.857   7.132   7.970  1.0336 -1.4847 -1.1298
 7904SOL    HW224955   3.725   7.079   7.916 -1.1660  0.8597  1.7381
 7905SOL     OW24956   4.455   6.654   5.741  0.4127  0.4050  0.0154
 7905SOL    HW124957   4.439   6.561   5.753 -2.6300  0.7960 -0.3655
 7905SOL    HW224958   4.484   6.685   5.826  0.8197 -0.7653  0.3118
 7906SOL     OW24959   2.216   6.378   6.588 -0.0585 -0.0839  1.1673
 7906SOL    HW124960   2.206   6.422   6.672  0.4424  2.1622  0.0976
 7906SOL    HW224961   2.272   6.302   6.606 -0.6859 -0.1275  2.9980
 7907SOL     OW24962   2.459   8.168   3.986 -0.1734 -0.2516 -0.1862
 7907SOL    HW124963   2.513   8.222   4.044  0.1040 -2.2140  1.4501
 7907SOL    HW224964   2.454   8.218   3.904  2.4020  0.9190  0.3195
 7908SOL     OW24965   3.678   3.730   6.756  0.6058 -0.0618 -0.2926
 7908SOL    HW124966   3.708   3.792   6.689 -0.4735  0.6306 -0.1497
 7908SOL    HW224967   3.583   3.737   6.754  0.4765 -1.5935 -0.1424
 7909SOL     OW24968   6.974   6.190   3.220 -0.5077 -0.4195 -0.4465
 7909SOL    HW124969   6.986   6.153   3.308 -0.1914 -2.7276 -1.4096
 7909SOL    HW224970   6.915   6.128   3.176 -0.4118  0.5389 -1.9628
 7910SOL     OW24971   6.801   7.844   8.002 -0.6525  0.4406  0.0123
 7910SOL    HW124972   6.748   7.817   8.077 -0.6580 -1.7396 -0.7259
 7910SOL    HW224973   6.737   7.869   7.935 -0.7108  0.1411 -0.0476
 7911SOL     OW24974   1.073   5.038   5.554  0.3722 -0.0070 -0.0822
 7911SOL    HW124975   0.985   5.029   5.590 -0.3856 -0.6018 -2.0252
 7911SOL    HW224976   1.091   4.954   5.512  1.5670  0.3663 -0.3524
 7912SOL     OW24977   3.180   3.140   2.998  0.5319 -0.0002  0.1011
 7912SOL    HW124978   3.175   3.222   2.950 -0.7562  0.4256  0.9224
 7912SOL    HW224979   3.202   3.074   2.932 -2.9149  0.2881 -1.4146
 7913SOL     OW24980   1.880   2.925   1.866 -0.0327  0.4198 -0.9004
 7913SOL    HW124981   1.849   3.014   1.884  1.6165  0.4937  1.9622
 7913SOL    HW224982   1.969   2.937   1.833  0.3875 -0.1353 -0.0217
 7914SOL     OW24983   1.026   1.963   1.768  0.3132 -0.1269  0.5984
 7914SOL    HW124984   0.943   1.915   1.773  0.2096  0.1382  1.5030
 7914SOL    HW224985   1.090   1.907   1.812  0.5073 -0.1057  0.3435
 7915SOL     OW24986   5.961   1.071   4.098  0.2450 -0.0650 -0.4237
 7915SOL    HW124987   5.975   1.048   4.006 -0.8438 -0.5935 -0.4696
 7915SOL    HW224988   5.896   1.142   4.094  1.7845  1.3799 -0.1640
 7916SOL     OW24989   5.383   7.687   7.590  0.2116 -0.1616 -0.1500
 7916SOL    HW124990   5.365   7.779   7.608  0.8914 -0.0975  0.2361
 7916SOL    HW224991   5.398   7.648   7.676  0.3031 -0.5507 -0.3408
 7917SOL     OW24992   4.423   2.658   0.519 -0.4329 -0.2886 -0.1544
 7917SOL    HW124993   4.484   2.584   0.517  1.3567  1.0927  1.6865
 7917SOL    HW224994   4.426   2.694   0.430 -1.1769 -2.2838 -1.0108
 7918SOL     OW24995   4.032   6.927   3.682 -0.0966  0.0567  0.2624
 7918SOL    HW124996   3.972   6.998   3.660 -1.0196 -1.0392 -0.9189
 7918SOL    HW224997   4.071   6.902   3.598 -1.3005 -2.1365  0.3159
 7919SOL     OW24998   4.621   1.459   2.338 -0.6593  0.6761  0.0324
 7919SOL    HW124999   4.546   1.518   2.333 -0.3686  1.0721  0.2447
 7919SOL    HW225000   4.685   1.496   2.277 -1.0198 -0.2176 -0.8810
 7920SOL     OW25001   7.434   0.836   0.625  0.2213  0.2828 -0.1742
 7920SOL    HW125002   7.360   0.872   0.576 -0.1253  0.1127  0.2209
 7920SOL    HW225003   7.411   0.850   0.717  0.5679  0.0052 -0.0445
 7921SOL     OW25004   3.750   0.862   0.949  0.3520 -0.2341  0.3120
 7921SOL    HW125005   3.770   0.947   0.989  0.8238 -0.5340  0.7221
 7921SOL    HW225006   3.682   0.825   1.005  0.9667 -0.6256  0.8124
 7922SOL     OW25007   7.665   1.328   6.036 -0.2241 -0.3039 -0.4169
 7922SOL    HW125008   7.740   1.385   6.050  0.5434 -1.2859 -0.5359
 7922SOL    HW225009   7.630   1.355   5.952 -1.1767  1.4617  0.5036
 7923SOL     OW25010   1.358   2.539   6.088  0.0608  0.2195 -0.0247
 7923SOL    HW125011   1.381   2.612   6.031  1.0427  1.1276  1.4854
 7923SOL    HW225012   1.442   2.510   6.125 -0.8332  1.7533  3.4174
 7924SOL     OW25013   4.636   4.968   6.175 -0.4310  0.6071 -0.3428
 7924SOL    HW125014   4.725   5.001   6.187  0.5740 -2.0457 -0.1591
 7924SOL    HW225015   4.602   4.958   6.264 -0.5351  0.6328 -0.3797
 7925SOL     OW25016   2.679   8.132   2.526 -0.1635 -0.0784  0.0055
 7925SOL    HW125017   2.627   8.209   2.507  1.6765  1.3754  0.6911
 7925SOL    HW225018   2.699   8.095   2.440  0.4235  1.2393 -0.4450
 7926SOL     OW25019   1.386   7.556   1.861 -0.0494 -0.6549 -0.2763
 7926SOL    HW125020   1.471   7.561   1.816  0.1977 -2.1598 -0.0190
 7926SOL    HW225021   1.326   7.603   1.804  0.9725  0.5355 -0.4095
 7927SOL     OW25022   0.057   8.224   5.206 -0.3661  0.8759  0.3991
 7927SOL    HW125023   0.133   8.239   5.261  1.0948 -1.7057 -0.8448
 7927SOL    HW225024   0.060   8.294   5.141  1.7085  0.0539 -0.4234
 7928SOL     OW25025   7.005   0.036   7.729  0.2137  0.0428 -0.1124
 7928SOL    HW125026   7.063  -0.013   7.670  1.4900 -0.6031  1.6300
 7928SOL    HW225027   7.055   0.114   7.753 -0.0686  0.0230  0.5450
 7929SOL     OW25028   1.367   7.740   7.018 -0.0500  0.3987  0.0103
 7929SOL    HW125029   1.444   7.745   7.075 -1.0212  1.0602  1.2869
 7929SOL    HW225030   1.403   7.742   6.929  1.4092  0.5510  0.5880
 7930SOL     OW25031   1.737   7.557   0.520 -0.1317 -0.4522 -0.2497
 7930SOL    HW125032   1.657   7.510   0.496 -0.6665 -0.1409  0.8846
 7930SOL    HW225033   1.773   7.587   0.436 -1.0379 -0.8442 -0.7897
 7931SOL     OW25034   2.530   1.352   6.872  0.2438 -0.2781 -0.5832
 7931SOL    HW125035   2.441   1.348   6.837  0.1834  1.7236 -0.7609
 7931SOL    HW225036   2.586   1.327   6.799 -0.0824  0.4453 -1.0934
 7932SOL     OW25037   4.000   0.733   1.099 -0.1405  0.1983 -0.1921
 7932SOL    HW125038   4.043   0.648   1.101 -2.4382 -0.9552  0.7361
 7932SOL    HW225039   3.941   0.734   1.174 -0.3416  2.5092 -0.3167
 7933SOL     OW25040   6.113   4.854   3.677  0.1780 -0.0204 -0.2075
 7933SOL    HW125041   6.073   4.881   3.595 -0.1589 -0.2470 -0.1173
 7933SOL    HW225042   6.172   4.926   3.699 -1.3852  1.0749  0.4842
 7934SOL     OW25043   8.030   4.196   4.863 -0.6413 -0.2587 -0.0216
 7934SOL    HW125044   7.953   4.171   4.914 -0.3160  0.3482  0.7651
 7934SOL    HW225045   8.021   4.290   4.848 -0.0603 -0.1835  0.0613
 7935SOL     OW25046   0.764   2.691   5.821  0.1878  0.5649  0.1461
 7935SOL    HW125047   0.713   2.760   5.863 -0.1311  0.1601  0.4221
 7935SOL    HW225048   0.833   2.670   5.884 -1.7396 -1.7705  1.5577
 7936SOL     OW25049   6.170   4.170   7.722  0.4209 -0.7324 -0.0515
 7936SOL    HW125050   6.142   4.185   7.631  1.5009  1.2841 -0.0714
 7936SOL    HW225051   6.262   4.145   7.714  0.3089 -1.3000  0.4431
 7937SOL     OW25052   5.503   7.829   1.776 -0.2047  0.3334  0.9189
 7937SOL    HW125053   5.423   7.777   1.776 -0.9342  1.4442  1.0147
 7937SOL    HW225054   5.474   7.919   1.789  1.0393  0.7873  0.6750
 7938SOL     OW25055   0.964   1.801   6.225 -0.3002  0.2996  0.1131
 7938SOL    HW125056   0.970   1.822   6.318  0.3178  2.3722 -0.3875
 7938SOL    HW225057   0.930   1.880   6.184 -0.0897 -0.4226 -1.5036
 7939SOL     OW25058   3.699   3.477   0.845 -0.0917  0.4718  0.4465
 7939SOL    HW125059   3.678   3.480   0.752  1.0867  0.4082  0.1732
 7939SOL    HW225060   3.726   3.387   0.861 -0.0407  0.5468  0.7958
 7940SOL     OW25061   5.150   4.093   8.157  0.1337  0.3164  0.1100
 7940SOL    HW125062   5.098   4.142   8.093  1.0077  0.2163 -0.7008
 7940SOL    HW225063   5.198   4.160   8.206  0.5795  0.3239 -0.3328
 7941SOL     OW25064   4.494   1.700   3.473 -0.3609  0.0301  0.0375
 7941SOL    HW125065   4.508   1.769   3.408 -3.1236  0.7571  0.1394
 7941SOL    HW225066   4.515   1.742   3.557  1.1642 -0.2811 -0.1704
 7942SOL     OW25067   2.694   2.897   4.794 -0.1371  0.3803  0.2256
 7942SOL    HW125068   2.617   2.845   4.813 -0.5352  0.7150 -0.4243
 7942SOL    HW225069   2.660   2.974   4.747  0.6951  0.0075 -1.0133
 7943SOL     OW25070   5.432   3.812   1.353  0.4661 -0.3007 -0.2851
 7943SOL    HW125071   5.401   3.793   1.442 -1.5907 -1.0139 -1.1256
 7943SOL    HW225072   5.512   3.862   1.366  0.3950 -0.7200  1.9796
 7944SOL     OW25073   4.931   5.453   7.599 -0.6826 -0.1720 -0.0036
 7944SOL    HW125074   4.996   5.389   7.628 -1.7558 -0.6879  1.3184
 7944SOL    HW225075   4.952   5.533   7.648 -0.2324  0.0712 -0.5805
 7945SOL     OW25076   4.452   1.716   5.602 -0.4326 -0.1887 -0.2767
 7945SOL    HW125077   4.415   1.660   5.534  1.6168 -1.2483 -0.5670
 7945SOL    HW225078   4.458   1.660   5.679 -0.6956  0.3745  0.1604
 7946SOL     OW25079   4.957   0.285   6.519 -0.5870 -0.2116 -0.3976
 7946SOL    HW125080   4.865   0.275   6.544 -0.4875  1.4670  0.7521
 7946SOL    HW225081   4.958   0.270   6.424 -1.7476 -1.9718 -0.1545
 7947SOL     OW25082   4.492   7.023   5.995  0.0411 -0.7950  0.8761
 7947SOL    HW125083   4.553   7.083   6.037 -2.1723  0.4850  2.3951
 7947SOL    HW225084   4.539   6.940   5.989  1.3010 -0.3137  3.5992
 7948SOL     OW25085   7.703   5.605   7.431 -0.0496 -0.5920  0.1318
 7948SOL    HW125086   7.613   5.578   7.413 -0.7982  1.1568  1.0981
 7948SOL    HW225087   7.736   5.639   7.348 -1.8520  2.9839  0.7832
 7949SOL     OW25088   1.107   2.223   1.134 -0.2810 -0.1974  1.0404
 7949SOL    HW125089   1.061   2.201   1.215  0.3313 -3.8626  0.4865
 7949SOL    HW225090   1.047   2.198   1.064  0.4991 -0.1438  0.3365
 7950SOL     OW25091   1.564   6.583   7.514  0.3289  0.5984  0.7443
 7950SOL    HW125092   1.623   6.528   7.566  1.1239  1.0063  0.2914
 7950SOL    HW225093   1.542   6.656   7.572 -2.0617 -1.0105  1.9410
 7951SOL     OW25094   6.711   6.077   5.873  0.7977  0.0397  0.1117
 7951SOL    HW125095   6.737   6.154   5.924  0.1315  0.5266 -0.2655
 7951SOL    HW225096   6.777   6.070   5.804  1.5642 -0.4769  0.8983
 7952SOL     OW25097   5.594   7.697   7.088  0.1602 -0.0455 -0.2667
 7952SOL    HW125098   5.535   7.773   7.089  1.0039  0.6861 -2.7639
 7952SOL    HW225099   5.543   7.628   7.046  1.2480  0.7739 -3.0152
 7953SOL     OW25100   4.632   3.036   4.763  0.1790  0.0980 -0.0308
 7953SOL    HW125101   4.687   3.107   4.796 -3.1946  1.9847  1.8379
 7953SOL    HW225102   4.625   2.975   4.837 -0.1850 -0.1625 -0.2809
 7954SOL     OW25103   2.983   6.414   4.097  0.6490 -0.2071 -0.0069
 7954SOL    HW125104   3.044   6.374   4.159  1.4817 -1.2837 -1.4862
 7954SOL    HW225105   3.017   6.388   4.011 -4.0230 -4.1536 -0.8581
 7955SOL     OW25106   2.513   6.899   6.864 -0.5587  0.7510 -0.3282
 7955SOL    HW125107   2.597   6.927   6.827 -0.9821  4.1588  1.0953
 7955SOL    HW225108   2.536   6.830   6.926  1.0484  0.6637 -0.9980
 7956SOL     OW25109   5.092   0.136   0.352  0.3521 -0.0109 -0.1831
 7956SOL    HW125110   5.013   0.188   0.338 -0.1163 -0.7745 -0.3962
 7956SOL    HW225111   5.160   0.183   0.304 -0.2393 -0.0382 -1.0575
 7957SOL     OW25112   3.577   4.105   6.792 -0.4282  0.0641 -0.1055
 7957SOL    HW125113   3.566   4.198   6.813  0.3834  0.4962 -1.4846
 7957SOL    HW225114   3.653   4.077   6.844 -2.2560 -0.5336  2.3269
 7958SOL     OW25115   5.477   4.914   4.244 -0.4117 -0.1705  0.0255
 7958SOL    HW125116   5.529   4.933   4.323  1.5367 -0.2265 -1.2078
 7958SOL    HW225117   5.429   4.995   4.227 -0.1085  0.1624  0.7373
 7959SOL     OW25118   3.905   3.110   3.828  0.1449  0.2105  0.6899
 7959SOL    HW125119   3.823   3.123   3.780 -0.0251 -1.9817  0.3256
 7959SOL    HW225120   3.971   3.158   3.777 -0.5879  0.4829 -0.0118
 7960SOL     OW25121   3.605   7.427   6.523  0.2702 -0.3273  0.2303
 7960SOL    HW125122   3.538   7.453   6.586  0.7137 -0.3006  0.6864
 7960SOL    HW225123   3.673   7.494   6.531  1.0270 -1.1644  0.8000
 7961SOL     OW25124   6.072   2.776   7.157 -0.1975  0.1515 -0.2705
 7961SOL    HW125125   5.981   2.760   7.181 -0.9365  1.8108 -1.7975
 7961SOL    HW225126   6.123   2.726   7.220 -2.1935 -2.4430 -0.6346
 7962SOL     OW25127   2.426   1.542   4.778  0.2523 -0.1066  0.3237
 7962SOL    HW125128   2.370   1.521   4.704 -1.0012  1.7475  0.7238
 7962SOL    HW225129   2.507   1.494   4.760 -0.2304 -0.1434 -1.9557
 7963SOL     OW25130   5.007   6.805   4.546  0.3616 -0.2589 -0.0908
 7963SOL    HW125131   5.020   6.711   4.552  1.0160 -0.0794  1.3803
 7963SOL    HW225132   5.049   6.830   4.464  0.9039 -1.1220 -0.0747
 7964SOL     OW25133   1.062   3.500   1.412 -0.5348  0.1318  0.0715
 7964SOL    HW125134   1.155   3.515   1.427 -0.5579  1.9356 -1.4997
 7964SOL    HW225135   1.055   3.405   1.403  1.4390  0.1067 -1.5634
 7965SOL     OW25136   7.786   2.257   8.285 -0.5760 -0.2962 -0.0814
 7965SOL    HW125137   7.856   2.193   8.270  0.3353  0.6672 -0.0311
 7965SOL    HW225138   7.828   2.328   8.334 -1.5430  0.3793 -0.2048
 7966SOL     OW25139   6.109   2.225   7.490 -0.0829  0.6604  0.0136
 7966SOL    HW125140   6.169   2.156   7.518 -2.7696 -2.0074 -0.6964
 7966SOL    HW225141   6.141   2.251   7.404 -0.4802 -1.3868 -0.7550
 7967SOL     OW25142   8.192   3.380   7.655  0.5158 -0.3263 -0.0193
 7967SOL    HW125143   8.184   3.297   7.702 -0.9376  0.2893  0.8478
 7967SOL    HW225144   8.109   3.388   7.607  0.2661  1.0663  0.6407
 7968SOL     OW25145   4.329   0.441   4.230  0.6164  0.0506  0.4823
 7968SOL    HW125146   4.336   0.536   4.239  0.3785  0.0004  1.2419
 7968SOL    HW225147   4.376   0.406   4.306  0.4327 -0.4338  0.3750
 7969SOL     OW25148   3.824   4.202   8.189  0.4824  0.2691 -0.5564
 7969SOL    HW125149   3.783   4.285   8.214  0.3016 -0.1486  0.5696
 7969SOL    HW225150   3.768   4.135   8.229  1.8587 -0.3272  0.3948
 7970SOL     OW25151   4.697   6.333   6.099 -0.1953  0.0776  0.3109
 7970SOL    HW125152   4.617   6.282   6.111 -0.0384 -0.6418 -1.6005
 7970SOL    HW225153   4.739   6.331   6.185 -1.0852 -1.5031  0.7359
 7971SOL     OW25154   3.833   4.731   5.707  0.4210 -0.5314 -0.0788
 7971SOL    HW125155   3.871   4.757   5.791  0.4751 -2.2440  0.4638
 7971SOL    HW225156   3.904   4.688   5.660 -0.2374 -1.7414  0.0106
 7972SOL     OW25157   4.616   0.355   1.862 -0.1489  0.0855 -0.1884
 7972SOL    HW125158   4.563   0.368   1.783 -1.1571 -1.2502  0.2599
 7972SOL    HW225159   4.705   0.342   1.829 -0.0695  2.2637 -0.9507
 7973SOL     OW25160   3.122   8.225   6.524 -0.6262 -0.5297 -0.1564
 7973SOL    HW125161   3.054   8.290   6.542  1.2353  1.5523 -0.3835
 7973SOL    HW225162   3.137   8.233   6.429  1.1108  0.2671  0.1640
 7974SOL     OW25163   0.588   2.193   1.791  0.1287  0.3438  0.3320
 7974SOL    HW125164   0.600   2.107   1.750  0.8344  0.1493  0.9383
 7974SOL    HW225165   0.618   2.255   1.725  1.9372 -0.0064  0.8064
 7975SOL     OW25166   0.474   2.971   6.452 -0.6922 -0.5735  0.5463
 7975SOL    HW125167   0.544   2.925   6.498  1.6711 -0.4135 -2.7024
 7975SOL    HW225168   0.484   3.062   6.478 -2.6790 -1.1796  3.6667
 7976SOL     OW25169   3.296   1.225   5.320  0.3893 -0.0442 -0.4764
 7976SOL    HW125170   3.353   1.241   5.394  1.8551 -1.0244 -1.3735
 7976SOL    HW225171   3.312   1.299   5.261 -1.3639  1.1593  0.5016
 7977SOL     OW25172   1.330   3.407   1.610 -0.6271  0.1877 -0.9235
 7977SOL    HW125173   1.370   3.326   1.578 -1.6828 -0.4453 -0.6591
 7977SOL    HW225174   1.307   3.389   1.701  0.8739  1.4376 -0.2847
 7978SOL     OW25175   3.913   4.998   0.586  0.6171  0.1918  0.3059
 7978SOL    HW125176   3.895   5.074   0.642  0.3144 -0.4183  1.0477
 7978SOL    HW225177   3.972   4.944   0.638 -2.3483 -2.0360  1.4942
 7979SOL     OW25178   6.529   5.295   5.670  0.4938  0.5076 -0.4303
 7979SOL    HW125179   6.434   5.301   5.683  0.1275 -0.9158 -2.1624
 7979SOL    HW225180   6.542   5.209   5.630  2.6790  0.0710  1.1108
 7980SOL     OW25181   1.634   1.885   7.351  0.2437 -0.5123 -0.7598
 7980SOL    HW125182   1.607   1.950   7.416  0.2584 -0.9974 -0.2613
 7980SOL    HW225183   1.564   1.887   7.286  0.2981  0.0821 -0.8073
 7981SOL     OW25184   0.220   0.207   3.801 -0.4237 -0.1952  0.5322
 7981SOL    HW125185   0.210   0.239   3.890 -0.9150  2.7518 -0.5197
 7981SOL    HW225186   0.177   0.122   3.801 -2.2508  0.6798  2.5937
 7982SOL     OW25187   8.221   6.411   3.196 -0.1668 -0.2880  0.0842
 7982SOL    HW125188   8.208   6.362   3.115  2.4832 -0.2674 -0.3994
 7982SOL    HW225189   8.248   6.345   3.260 -0.4831 -0.0402  0.4754
 7983SOL     OW25190   1.627   3.836   1.709  0.0682 -0.4073  0.3145
 7983SOL    HW125191   1.673   3.832   1.792 -1.3041  0.5175  1.1558
 7983SOL    HW225192   1.537   3.812   1.731 -0.5907  1.1327 -0.6539
 7984SOL     OW25193   0.383   1.480   0.809 -0.3759 -0.0794 -0.6163
 7984SOL    HW125194   0.292   1.463   0.831 -0.5272 -0.5404 -1.5773
 7984SOL    HW225195   0.386   1.574   0.789 -0.2789  0.2989  1.1179
 7985SOL     OW25196   4.535   6.584   1.239  0.2913  0.1324  0.2135
 7985SOL    HW125197   4.501   6.508   1.191  0.5339  0.2469 -0.1361
 7985SOL    HW225198   4.630   6.578   1.229  0.4828 -0.9219  2.2750
 7986SOL     OW25199   2.522   0.874   1.156 -0.4472  0.6091 -0.1973
 7986SOL    HW125200   2.602   0.822   1.154 -0.3088  0.8705 -3.0249
 7986SOL    HW225201   2.460   0.821   1.206  0.6806 -0.7754 -0.2472
 7987SOL     OW25202   1.334   3.649   5.168  0.7256 -0.4679  0.2158
 7987SOL    HW125203   1.302   3.692   5.247 -0.3559 -1.0131  0.0722
 7987SOL    HW225204   1.396   3.712   5.131  0.1395  0.4116  0.7152
 7988SOL     OW25205   0.394   7.500   5.680  0.1092  0.6073 -0.5740
 7988SOL    HW125206   0.431   7.588   5.690 -0.9171  1.0744 -0.8885
 7988SOL    HW225207   0.434   7.450   5.752 -0.4836  1.7225  0.5530
 7989SOL     OW25208   1.049   5.215   7.726 -0.1117 -0.4348 -0.1671
 7989SOL    HW125209   1.016   5.143   7.672 -1.8684 -0.1018  0.4226
 7989SOL    HW225210   0.987   5.287   7.710  0.4670  0.2841  0.7958
 7990SOL     OW25211   1.811   0.368   1.307  0.2544 -0.3550 -0.0594
 7990SOL    HW125212   1.719   0.369   1.283  0.7944  3.0946 -2.1932
 7990SOL    HW225213   1.858   0.361   1.224  1.9581  0.6272  0.7961
 7991SOL     OW25214   6.656   6.160   3.475 -0.8148  0.3021  0.2918
 7991SOL    HW125215   6.702   6.232   3.432 -1.3446 -0.8013 -2.2005
 7991SOL    HW225216   6.567   6.194   3.488 -0.3713  1.0175  1.4948
 7992SOL     OW25217   7.776   1.593   4.352  0.0644 -0.1786  0.5410
 7992SOL    HW125218   7.825   1.623   4.275  0.0078 -2.1492 -0.2812
 7992SOL    HW225219   7.842   1.552   4.408 -0.2579 -0.6794  0.5508
 7993SOL     OW25220   1.013   0.796   8.004  0.7899  0.8887  0.6209
 7993SOL    HW125221   1.017   0.701   8.011  1.4592  0.9154  0.6715
 7993SOL    HW225222   0.932   0.821   8.048 -1.1016  0.0698 -2.2922
 7994SOL     OW25223   3.926   5.930   1.519  0.2789  0.5673 -0.0926
 7994SOL    HW125224   3.950   5.885   1.600  0.3497  1.2375  0.2695
 7994SOL    HW225225   3.952   6.021   1.534 -1.0202  0.9885 -0.3063
 7995SOL     OW25226   3.795   5.273   2.942 -0.1128  0.1243  0.1318
 7995SOL    HW125227   3.886   5.244   2.946 -0.1279  0.0153 -0.2267
 7995SOL    HW225228   3.744   5.194   2.960 -0.1258  0.4029  1.3654
 7996SOL     OW25229   3.857   7.575   3.843 -0.1383  0.0111  0.6766
 7996SOL    HW125230   3.917   7.616   3.905  1.0514 -0.2661 -0.2672
 7996SOL    HW225231   3.795   7.527   3.898  1.6958 -1.3345  1.6082
 7997SOL     OW25232   0.945   6.456   0.075 -0.5387  0.1454 -0.7388
 7997SOL    HW125233   0.852   6.433   0.073 -1.0643  2.0803  0.1735
 7997SOL    HW225234   0.971   6.459  -0.017 -1.3974 -0.3356 -1.0029
 7998SOL     OW25235   0.834   0.900   2.321 -0.1071 -0.3973  0.4403
 7998SOL    HW125236   0.834   0.919   2.415  1.1157  1.0737  0.1715
 7998SOL    HW225237   0.742   0.889   2.299 -0.6643  2.1854  1.2854
 7999SOL     OW25238   8.014   5.507   5.214  0.0351 -0.0947  0.2529
 7999SOL    HW125239   7.920   5.520   5.202 -0.1693 -2.1125 -0.6097
 7999SOL    HW225240   8.026   5.412   5.204  2.2263  0.1944 -0.0659
 8000SOL     OW25241   6.111   2.636   7.959  0.1906  0.1464 -0.0858
 8000SOL    HW125242   6.083   2.709   7.904  0.4823  0.6708  0.4586
 8000SOL    HW225243   6.046   2.567   7.942 -0.4767  0.7703 -0.0758
 8001SOL     OW25244   2.043   0.688   1.627  0.2819 -0.1553  0.6022
 8001SOL    HW125245   2.115   0.647   1.674 -0.7630 -1.3630  1.1630
 8001SOL    HW225246   2.023   0.628   1.556  1.3457  1.2941 -0.9546
 8002SOL     OW25247   7.590   2.761   2.523  0.1075 -0.1325 -0.0236
 8002SOL    HW125248   7.604   2.801   2.437 -0.1557  0.5248  0.2351
 8002SOL    HW225249   7.539   2.682   2.504  2.0666 -1.2660 -0.7078
 8003SOL     OW25250   3.210   4.006   4.984  0.3046  0.3615  0.5907
 8003SOL    HW125251   3.142   3.998   5.050  0.0949 -0.3254  0.3031
 8003SOL    HW225252   3.201   4.094   4.949 -0.1819  0.4056  0.8323
 8004SOL     OW25253   0.287   0.898   7.533 -0.3573 -0.3480  0.2067
 8004SOL    HW125254   0.360   0.876   7.475  1.1850  1.5166  1.3543
 8004SOL    HW225255   0.329   0.939   7.609 -2.6526  1.1383  0.7112
 8005SOL     OW25256   5.971   2.285   5.380 -0.2954 -0.4157 -0.4605
 8005SOL    HW125257   6.004   2.210   5.428 -2.2538 -1.2962 -0.4337
 8005SOL    HW225258   5.962   2.354   5.446  2.7005  0.2947 -0.7181
 8006SOL     OW25259   1.012   6.401   2.266  0.0968  0.1331 -0.0956
 8006SOL    HW125260   1.043   6.460   2.197  0.9800  0.2327  0.3724
 8006SOL    HW225261   1.047   6.439   2.347 -1.8837  0.6542  0.5333
 8007SOL     OW25262   5.974   6.519   6.272  0.1160 -0.2871 -0.2687
 8007SOL    HW125263   5.953   6.487   6.184 -1.6371 -0.5127  0.2192
 8007SOL    HW225264   5.906   6.483   6.328 -0.4881  2.2360  0.7019
 8008SOL     OW25265   7.356   5.993   6.184  0.4322 -0.0141 -0.1980
 8008SOL    HW125266   7.334   5.930   6.252  0.2312 -1.6161 -1.6902
 8008SOL    HW225267   7.292   6.064   6.193 -0.6598 -1.0436  0.1966
 8009SOL     OW25268   3.446   2.268   6.346  0.8068  0.2419 -0.0126
 8009SOL    HW125269   3.412   2.307   6.265  0.3405  0.6657  0.3850
 8009SOL    HW225270   3.522   2.218   6.318  0.0051 -0.5113 -0.8737
 8010SOL     OW25271   5.896   6.049   1.449 -0.3263  0.1294 -0.6761
 8010SOL    HW125272   5.927   5.969   1.491  1.3193  0.7842 -0.6015
 8010SOL    HW225273   5.856   6.020   1.368  0.6164 -0.7450 -0.8366
 8011SOL     OW25274   4.101   2.649   2.137 -0.5353  0.0388 -0.0115
 8011SOL    HW125275   4.157   2.590   2.086 -1.0687 -1.1007  0.6866
 8011SOL    HW225276   4.162   2.703   2.187 -0.0349 -0.0218 -0.5563
 8012SOL     OW25277   1.109   3.903   0.453 -0.3589 -0.6819  0.1920
 8012SOL    HW125278   1.028   3.924   0.408  0.3214 -0.1107 -0.7806
 8012SOL    HW225279   1.100   3.810   0.476 -2.0498 -0.1563  1.7445
 8013SOL     OW25280   3.136   1.610   2.602 -0.2311  0.3913 -0.0062
 8013SOL    HW125281   3.056   1.567   2.570 -0.4519  0.3518  0.5849
 8013SOL    HW225282   3.119   1.703   2.593 -0.7366  0.4106  1.0216
 8014SOL     OW25283   5.938   1.692   0.652  0.1227  0.3108  0.5322
 8014SOL    HW125284   5.911   1.679   0.561  0.1184  0.0158  0.5755
 8014SOL    HW225285   5.862   1.665   0.703  0.4119 -0.2815  0.6470
 8015SOL     OW25286   6.461   6.373   3.404  0.2954  0.5276 -0.3036
 8015SOL    HW125287   6.366   6.364   3.401  0.1564  1.5936  0.8078
 8015SOL    HW225288   6.487   6.378   3.312 -0.3398 -3.2234 -0.7935
 8016SOL     OW25289   5.901   1.593   2.941 -0.0927  0.2421  0.6293
 8016SOL    HW125290   5.958   1.642   3.000  0.2470 -0.7129  1.1006
 8016SOL    HW225291   5.914   1.634   2.855  1.3972 -0.0614  0.7114
 8017SOL     OW25292   7.971   0.304   5.910 -0.5340 -0.0358 -0.1106
 8017SOL    HW125293   7.950   0.320   5.819  1.5691 -3.7039 -1.3530
 8017SOL    HW225294   7.896   0.254   5.944 -1.1165  0.9497  0.0660
 8018SOL     OW25295   1.594   0.212   7.367  0.2135  0.1128  0.7162
 8018SOL    HW125296   1.634   0.288   7.325 -1.9276 -0.0181 -1.7249
 8018SOL    HW225297   1.624   0.137   7.315  0.2495 -0.4382  1.5176
 8019SOL     OW25298   5.422   5.728   3.940 -0.2921  0.0213  0.2976
 8019SOL    HW125299   5.457   5.646   3.904 -0.1667  0.0533  0.3478
 8019SOL    HW225300   5.467   5.738   4.024 -0.0060  0.3520  0.1085
 8020SOL     OW25301   6.287   6.134   0.450 -0.0459 -1.0923 -0.4990
 8020SOL    HW125302   6.321   6.055   0.493  0.7498 -0.6993 -0.3851
 8020SOL    HW225303   6.249   6.102   0.368 -0.5448 -1.7029 -0.0305
 8021SOL     OW25304   7.130   6.054   4.345  0.1922 -0.4461  0.3937
 8021SOL    HW125305   7.201   5.998   4.378  1.6352  0.8070 -0.4987
 8021SOL    HW225306   7.052   6.025   4.392  1.2685 -1.9689  1.2782
 8022SOL     OW25307   2.035   2.023   0.707  0.5484 -0.0511 -0.3045
 8022SOL    HW125308   2.123   2.013   0.744  1.0823 -0.9952 -1.7643
 8022SOL    HW225309   2.024   1.945   0.652 -1.5055 -0.3322  0.4559
 8023SOL     OW25310   4.330   4.566   3.183  0.4738  0.3435  0.1811
 8023SOL    HW125311   4.324   4.544   3.090  2.2734  2.7594 -0.5856
 8023SOL    HW225312   4.408   4.520   3.214 -0.7601 -1.3595  0.7935
 8024SOL     OW25313   5.783   3.754   7.099  0.1225  0.4136  0.7826
 8024SOL    HW125314   5.723   3.806   7.045 -0.7354 -0.4367  0.9104
 8024SOL    HW225315   5.837   3.707   7.036 -1.4338 -1.2257  0.6337
 8025SOL     OW25316   6.074   5.827   7.316 -0.8803 -0.3726  0.0243
 8025SOL    HW125317   6.091   5.920   7.305  2.4798 -1.0243 -0.7914
 8025SOL    HW225318   6.032   5.800   7.235 -2.3820  0.5088  0.4879
 8026SOL     OW25319   6.717   1.394   4.251  0.2852  1.0094  0.2890
 8026SOL    HW125320   6.745   1.346   4.173  3.2559  1.6318  0.8954
 8026SOL    HW225321   6.701   1.483   4.220 -0.4616  0.7792  0.0253
 8027SOL     OW25322   3.533   3.972   2.557 -0.0711 -0.0956  0.6401
 8027SOL    HW125323   3.617   3.965   2.512  0.3446 -2.5010  1.7116
 8027SOL    HW225324   3.548   4.032   2.630  0.6789 -0.4032  0.7374
 8028SOL     OW25325   3.829   7.488   8.047 -0.0763 -0.1276 -0.2001
 8028SOL    HW125326   3.814   7.564   7.990  1.6305  0.5042  0.1602
 8028SOL    HW225327   3.880   7.523   8.120 -1.5299 -1.0952  1.3113
 8029SOL     OW25328   1.923   0.745   2.221 -0.3439  0.3611 -0.4113
 8029SOL    HW125329   2.009   0.774   2.253 -1.2855  0.8453  1.7540
 8029SOL    HW225330   1.942   0.702   2.138  2.3186 -1.5557  1.0912
 8030SOL     OW25331   1.660   6.401   6.555 -0.2161 -0.3148  0.0696
 8030SOL    HW125332   1.623   6.448   6.481  2.0002 -0.8478 -1.4252
 8030SOL    HW225333   1.755   6.402   6.539  0.2519 -0.8730  2.6305
 8031SOL     OW25334   4.455   1.722   6.932 -0.3126  0.7444 -0.0170
 8031SOL    HW125335   4.518   1.691   6.996 -0.8463  1.5516  0.9036
 8031SOL    HW225336   4.444   1.815   6.951 -1.4569  0.7087 -0.4313
 8032SOL     OW25337   1.562   7.382   5.321  0.4280 -0.3407 -0.4510
 8032SOL    HW125338   1.637   7.374   5.380 -1.5138  0.6896  2.2936
 8032SOL    HW225339   1.544   7.476   5.319 -1.5731 -0.6916 -0.0024
 8033SOL     OW25340   6.129   2.097   5.189  0.2229 -0.1684  0.0208
 8033SOL    HW125341   6.160   2.187   5.178  0.1257 -0.1887 -0.4042
 8033SOL    HW225342   6.112   2.089   5.283  0.7890  0.0774  0.1473
 8034SOL     OW25343   7.399   8.019   4.619  0.0393  0.7331 -0.4421
 8034SOL    HW125344   7.461   8.087   4.596 -0.9395  1.4109 -1.1127
 8034SOL    HW225345   7.453   7.942   4.639  1.0510  1.0701 -1.8231
 8035SOL     OW25346   6.419   3.430   1.042  0.2252  0.1928  0.0970
 8035SOL    HW125347   6.504   3.473   1.056  0.7338 -1.1010  1.1790
 8035SOL    HW225348   6.439   3.337   1.045 -1.5644 -0.1620  2.7076
 8036SOL     OW25349   0.679   0.475   1.711  0.2650 -0.4591 -0.4544
 8036SOL    HW125350   0.601   0.491   1.763  0.1024  0.4298 -0.9592
 8036SOL    HW225351   0.750   0.518   1.759  0.6921 -2.3521  0.6686
 8037SOL     OW25352   8.238   1.478   4.917 -0.4563  0.0742  0.1757
 8037SOL    HW125353   8.333   1.489   4.912 -0.6064  1.0220 -0.5023
 8037SOL    HW225354   8.215   1.510   5.005 -0.3104  1.0061 -0.1217
 8038SOL     OW25355   5.763   0.186   3.477  0.4676 -0.1968 -0.0035
 8038SOL    HW125356   5.720   0.141   3.550 -0.0522 -0.3653 -0.4068
 8038SOL    HW225357   5.787   0.272   3.511 -0.6336  0.0817  0.0837
 8039SOL     OW25358   2.082   2.615   6.002 -0.4520  0.1202 -0.3720
 8039SOL    HW125359   2.165   2.645   5.964 -1.1029  1.2063 -0.9529
 8039SOL    HW225360   2.090   2.519   6.003  0.4312  0.1739 -1.2878
 8040SOL     OW25361   0.045   1.613   6.850  0.2969  0.6119 -0.6014
 8040SOL    HW125362   0.103   1.657   6.788  2.9725  0.2064  1.5120
 8040SOL    HW225363   0.073   1.522   6.848 -1.0863  0.1731 -0.4236
 8041SOL     OW25364   3.293   2.196   0.136 -0.2145 -0.4761  0.0905
 8041SOL    HW125365   3.290   2.288   0.111  0.8507 -0.1518  1.0935
 8041SOL    HW225366   3.260   2.195   0.227  0.8742 -0.9167  0.4872
 8042SOL     OW25367   7.915   3.149   1.131  0.3926 -0.6242 -0.1306
 8042SOL    HW125368   7.898   3.173   1.040  0.0186  0.2330  0.1526
 8042SOL    HW225369   8.010   3.158   1.142  0.4314 -0.6935 -0.4295
 8043SOL     OW25370   1.881   3.884   6.073 -0.3686 -0.6721  0.3665
 8043SOL    HW125371   1.878   3.916   5.983  1.6653  0.5204  0.6838
 8043SOL    HW225372   1.790   3.873   6.098 -1.0417  1.7505 -0.8658
 8044SOL     OW25373   6.588   7.478   6.950  0.4869 -0.0318 -0.0951
 8044SOL    HW125374   6.600   7.535   7.027 -1.4957 -0.2039  0.3846
 8044SOL    HW225375   6.551   7.397   6.986 -0.9333  0.0721 -1.2635
 8045SOL     OW25376   3.609   5.335   0.583 -0.4353 -0.0679 -0.4794
 8045SOL    HW125377   3.521   5.308   0.556  0.3562 -0.7580 -2.4595
 8045SOL    HW225378   3.657   5.347   0.501  2.3590 -3.2315  0.5393
 8046SOL     OW25379   2.048   2.444   4.354 -0.0080  0.9365 -0.2226
 8046SOL    HW125380   2.043   2.539   4.340  3.1972  1.1317 -0.5330
 8046SOL    HW225381   2.038   2.407   4.266  0.7025  1.1301 -0.3946
 8047SOL     OW25382   1.503   6.081   2.323  0.2242  0.2112 -0.2742
 8047SOL    HW125383   1.475   6.137   2.395  1.0711  0.6663 -0.2901
 8047SOL    HW225384   1.500   6.137   2.246  0.1503 -0.0380 -0.4545
 8048SOL     OW25385   5.988   6.825   7.256 -1.1348 -0.1637  0.2741
 8048SOL    HW125386   6.074   6.785   7.242 -1.0487  0.2905 -0.5533
 8048SOL    HW225387   5.940   6.808   7.174 -1.6656  0.0014  0.5470
 8049SOL     OW25388   2.451   3.657   7.893  0.2314  0.2673 -0.0869
 8049SOL    HW125389   2.418   3.612   7.972 -1.7908  1.1033 -0.4188
 8049SOL    HW225390   2.535   3.693   7.920  0.3270 -0.8547  1.2084
 8050SOL     OW25391   6.581   5.651   4.015  0.8343  0.2883  0.0870
 8050SOL    HW125392   6.509   5.676   4.072  1.9247 -0.5463  1.8798
 8050SOL    HW225393   6.591   5.724   3.954 -2.2571 -0.0835 -0.9469
 8051SOL     OW25394   0.214   0.333   2.856  0.0210 -0.5270 -0.3282
 8051SOL    HW125395   0.274   0.258   2.848 -0.2035 -0.8268  0.7642
 8051SOL    HW225396   0.270   0.406   2.881  0.0714 -0.5919 -0.2497
 8052SOL     OW25397   5.882   4.728   6.488 -0.1073 -0.4583  0.4274
 8052SOL    HW125398   5.817   4.666   6.521  1.4530 -2.5656 -0.3950
 8052SOL    HW225399   5.831   4.807   6.469 -2.2579 -1.7183  0.7488
 8053SOL     OW25400   5.874   6.358   2.223  0.3260 -0.1431  0.3371
 8053SOL    HW125401   5.833   6.371   2.138  2.4523  0.2621 -0.6710
 8053SOL    HW225402   5.855   6.439   2.271 -0.5168 -0.1917  0.0943
 8054SOL     OW25403   0.769   0.771   8.148  0.2789  0.6517  0.0583
 8054SOL    HW125404   0.758   0.714   8.224  1.7022 -0.8024 -0.7780
 8054SOL    HW225405   0.696   0.749   8.090 -0.5563  1.4415  0.8190
 8055SOL     OW25406   1.254   5.300   5.955  0.0329  0.1089 -0.1952
 8055SOL    HW125407   1.184   5.359   5.926 -1.6416 -1.8278 -0.2069
 8055SOL    HW225408   1.271   5.244   5.880  0.9268 -0.0661  0.1316
 8056SOL     OW25409   5.288   1.422   6.769  0.6206 -0.1071 -0.1978
 8056SOL    HW125410   5.225   1.366   6.815 -0.3164  0.9981 -0.1049
 8056SOL    HW225411   5.328   1.474   6.839 -1.4076  2.1739 -0.6820
 8057SOL     OW25412   5.429   2.634   3.954  0.2869 -0.7411  0.5520
 8057SOL    HW125413   5.428   2.719   3.998  1.8918  1.0958 -2.7577
 8057SOL    HW225414   5.522   2.614   3.943 -0.0212 -0.2481 -3.5158
 8058SOL     OW25415   1.048   4.276   4.074 -0.3305  0.0368 -0.1106
 8058SOL    HW125416   1.096   4.203   4.111  0.0081 -0.8691 -2.2563
 8058SOL    HW225417   1.115   4.342   4.055 -0.2939 -0.1158 -0.5198
 8059SOL     OW25418   2.035   5.031   3.103 -0.2402  0.0170  0.0785
 8059SOL    HW125419   2.021   4.937   3.088 -0.5624  0.0955 -0.1065
 8059SOL    HW225420   2.034   5.040   3.198 -1.9361  0.0965  0.0674
 8060SOL     OW25421   3.070   2.833   8.165  0.1721 -0.5026  0.1051
 8060SOL    HW125422   3.131   2.902   8.138  1.3400 -1.5978 -0.1025
 8060SOL    HW225423   2.992   2.848   8.112  0.3148  0.7939  0.2251
 8061SOL     OW25424   7.103   7.936   0.379  0.0038 -0.3201 -0.5222
 8061SOL    HW125425   7.082   7.862   0.435 -1.5374  1.6438  1.6026
 8061SOL    HW225426   7.194   7.956   0.399 -0.3873  0.0544  0.9854
 8062SOL     OW25427   2.080   3.067   5.830  0.0701  0.5708  0.8040
 8062SOL    HW125428   2.128   3.012   5.892 -0.6039 -0.3257  0.5422
 8062SOL    HW225429   2.110   3.156   5.848  2.0717 -0.0174  0.4128
 8063SOL     OW25430   6.419   8.263   1.216  0.5740 -0.4362  0.3071
 8063SOL    HW125431   6.390   8.218   1.136  0.8493  2.1385 -1.2948
 8063SOL    HW225432   6.510   8.286   1.199  0.4811  0.5771  1.1600
 8064SOL     OW25433   1.605   2.265   3.891 -0.3679  0.1674 -0.0954
 8064SOL    HW125434   1.653   2.342   3.921 -0.8615  0.5396 -0.2672
 8064SOL    HW225435   1.534   2.255   3.954  0.1101 -0.5651  0.3330
 8065SOL     OW25436   1.771   0.634   3.391 -0.0570  0.6487 -0.4946
 8065SOL    HW125437   1.678   0.615   3.405  0.3974 -0.0300  1.7783
 8065SOL    HW225438   1.795   0.580   3.315 -1.3840  0.4609 -0.8031
 8066SOL     OW25439   8.163   0.221   5.704  0.6655 -0.3249  0.4950
 8066SOL    HW125440   8.146   0.307   5.741 -0.1181 -0.1795 -0.2197
 8066SOL    HW225441   8.077   0.187   5.678  1.2054 -0.4258 -1.2094
 8067SOL     OW25442   2.630   6.107   3.414  0.0860 -0.5684  0.1461
 8067SOL    HW125443   2.587   6.159   3.481  0.7198  0.1502 -0.0040
 8067SOL    HW225444   2.571   6.033   3.399 -0.0438 -0.7399  1.5016
 8068SOL     OW25445   7.049   4.516   1.123 -0.3793 -0.2493  0.0297
 8068SOL    HW125446   7.142   4.500   1.139 -0.7635 -0.9730  1.6484
 8068SOL    HW225447   7.024   4.448   1.060  0.0420 -0.4581  0.0821
 8069SOL     OW25448   6.425   2.665   4.931  0.4431 -0.4318  0.0900
 8069SOL    HW125449   6.501   2.709   4.969  0.3083 -0.8449  0.8329
 8069SOL    HW225450   6.401   2.721   4.857  1.7400 -0.5332 -0.4293
 8070SOL     OW25451   5.579   1.776   0.301  0.5621  0.0835  0.4652
 8070SOL    HW125452   5.608   1.848   0.357 -0.6114  0.5272  0.4961
 8070SOL    HW225453   5.573   1.814   0.214 -2.6176  0.7322  0.9140
 8071SOL     OW25454   7.529   5.145   1.407  0.9566 -0.2419  0.4712
 8071SOL    HW125455   7.532   5.218   1.345  0.2436  0.1680  0.9056
 8071SOL    HW225456   7.618   5.110   1.408  0.9786 -0.2155 -0.7353
 8072SOL     OW25457   2.899   6.154   3.392 -0.0477 -0.0625 -0.1063
 8072SOL    HW125458   2.816   6.132   3.433 -0.1963 -1.9874 -1.3866
 8072SOL    HW225459   2.966   6.114   3.447 -0.2034 -1.9494 -1.2590
 8073SOL     OW25460   4.889   2.592   2.923  0.2681 -0.3073  0.2096
 8073SOL    HW125461   4.954   2.630   2.865 -2.3497  0.5810 -2.2161
 8073SOL    HW225462   4.875   2.503   2.889  0.3275 -0.5596  0.8304
 8074SOL     OW25463   7.065   6.621   8.140  0.3370 -0.1090  0.3390
 8074SOL    HW125464   7.039   6.711   8.119  1.1018  0.0833  0.1972
 8074SOL    HW225465   6.994   6.567   8.106  0.3650  0.3731 -0.5025
 8075SOL     OW25466   5.199   2.779   3.927  0.0779 -0.1641  0.4756
 8075SOL    HW125467   5.191   2.754   4.019  0.6697  0.4833  0.7085
 8075SOL    HW225468   5.275   2.730   3.896 -0.6537 -1.0635  0.0924
 8076SOL     OW25469   0.877   4.664   5.496 -0.1718  0.1728  0.0798
 8076SOL    HW125470   0.871   4.656   5.400  0.6505 -1.6366  0.1534
 8076SOL    HW225471   0.943   4.732   5.510 -0.0239  0.1840 -0.6402
 8077SOL     OW25472   7.060   4.236   3.367  0.0666  0.3767  0.3570
 8077SOL    HW125473   7.059   4.294   3.291 -4.1700  1.9429  1.4803
 8077SOL    HW225474   7.089   4.291   3.439  0.5072 -0.1485  0.5842
 8078SOL     OW25475   6.723   7.490   0.351 -0.6980 -0.3593  0.0073
 8078SOL    HW125476   6.706   7.411   0.299 -1.4252 -0.9565  1.1194
 8078SOL    HW225477   6.643   7.502   0.402 -0.8170  1.4327 -0.5668
 8079SOL     OW25478   1.517   3.532   3.436 -0.4573 -0.2493 -0.5837
 8079SOL    HW125479   1.484   3.465   3.375  0.4830  0.0895 -1.4818
 8079SOL    HW225480   1.548   3.603   3.379 -1.4897  0.9860  0.3554
 8080SOL     OW25481   7.802   0.863   5.702 -0.2191  0.5557 -0.0413
 8080SOL    HW125482   7.795   0.957   5.719  0.5748  0.5452  0.3716
 8080SOL    HW225483   7.894   0.843   5.719 -0.2143 -0.1493 -0.8738
 8081SOL     OW25484   5.197   5.747   6.743 -0.1060  0.1647  0.0595
 8081SOL    HW125485   5.251   5.825   6.741 -1.0274  0.7992 -0.4480
 8081SOL    HW225486   5.158   5.742   6.655 -0.9905 -0.1807  0.4616
 8082SOL     OW25487   6.958   5.939   3.738  0.2740 -0.3848 -0.4191
 8082SOL    HW125488   6.949   5.959   3.831 -1.0557 -0.5073 -0.5024
 8082SOL    HW225489   6.876   5.894   3.716  0.1805  0.4658 -1.8579
 8083SOL     OW25490   1.511   3.851   4.131  0.1227  0.4128 -0.5672
 8083SOL    HW125491   1.503   3.938   4.092 -2.0516  1.2171  1.5901
 8083SOL    HW225492   1.437   3.802   4.096 -1.0448  0.7179  1.4503
 8084SOL     OW25493   0.226   1.649   3.912 -0.2128 -0.1461  0.3137
 8084SOL    HW125494   0.275   1.668   3.832 -1.0959 -0.2595 -0.2671
 8084SOL    HW225495   0.288   1.603   3.968  0.5584  0.3681 -0.1164
 8085SOL     OW25496   6.107   4.178   4.268  0.1258  0.6372  0.3937
 8085SOL    HW125497   6.181   4.207   4.215 -0.4635  0.8669 -0.2941
 8085SOL    HW225498   6.144   4.108   4.323  0.2437 -0.9943 -1.7315
 8086SOL     OW25499   2.350   3.578   0.104  0.0080 -0.6781  0.4193
 8086SOL    HW125500   2.427   3.596   0.051 -0.8121  2.1187  0.0840
 8086SOL    HW225501   2.384   3.535   0.182  2.2646  2.6111  1.3565
 8087SOL     OW25502   0.330   5.091   4.429 -0.6001 -0.3819  0.1734
 8087SOL    HW125503   0.425   5.098   4.440 -0.5008 -1.7112  0.2213
 8087SOL    HW225504   0.305   5.018   4.485 -1.5253 -0.6345 -0.5689
 8088SOL     OW25505   3.416   5.741   6.995 -0.3375  1.1055  0.5850
 8088SOL    HW125506   3.355   5.792   6.941  0.6771  1.0666 -0.6147
 8088SOL    HW225507   3.416   5.654   6.955  0.1484  0.9764  0.8688
 8089SOL     OW25508   6.919   0.937   1.538  0.0409  0.1541  0.4003
 8089SOL    HW125509   6.936   0.954   1.446  0.1438 -1.6399  0.0659
 8089SOL    HW225510   6.976   0.997   1.585  1.9364 -0.7363 -0.7171
 8090SOL     OW25511   7.645   4.781   4.875 -0.1470 -0.0742 -0.1217
 8090SOL    HW125512   7.662   4.687   4.870  1.5718  0.2663 -1.1008
 8090SOL    HW225513   7.609   4.803   4.788 -0.7996  0.1371  0.1954
 8091SOL     OW25514   4.064   1.907   2.579 -0.4565  0.1682  0.7339
 8091SOL    HW125515   4.103   1.961   2.510 -2.9586  0.6899 -0.3487
 8091SOL    HW225516   4.065   1.818   2.544 -2.6862  0.5851 -0.4757
 8092SOL     OW25517   5.994   6.675   5.411 -0.2367 -0.0226  0.4324
 8092SOL    HW125518   6.080   6.706   5.382  0.4573 -2.1115  0.1041
 8092SOL    HW225519   5.954   6.640   5.331 -0.8327 -0.2658  0.8341
 8093SOL     OW25520   8.011   7.113   4.858 -0.6155  0.6911  0.3897
 8093SOL    HW125521   8.097   7.110   4.815  0.2102  0.5380  2.0193
 8093SOL    HW225522   7.998   7.024   4.890 -0.5912  1.1273  1.6422
 8094SOL     OW25523   2.321   6.121   6.617 -0.4566 -0.5542  0.3665
 8094SOL    HW125524   2.406   6.099   6.581 -0.0074 -0.0153  1.0855
 8094SOL    HW225525   2.259   6.068   6.568  0.5048 -2.6261  1.3453
 8095SOL     OW25526   4.480   1.506   0.975 -0.3850 -0.0828  0.4281
 8095SOL    HW125527   4.503   1.596   0.996 -1.7334  0.5433 -0.7217
 8095SOL    HW225528   4.385   1.507   0.963 -0.1147 -1.0813 -2.2229
 8096SOL     OW25529   0.395   4.269   2.643 -0.5240  0.2970  0.2296
 8096SOL    HW125530   0.465   4.322   2.682  0.2238 -1.8237  1.8763
 8096SOL    HW225531   0.316   4.296   2.688 -0.2313  0.4274  0.6689
 8097SOL     OW25532   0.634   1.813   6.401  0.5524 -0.3625 -0.4347
 8097SOL    HW125533   0.672   1.726   6.409  0.9437 -0.1881 -0.3763
 8097SOL    HW225534   0.708   1.869   6.378  0.1908 -0.1516 -1.1094
 8098SOL     OW25535   3.293   6.360   2.322 -0.7171 -0.1975 -0.1670
 8098SOL    HW125536   3.296   6.332   2.231  0.8481 -0.5146 -0.0312
 8098SOL    HW225537   3.283   6.279   2.372  0.8635 -0.2723  0.0599
 8099SOL     OW25538   4.218   3.043   8.173 -0.0737 -0.0090 -0.4001
 8099SOL    HW125539   4.149   3.032   8.107  1.3503  1.4795 -2.2024
 8099SOL    HW225540   4.241   3.136   8.168  0.1265  0.1264  2.1742
 8100SOL     OW25541   7.408   3.164   0.319  0.2607  0.0926 -0.0211
 8100SOL    HW125542   7.356   3.199   0.247  0.6401 -0.7156 -0.6998
 8100SOL    HW225543   7.387   3.070   0.320  0.2897  0.0956  0.8906
 8101SOL     OW25544   4.518   6.170   5.807  0.1279 -0.0325  0.0744
 8101SOL    HW125545   4.603   6.141   5.841  0.7122  0.1217 -1.2253
 8101SOL    HW225546   4.456   6.103   5.836  0.7216 -0.2316  0.8943
 8102SOL     OW25547   3.557   2.638   1.482 -0.1916 -0.4247 -0.0814
 8102SOL    HW125548   3.524   2.656   1.571  0.8231  0.6673  0.0888
 8102SOL    HW225549   3.646   2.604   1.496  0.0946  0.0681 -0.6952
 8103SOL     OW25550   3.826   3.540   5.935 -0.3606  0.3967 -0.0552
 8103SOL    HW125551   3.852   3.550   6.026 -0.8309  1.1449  0.0005
 8103SOL    HW225552   3.885   3.598   5.887  0.3229 -0.4964 -0.3017
 8104SOL     OW25553   7.851   4.355   6.494  0.0832 -0.5593  0.0167
 8104SOL    HW125554   7.885   4.441   6.521  0.2086 -1.3633  2.6013
 8104SOL    HW225555   7.767   4.375   6.452 -0.2735  0.7866  1.3088
 8105SOL     OW25556   7.159   5.387   3.631 -0.1397  0.3955 -0.0087
 8105SOL    HW125557   7.086   5.407   3.573 -0.0165 -0.9849 -0.6612
 8105SOL    HW225558   7.119   5.381   3.718 -0.8890 -0.7946 -0.4256
 8106SOL     OW25559   2.145   1.598   0.571  0.1248  0.0969 -0.2743
 8106SOL    HW125560   2.134   1.676   0.516  0.8670  0.4301  0.0440
 8106SOL    HW225561   2.200   1.628   0.644 -0.6242 -0.4020  0.5134
 8107SOL     OW25562   1.320   2.151   4.540 -0.8291 -0.0899 -0.6070
 8107SOL    HW125563   1.237   2.164   4.496 -0.6703 -2.2809 -1.6169
 8107SOL    HW225564   1.296   2.119   4.627 -1.0645 -1.8988 -1.3073
 8108SOL     OW25565   6.368   3.359   2.155 -0.3146  0.5204  0.5958
 8108SOL    HW125566   6.411   3.409   2.225 -1.8898  0.5684  1.5539
 8108SOL    HW225567   6.385   3.410   2.076  0.8662  0.8554  1.0547
 8109SOL     OW25568   3.920   5.939   0.610  0.4287 -0.2617 -0.0023
 8109SOL    HW125569   3.831   5.907   0.622  1.1670 -1.4256  2.9055
 8109SOL    HW225570   3.942   5.918   0.520 -2.8713  1.7680 -1.3655
 8110SOL     OW25571   0.821   4.480   8.258  0.3805 -0.0042  0.0970
 8110SOL    HW125572   0.817   4.384   8.261  1.1581 -0.1869 -3.1195
 8110SOL    HW225573   0.822   4.501   8.165 -1.2050  3.2226  0.7416
 8111SOL     OW25574   7.816   6.367   6.164  0.2811 -0.1060 -0.2321
 8111SOL    HW125575   7.817   6.433   6.233 -0.8889  0.7756 -1.0495
 8111SOL    HW225576   7.738   6.387   6.111  0.2138 -1.7866 -0.8246
 8112SOL     OW25577   4.311   2.117   3.198 -0.4472 -0.4583  0.0781
 8112SOL    HW125578   4.395   2.082   3.226 -1.1673 -1.2402  1.3581
 8112SOL    HW225579   4.251   2.095   3.270 -1.2971  1.9484  0.1431
 8113SOL     OW25580   3.141   2.842   2.146 -0.2014  0.0098 -0.3157
 8113SOL    HW125581   3.191   2.893   2.083  1.4440 -1.3837 -0.1805
 8113SOL    HW225582   3.206   2.786   2.189 -1.8896 -1.9863 -0.2651
 8114SOL     OW25583   4.058   3.795   1.156 -0.2279 -0.0592  0.3234
 8114SOL    HW125584   4.090   3.713   1.120  1.5632  0.3683  0.8864
 8114SOL    HW225585   4.115   3.862   1.118 -1.5836  0.9222 -0.0349
 8115SOL     OW25586   3.751   1.340   7.661  0.4443  0.4294  0.5720
 8115SOL    HW125587   3.776   1.364   7.572 -3.1158  0.5989 -0.4574
 8115SOL    HW225588   3.762   1.245   7.664 -1.9536  0.0336 -1.0134
 8116SOL     OW25589   6.371   2.076   0.710 -0.0808  0.4833  0.4500
 8116SOL    HW125590   6.436   2.078   0.640  0.9400  1.7035  1.4076
 8116SOL    HW225591   6.308   2.009   0.683  1.5000 -0.6305 -0.5676
 8117SOL     OW25592   4.324   6.956   7.593  0.0843 -0.0895 -0.3599
 8117SOL    HW125593   4.361   6.884   7.543  1.4615 -0.3470  0.9689
 8117SOL    HW225594   4.245   6.920   7.634 -1.0445  0.1265 -2.3144
 8118SOL     OW25595   2.014   4.217   0.113  0.3371 -0.7524  0.1360
 8118SOL    HW125596   1.928   4.231   0.153 -0.8185 -4.4951 -0.8748
 8118SOL    HW225597   2.006   4.256   0.026 -0.3702 -1.0624  0.0514
 8119SOL     OW25598   7.159   4.140   1.395 -0.0868  0.6206  0.8129
 8119SOL    HW125599   7.170   4.216   1.451 -0.6063  0.0841  1.6558
 8119SOL    HW225600   7.112   4.077   1.449 -2.0312  0.6947 -0.7423
 8120SOL     OW25601   1.992   4.404   4.898  0.3163 -0.4585 -0.2943
 8120SOL    HW125602   2.054   4.387   4.827 -0.8357 -0.0529 -1.4423
 8120SOL    HW225603   2.033   4.472   4.951  0.3581  0.6655 -1.7261
 8121SOL     OW25604   2.552   3.634   4.369 -0.2132  0.0386  0.4156
 8121SOL    HW125605   2.563   3.553   4.320 -1.1139  0.8551 -1.1664
 8121SOL    HW225606   2.622   3.632   4.434  1.6139 -0.5938 -1.5193
 8122SOL     OW25607   7.624   8.023   4.203  0.4306  0.5887  0.9464
 8122SOL    HW125608   7.592   8.098   4.253  1.7707 -0.4212  3.4130
 8122SOL    HW225609   7.557   7.956   4.215 -0.3841  1.1110 -0.6009
 8123SOL     OW25610   6.888   4.771   8.280  0.0865 -1.0010 -0.1855
 8123SOL    HW125611   6.862   4.736   8.196  0.5388 -0.6989 -0.4548
 8123SOL    HW225612   6.964   4.826   8.261 -0.4442 -0.0923  0.2612
 8124SOL     OW25613   2.950   1.417   2.880  0.4349  0.1966 -0.0550
 8124SOL    HW125614   2.906   1.367   2.949 -0.5619  0.9470 -0.1351
 8124SOL    HW225615   2.973   1.351   2.814  0.0461 -0.3078  0.3078
 8125SOL     OW25616   6.619   2.764   1.085  0.2014  0.0755 -0.9729
 8125SOL    HW125617   6.695   2.818   1.063  0.3280  0.5550  0.5475
 8125SOL    HW225618   6.638   2.733   1.174 -1.8912  1.0939 -0.1413
 8126SOL     OW25619   6.786   2.167   1.936 -0.5038  0.0069 -0.4242
 8126SOL    HW125620   6.737   2.088   1.960 -0.8933  0.0482 -1.0770
 8126SOL    HW225621   6.840   2.186   2.013  0.0952 -1.2905 -0.5072
 8127SOL     OW25622   4.714   4.870   4.272 -0.0821  0.1910  0.1450
 8127SOL    HW125623   4.762   4.844   4.194 -1.1938  1.6304 -1.0466
 8127SOL    HW225624   4.737   4.805   4.338  2.5596  0.1907 -0.7434
 8128SOL     OW25625   5.132   3.091   3.139 -0.0174 -0.3801 -0.7194
 8128SOL    HW125626   5.066   3.023   3.142 -0.2988 -0.0991 -0.5443
 8128SOL    HW225627   5.214   3.047   3.161 -0.5761 -0.1588  1.9086
 8129SOL     OW25628   5.750   6.253   6.790  0.3285 -0.2557  0.2734
 8129SOL    HW125629   5.846   6.256   6.785  0.2450  1.1305 -0.6968
 8129SOL    HW225630   5.730   6.272   6.882  0.9643  0.1414  0.3326
 8130SOL     OW25631   6.473   0.930   2.044 -0.3332 -0.2896  0.0826
 8130SOL    HW125632   6.518   1.003   2.087 -0.8716 -0.1436  0.4040
 8130SOL    HW225633   6.535   0.857   2.051  0.4158  0.2663 -0.7010
 8131SOL     OW25634   4.019   7.547   8.253 -0.3640  0.0618  0.3955
 8131SOL    HW125635   4.088   7.483   8.237 -0.3632 -0.0589  0.8816
 8131SOL    HW225636   4.056   7.607   8.318 -0.7084  0.0141  0.6359
 8132SOL     OW25637   1.274   3.765   6.035 -0.1493  0.2733 -0.6416
 8132SOL    HW125638   1.184   3.763   6.067 -0.9132  2.0623 -2.5254
 8132SOL    HW225639   1.304   3.675   6.043 -1.3944  0.0509  1.9372
 8133SOL     OW25640   2.686   5.788   4.254 -0.0033 -0.6022  0.0768
 8133SOL    HW125641   2.656   5.722   4.192  0.8036  0.0378 -1.0387
 8133SOL    HW225642   2.673   5.749   4.340 -1.3971 -1.4099 -0.4846
 8134SOL     OW25643   1.939   1.450   3.124  0.3370  0.1395 -0.0737
 8134SOL    HW125644   1.990   1.527   3.099  0.8825  0.0452  0.7507
 8134SOL    HW225645   1.894   1.476   3.204 -0.9749  0.2515 -0.8333
 8135SOL     OW25646   5.050   0.051   7.134 -0.3994 -0.4592  0.4849
 8135SOL    HW125647   5.048   0.136   7.178 -1.0932 -0.3081  0.1678
 8135SOL    HW225648   5.135   0.014   7.158 -0.6081 -0.2191  1.6483
 8136SOL     OW25649   4.032   1.742   6.070  0.1124 -0.3111 -0.1978
 8136SOL    HW125650   4.064   1.676   6.132  4.2556 -0.5499 -2.4339
 8136SOL    HW225651   3.998   1.691   5.997 -1.4896  0.0305  0.2826
 8137SOL     OW25652   1.990   1.916   1.891 -0.0955 -0.2010 -0.3129
 8137SOL    HW125653   2.060   1.977   1.912  0.2325 -0.1106 -1.6010
 8137SOL    HW225654   2.023   1.830   1.918 -0.1117  0.0490  0.4881
 8138SOL     OW25655   6.159   6.020   6.793  0.1591 -0.7348  0.5248
 8138SOL    HW125656   6.252   6.012   6.769 -0.1047  0.8633 -1.1281
 8138SOL    HW225657   6.161   6.061   6.880  0.9872  2.3647 -0.8703
 8139SOL     OW25658   5.450   3.160   4.070  0.2187  0.1784  0.0763
 8139SOL    HW125659   5.391   3.114   4.010  1.1500  0.0717 -0.7701
 8139SOL    HW225660   5.513   3.203   4.013 -0.3833  2.1739  0.8867
 8140SOL     OW25661   6.201   6.328   7.263 -0.0036 -0.3123  0.3198
 8140SOL    HW125662   6.253   6.327   7.343 -0.4025  2.2908  0.6708
 8140SOL    HW225663   6.258   6.372   7.199 -0.6467 -0.1169 -0.1205
 8141SOL     OW25664   1.728   5.096   3.500 -0.1284  0.0074  0.7207
 8141SOL    HW125665   1.737   5.032   3.571  0.9244 -1.0001 -0.2984
 8141SOL    HW225666   1.649   5.145   3.522 -1.6127 -2.4028  0.9429
 8142SOL     OW25667   3.348   7.453   7.930  0.0051  0.2400 -0.9844
 8142SOL    HW125668   3.419   7.455   7.866  0.7121 -0.7729 -0.2591
 8142SOL    HW225669   3.308   7.366   7.920 -0.2148  0.2690 -0.4220
 8143SOL     OW25670   2.858   4.993   3.936 -0.1084  0.0816  0.2460
 8143SOL    HW125671   2.929   5.040   3.980  1.1472 -0.4895 -1.1232
 8143SOL    HW225672   2.876   4.901   3.951 -1.3842 -0.0355  1.1162
 8144SOL     OW25673   3.822   1.554   5.199 -0.1300 -0.0614 -0.2851
 8144SOL    HW125674   3.907   1.529   5.237  0.5408 -0.8245 -2.2140
 8144SOL    HW225675   3.810   1.494   5.125 -1.6660  0.9976 -0.9295
 8145SOL     OW25676   0.597   4.673   2.105 -0.0592 -0.4150  0.2454
 8145SOL    HW125677   0.624   4.653   2.015 -0.2827 -1.3580  0.3791
 8145SOL    HW225678   0.503   4.691   2.098 -0.0451 -0.3319  0.2677
 8146SOL     OW25679   6.027   1.564   7.348 -0.0410 -0.2416 -0.2379
 8146SOL    HW125680   5.980   1.486   7.378  3.4832 -2.0033  1.0234
 8146SOL    HW225681   6.091   1.530   7.285  1.5207  1.6481  0.2942
 8147SOL     OW25682   5.772   6.444   8.140 -0.3052 -0.1854  0.0663
 8147SOL    HW125683   5.800   6.357   8.168 -0.9209 -0.3260  0.2591
 8147SOL    HW225684   5.714   6.474   8.211 -2.0359 -0.6143 -1.1495
 8148SOL     OW25685   4.202   1.752   4.443  0.2807 -0.2100 -0.2386
 8148SOL    HW125686   4.284   1.746   4.393 -0.8371  0.1142 -2.1485
 8148SOL    HW225687   4.137   1.780   4.379 -1.3966 -0.7412  1.2056
 8149SOL     OW25688   4.704   6.977   7.295  0.2221  0.3758  0.5816
 8149SOL    HW125689   4.781   6.978   7.239 -1.0545 -1.6301 -1.2990
 8149SOL    HW225690   4.709   6.894   7.342  0.4528  1.3348  2.2848
 8150SOL     OW25691   3.485   2.687   3.289  0.0456 -0.2721 -0.3867
 8150SOL    HW125692   3.546   2.686   3.363  1.5692 -0.6280 -1.6431
 8150SOL    HW225693   3.510   2.612   3.235 -1.5037 -0.4255 -0.9338
 8151SOL     OW25694   8.276   5.212   0.474 -0.1343  0.3197  0.1497
 8151SOL    HW125695   8.323   5.288   0.438  0.4840 -0.8524 -1.6040
 8151SOL    HW225696   8.183   5.233   0.463 -0.0574  2.3663  3.0197
 8152SOL     OW25697   8.036   0.825   4.818  0.3756  0.3743  0.4123
 8152SOL    HW125698   8.009   0.788   4.734  1.3844  1.0248 -0.2156
 8152SOL    HW225699   8.128   0.800   4.826  0.6388  1.4204  0.7047
 8153SOL     OW25700   6.622   3.245   1.209  0.7403 -0.0104 -0.3191
 8153SOL    HW125701   6.701   3.223   1.158  0.8825  0.3798 -0.2645
 8153SOL    HW225702   6.564   3.170   1.196  1.7858 -1.0866  0.9882
 8154SOL     OW25703   0.915   5.419   6.231  0.1975 -0.1076 -0.2283
 8154SOL    HW125704   0.901   5.472   6.310  1.0092 -0.4557  0.1540
 8154SOL    HW225705   0.830   5.419   6.187 -0.2938  0.0140  0.6977
 8155SOL     OW25706   7.972   4.778   4.739 -0.0288 -0.5182 -0.2385
 8155SOL    HW125707   7.917   4.847   4.776 -0.0025  0.2157 -1.5229
 8155SOL    HW225708   7.917   4.736   4.673  1.2463  0.9014 -2.2734
 8156SOL     OW25709   2.482   4.959   0.009 -0.2104 -0.2597 -0.3414
 8156SOL    HW125710   2.446   5.031   0.059 -0.5948 -0.8704  0.2585
 8156SOL    HW225711   2.491   4.994  -0.080  0.3758  0.7870  0.1190
 8157SOL     OW25712   1.139   5.452   4.374  0.4458  0.0683  0.1368
 8157SOL    HW125713   1.066   5.483   4.321  0.1842 -1.0548 -0.1765
 8157SOL    HW225714   1.217   5.483   4.328  0.1927  0.2546 -0.1706
 8158SOL     OW25715   4.515   3.520   6.875  0.0545  0.7017  0.5800
 8158SOL    HW125716   4.451   3.537   6.805 -0.0341  0.2339  0.5488
 8158SOL    HW225717   4.468   3.464   6.937 -0.2141  1.9616  1.5394
 8159SOL     OW25718   0.717   0.836   2.864 -0.9555 -0.4861  0.0246
 8159SOL    HW125719   0.677   0.874   2.785  0.5070  1.4898  0.1793
 8159SOL    HW225720   0.729   0.744   2.843 -0.4626  0.0358 -2.1546
 8160SOL     OW25721   0.801   1.041   5.640  0.7593  0.2456  0.1823
 8160SOL    HW125722   0.789   1.109   5.706  0.2873 -0.9143  1.3142
 8160SOL    HW225723   0.773   0.960   5.684 -1.6669 -0.2442 -2.1405
 8161SOL     OW25724   2.123   2.370   0.652 -0.3768  0.1069 -0.2587
 8161SOL    HW125725   2.165   2.417   0.579 -2.6003  0.8937 -1.0804
 8161SOL    HW225726   2.083   2.293   0.611  1.0998 -1.2029  0.6857
 8162SOL     OW25727   5.723   2.935   0.737 -0.1754 -0.3803 -0.2821
 8162SOL    HW125728   5.639   2.953   0.694 -0.7233  1.3406  1.4193
 8162SOL    HW225729   5.699   2.899   0.822  0.8406 -0.8914 -0.2052
 8163SOL     OW25730   6.582   7.594   5.043 -0.2978 -0.0439  0.3903
 8163SOL    HW125731   6.553   7.677   5.081  0.3119  0.3594 -0.0223
 8163SOL    HW225732   6.648   7.562   5.105  0.5161  0.4919 -0.1991
 8164SOL     OW25733   5.840   6.576   7.774  0.2319 -0.0464 -0.1947
 8164SOL    HW125734   5.903   6.642   7.746 -0.7300  0.1645 -1.9695
 8164SOL    HW225735   5.755   6.620   7.767 -0.2218 -0.6794  1.0774
 8165SOL     OW25736   3.209   6.436   4.958 -0.5633 -0.3110  0.5225
 8165SOL    HW125737   3.232   6.441   5.051 -0.1282 -2.2264  0.5381
 8165SOL    HW225738   3.291   6.456   4.912 -0.4818 -0.5877  0.5491
 8166SOL     OW25739   5.539   8.214   1.541  0.3830  0.0711 -0.2656
 8166SOL    HW125740   5.455   8.201   1.497  0.3608  0.9593 -0.4849
 8166SOL    HW225741   5.604   8.180   1.480  0.2735  0.4006 -0.5630
 8167SOL     OW25742   3.247   2.654   4.827  0.6326 -0.1011 -0.8779
 8167SOL    HW125743   3.161   2.614   4.818  0.7123 -0.7297  0.9101
 8167SOL    HW225744   3.231   2.748   4.821 -0.0997 -0.2416 -1.0937
 8168SOL     OW25745   6.709   7.324   5.810 -0.9647  0.0566 -0.3939
 8168SOL    HW125746   6.715   7.235   5.843  0.6547 -0.2781 -1.5170
 8168SOL    HW225747   6.736   7.380   5.883  1.3565 -0.5942 -0.7192
 8169SOL     OW25748   0.850   0.893   4.571  0.1862 -0.0523 -0.1525
 8169SOL    HW125749   0.892   0.969   4.610  0.6138 -0.5231  0.3066
 8169SOL    HW225750   0.803   0.851   4.643  0.4156 -0.5399 -0.2798
 8170SOL     OW25751   0.507   1.961   2.180  0.2898  0.2362  0.3208
 8170SOL    HW125752   0.503   2.030   2.246  0.1331 -0.2197  0.7924
 8170SOL    HW225753   0.484   2.005   2.098 -2.0197  0.3037  0.9704
 8171SOL     OW25754   6.098   4.828   3.164 -0.5920 -0.1162 -0.2763
 8171SOL    HW125755   6.185   4.870   3.158 -0.2748 -0.7883 -0.3856
 8171SOL    HW225756   6.045   4.892   3.212  0.4899 -0.5322  1.5440
 8172SOL     OW25757   3.715   7.807   4.710 -0.5470 -0.3669  0.0283
 8172SOL    HW125758   3.741   7.716   4.726 -0.6955 -0.0962  1.9122
 8172SOL    HW225759   3.643   7.801   4.648  0.5967 -1.4272 -1.2161
 8173SOL     OW25760   0.933   6.271   5.132 -0.2342  0.3188  0.1641
 8173SOL    HW125761   0.857   6.220   5.106  0.7929 -1.2601  0.2081
 8173SOL    HW225762   0.935   6.265   5.228  0.6745 -0.7221  0.0846
 8174SOL     OW25763   6.361   5.890   5.603  0.1014  0.1808  0.3714
 8174SOL    HW125764   6.382   5.950   5.531  0.2436  0.7419  0.8766
 8174SOL    HW225765   6.271   5.913   5.627 -0.7566 -1.5388 -1.1282
 8175SOL     OW25766   6.751   6.741   4.628  0.3762 -0.4842  0.0296
 8175SOL    HW125767   6.683   6.681   4.599  0.1351  0.5114 -1.5633
 8175SOL    HW225768   6.704   6.819   4.657  0.7827 -0.2433  0.0506
 8176SOL     OW25769   5.486   1.735   2.689  0.3252  0.1111  0.1291
 8176SOL    HW125770   5.548   1.780   2.747 -1.2148  1.0313  1.1069
 8176SOL    HW225771   5.440   1.806   2.645  1.1531 -0.5847 -1.8859
 8177SOL     OW25772   8.041   1.183   3.715  0.2423  0.0075 -0.1830
 8177SOL    HW125773   7.999   1.267   3.698 -0.7718 -0.2555  0.8903
 8177SOL    HW225774   7.990   1.120   3.664 -1.5280 -0.4907  2.0750
 8178SOL     OW25775   7.517   2.950   7.893  0.1966  0.2271  0.1441
 8178SOL    HW125776   7.577   3.023   7.877 -0.9431  1.0174 -0.5766
 8178SOL    HW225777   7.574   2.880   7.925  1.1892  1.6890  1.6541
 8179SOL     OW25778   3.644   2.219   3.147 -0.6299 -0.3321  0.2834
 8179SOL    HW125779   3.655   2.134   3.103 -1.5736 -0.2285 -0.1702
 8179SOL    HW225780   3.688   2.281   3.089 -3.3600  0.0647 -1.4608
 8180SOL     OW25781   4.589   3.072   6.037  0.2989 -0.1397  0.3214
 8180SOL    HW125782   4.649   3.109   6.102  0.6786  0.2344 -0.2437
 8180SOL    HW225783   4.503   3.078   6.079  0.7392 -1.3146  1.4072
 8181SOL     OW25784   2.015   5.767   8.174 -0.1516 -0.6019 -0.8745
 8181SOL    HW125785   1.926   5.791   8.150 -0.5129 -1.6799 -0.6321
 8181SOL    HW225786   2.070   5.833   8.131 -1.2055  1.8058  1.3961
 8182SOL     OW25787   8.205   2.762   1.153  0.1712 -0.0036 -0.4042
 8182SOL    HW125788   8.292   2.755   1.115 -0.3960  0.3315 -1.8111
 8182SOL    HW225789   8.166   2.838   1.108 -0.4955  0.4361  0.8977
 8183SOL     OW25790   3.927   2.768   6.198 -0.4267  0.2233  0.2982
 8183SOL    HW125791   3.924   2.736   6.108  1.4337 -1.1382  0.6833
 8183SOL    HW225792   3.842   2.744   6.235 -1.3346  1.1030 -1.1801
 8184SOL     OW25793   3.681   4.149   4.813  0.3169  0.5418 -0.1549
 8184SOL    HW125794   3.649   4.239   4.814  1.2651  0.9714 -2.8632
 8184SOL    HW225795   3.767   4.154   4.773  0.4541 -1.5526 -0.2170
 8185SOL     OW25796   5.800   2.940   5.555  0.0526  0.0291 -0.0419
 8185SOL    HW125797   5.891   2.970   5.556 -0.5346  1.9303 -1.1321
 8185SOL    HW225798   5.806   2.846   5.572  2.0080  0.5710  2.4986
 8186SOL     OW25799   1.979   2.512   5.159  0.8117  0.2286  0.2135
 8186SOL    HW125800   1.934   2.561   5.228  0.0721 -0.7316  0.4233
 8186SOL    HW225801   1.945   2.549   5.077  1.3647  1.0688  0.3565
 8187SOL     OW25802   7.145   5.048   4.713  0.2497  0.1679  0.2811
 8187SOL    HW125803   7.132   4.993   4.636  1.1733 -0.7924  0.7931
 8187SOL    HW225804   7.079   5.018   4.775  0.2751  0.1463  0.2972
 8188SOL     OW25805   4.510   1.457   4.565 -0.1175 -0.1547 -0.0940
 8188SOL    HW125806   4.452   1.405   4.510 -0.5845 -0.9877  1.1706
 8188SOL    HW225807   4.471   1.453   4.652  1.2854  0.1105  0.5671
 8189SOL     OW25808   3.201   3.814   6.145  0.0274 -0.2527 -0.0318
 8189SOL    HW125809   3.121   3.815   6.198 -0.1613 -1.1358 -0.2911
 8189SOL    HW225810   3.244   3.732   6.168  0.3430 -0.2684 -0.6534
 8190SOL     OW25811   1.389   4.285   6.325  0.2744  0.0795  0.6232
 8190SOL    HW125812   1.374   4.193   6.302  0.0476  0.0426  0.9225
 8190SOL    HW225813   1.371   4.290   6.419 -0.9097  0.6857  0.3712
 8191SOL     OW25814   4.284   1.543   2.778 -0.2429 -0.0745  0.1908
 8191SOL    HW125815   4.197   1.559   2.741 -0.0499  1.6781  0.4685
 8191SOL    HW225816   4.292   1.605   2.850  0.3227 -1.8508  1.6963
 8192SOL     OW25817   7.452   0.987   1.355 -0.1091  0.0386  0.0081
 8192SOL    HW125818   7.358   0.986   1.339 -0.1001  0.3599 -0.0556
 8192SOL    HW225819   7.470   1.072   1.394  0.3261  0.4398 -1.0405
 8193SOL     OW25820   2.800   3.831   0.495  0.3009 -0.4093  0.2877
 8193SOL    HW125821   2.801   3.873   0.581  0.7634  1.6648 -0.6697
 8193SOL    HW225822   2.885   3.856   0.456 -0.5829  0.1136 -1.3881
 8194SOL     OW25823   3.989   4.529   2.901 -0.0143 -0.2166  0.6350
 8194SOL    HW125824   4.069   4.554   2.855  0.9124  0.4381  2.5123
 8194SOL    HW225825   4.004   4.557   2.992 -1.2467 -2.5982  1.6260
 8195SOL     OW25826   3.705   3.705   5.342 -0.1472  0.4046  0.2909
 8195SOL    HW125827   3.731   3.761   5.269  0.2849 -1.5203 -1.0917
 8195SOL    HW225828   3.636   3.649   5.306 -0.2476 -0.2654  1.4902
 8196SOL     OW25829   7.493   6.334   2.264  0.2935  0.3021 -0.3670
 8196SOL    HW125830   7.456   6.347   2.176  0.8956  3.0725 -0.2842
 8196SOL    HW225831   7.579   6.376   2.259  1.2040 -1.3852  0.9563
 8197SOL     OW25832   0.511   2.310   5.440 -0.1403 -0.4191 -0.4329
 8197SOL    HW125833   0.420   2.287   5.458 -0.6823  2.8631  1.3274
 8197SOL    HW225834   0.514   2.327   5.346 -1.4737  0.0582 -0.3902
 8198SOL     OW25835   7.048   7.130   4.307  0.1759 -0.4627  0.2141
 8198SOL    HW125836   6.981   7.168   4.250 -0.8020 -1.8869  0.3817
 8198SOL    HW225837   7.015   7.142   4.396  2.0069  2.3363  0.5806
 8199SOL     OW25838   2.928   5.061   3.332  0.3076 -0.3659 -0.5160
 8199SOL    HW125839   2.888   5.092   3.251 -0.9844  2.6647  1.2049
 8199SOL    HW225840   2.869   5.091   3.401  1.6441 -2.4329  1.6084
 8200SOL     OW25841   0.877   5.704   1.561  0.2855 -0.3606  0.3418
 8200SOL    HW125842   0.923   5.742   1.485  0.2215  0.1214  0.5433
 8200SOL    HW225843   0.816   5.772   1.588 -0.1813 -0.8035  0.4026
 8201SOL     OW25844   3.652   0.721   7.182 -0.2718 -0.2308  0.0779
 8201SOL    HW125845   3.687   0.645   7.228  1.1226  0.6203  0.4339
 8201SOL    HW225846   3.648   0.694   7.090  0.3362 -0.6894  0.1855
 8202SOL     OW25847   0.957   0.036   0.264 -0.3387  0.7943 -0.2454
 8202SOL    HW125848   1.021   0.107   0.275 -0.2688  0.8628 -1.1050
 8202SOL    HW225849   0.876   0.081   0.240 -0.8115  0.7365  1.1868
 8203SOL     OW25850   2.874   6.699   2.734  0.0503  0.3812  0.4851
 8203SOL    HW125851   2.881   6.634   2.803 -0.0030  0.4204  0.5269
 8203SOL    HW225852   2.817   6.659   2.668 -0.1087  0.4486  0.5822
 8204SOL     OW25853   1.859   3.453   4.702 -0.2352  0.3637 -0.5009
 8204SOL    HW125854   1.828   3.427   4.615  0.5260 -1.1547 -0.3399
 8204SOL    HW225855   1.784   3.495   4.743 -1.6008 -1.8428 -0.6953
 8205SOL     OW25856   4.882   4.899   5.870  0.2240 -0.2203  0.6206
 8205SOL    HW125857   4.933   4.819   5.858  1.7353  0.4968  2.0737
 8205SOL    HW225858   4.801   4.870   5.912 -0.9037 -1.4601 -2.2998
 8206SOL     OW25859   7.470   3.577   5.510  0.2403 -0.4452 -0.2037
 8206SOL    HW125860   7.559   3.613   5.501  0.3633 -0.5494  0.5587
 8206SOL    HW225861   7.455   3.575   5.605  0.2154 -2.3625 -0.2364
 8207SOL     OW25862   3.896   1.532   2.866  1.1375 -0.3012  0.4774
 8207SOL    HW125863   3.822   1.559   2.921 -0.7445 -3.6597 -0.2594
 8207SOL    HW225864   3.953   1.484   2.926  1.3003 -0.1681  0.4291
 8208SOL     OW25865   1.720   0.611   4.914 -0.1690 -0.4938 -0.0874
 8208SOL    HW125866   1.666   0.590   4.991  1.1544 -2.5061  0.3502
 8208SOL    HW225867   1.808   0.626   4.950 -0.0985  1.1693 -0.9428
 8209SOL     OW25868   2.050   2.317   4.083  0.3537 -0.1443  0.3587
 8209SOL    HW125869   2.124   2.290   4.028  1.4867  1.0527  1.2602
 8209SOL    HW225870   1.982   2.252   4.065  0.7946  0.0561 -2.2324
 8210SOL     OW25871   2.176   3.532   7.022 -0.1531  0.2790 -0.2529
 8210SOL    HW125872   2.152   3.510   6.932  0.4595  0.1435 -0.3812
 8210SOL    HW225873   2.227   3.457   7.053 -3.2614 -1.2773  1.3769
 8211SOL     OW25874   3.047   3.048   5.859  0.0392  0.0170  0.1477
 8211SOL    HW125875   3.050   2.975   5.921 -0.9644 -0.4427 -0.3281
 8211SOL    HW225876   2.977   3.105   5.892 -1.4696 -0.9417 -1.3111
 8212SOL     OW25877   7.255   3.153   2.594  0.5982 -0.5089  0.0151
 8212SOL    HW125878   7.207   3.071   2.601 -0.7544  0.1746 -0.9634
 8212SOL    HW225879   7.328   3.134   2.536 -1.0562 -0.4455 -2.1415
 8213SOL     OW25880   6.973   4.225   6.658 -0.1505  0.3129 -0.3053
 8213SOL    HW125881   6.926   4.187   6.732  1.0384 -1.2391 -0.3105
 8213SOL    HW225882   7.062   4.188   6.665  0.7810  2.3799 -0.8682
 8214SOL     OW25883   0.015   7.120   2.103 -0.0872  0.7206 -0.0160
 8214SOL    HW125884   0.052   7.207   2.088  1.7901  0.3239  2.1329
 8214SOL    HW225885  -0.051   7.133   2.171 -1.2806  0.7970 -1.1772
 8215SOL     OW25886   3.747   4.077   1.540 -0.9665  0.1173 -0.0373
 8215SOL    HW125887   3.808   4.136   1.495 -0.7545 -0.8168 -0.9975
 8215SOL    HW225888   3.803   4.017   1.589 -1.0899 -1.0416 -1.2974
 8216SOL     OW25889   7.491   1.475   4.708 -0.0801  0.0005 -0.1113
 8216SOL    HW125890   7.404   1.501   4.677 -0.2429 -0.7422 -0.2876
 8216SOL    HW225891   7.515   1.401   4.652 -0.7226 -1.8886  2.0384
 8217SOL     OW25892   1.291   1.516   3.510 -0.3002  0.0199  0.2666
 8217SOL    HW125893   1.199   1.502   3.535  0.0285 -0.6489  1.1323
 8217SOL    HW225894   1.333   1.547   3.590  0.3259 -0.1198 -0.0103
 8218SOL     OW25895   2.515   7.802   0.520  0.3492 -0.1632  0.2554
 8218SOL    HW125896   2.484   7.845   0.599 -0.9976 -1.3366  0.3782
 8218SOL    HW225897   2.507   7.708   0.539 -0.1208 -0.4542 -1.3089
 8219SOL     OW25898   7.768   2.570   8.191  0.2942 -0.4777  0.4628
 8219SOL    HW125899   7.840   2.569   8.254  1.8768  0.1494 -1.3104
 8219SOL    HW225900   7.723   2.486   8.205  0.6138 -0.3417  2.4084
 8220SOL     OW25901   4.756   5.560   2.746 -0.5675  0.2798 -0.0950
 8220SOL    HW125902   4.666   5.592   2.751 -0.9181 -0.4287 -1.8568
 8220SOL    HW225903   4.755   5.495   2.676  1.1344 -0.3349  0.4390
 8221SOL     OW25904   2.118   2.289   1.910 -0.0419  0.0167 -0.3221
 8221SOL    HW125905   2.176   2.365   1.914 -0.7027  0.5193 -0.2177
 8221SOL    HW225906   2.037   2.322   1.869 -0.5980 -0.4543  0.3822
 8222SOL     OW25907   0.959   1.787   4.245  0.2442  0.3414 -0.3985
 8222SOL    HW125908   0.957   1.728   4.170 -1.0445 -1.9752  1.3587
 8222SOL    HW225909   0.927   1.871   4.212 -0.3464 -0.6551 -2.3945
 8223SOL     OW25910   1.010   2.859   4.892 -0.1282  0.0437  0.1539
 8223SOL    HW125911   1.081   2.890   4.948 -0.3595  0.6872  0.0931
 8223SOL    HW225912   0.959   2.800   4.947  0.1158  0.0342  0.3705
 8224SOL     OW25913   6.369   8.152   0.948  0.4627  0.2804 -0.7248
 8224SOL    HW125914   6.435   8.176   0.883  0.8350  1.0579 -0.0731
 8224SOL    HW225915   6.289   8.137   0.897  0.9760 -0.0043 -1.4498
 8225SOL     OW25916   3.127   4.252   0.512  0.2387 -0.3301  0.1185
 8225SOL    HW125917   3.053   4.202   0.477  1.8410 -1.8557 -1.2156
 8225SOL    HW225918   3.159   4.302   0.437  0.7726  0.0587  0.6063
 8226SOL     OW25919   3.384   0.251   4.899  0.1132  0.3096  0.0378
 8226SOL    HW125920   3.385   0.159   4.925  0.8953  0.2413 -0.2491
 8226SOL    HW225921   3.305   0.260   4.845  0.3313 -0.3061 -0.3775
 8227SOL     OW25922   2.039   7.771   4.962  0.3416 -0.0339  0.7974
 8227SOL    HW125923   1.989   7.812   5.033 -0.2642  2.8783 -1.2060
 8227SOL    HW225924   1.985   7.696   4.935 -1.2840  1.0627  0.9288
 8228SOL     OW25925   5.272   6.104   7.481 -0.5117 -0.1579 -0.4355
 8228SOL    HW125926   5.267   6.180   7.423  4.3717  1.3571  0.8824
 8228SOL    HW225927   5.297   6.032   7.424  0.6499  0.5324 -0.8115
 8229SOL     OW25928   1.105   1.075   2.455  0.0569 -0.2222  0.1594
 8229SOL    HW125929   1.090   1.170   2.450 -0.5084 -0.3343 -0.3673
 8229SOL    HW225930   1.025   1.037   2.419  0.3987 -0.9003  0.1221
 8230SOL     OW25931   7.825   3.677   5.076  0.0613  0.2043 -0.1064
 8230SOL    HW125932   7.888   3.748   5.063  0.1228  0.4271  1.2608
 8230SOL    HW225933   7.863   3.602   5.032 -0.4328  1.2224 -2.3587
 8231SOL     OW25934   3.283   4.149   1.973 -0.3344 -0.2609 -0.1939
 8231SOL    HW125935   3.349   4.111   2.031  0.3176  0.4073 -0.4832
 8231SOL    HW225936   3.252   4.226   2.019 -0.3656 -0.1540 -0.3941
 8232SOL     OW25937   7.469   2.648   4.476  0.4363 -0.0799 -0.0366
 8232SOL    HW125938   7.387   2.641   4.525  0.9010  1.8165  1.0945
 8232SOL    HW225939   7.514   2.565   4.492 -0.6364 -0.5668  0.5135
 8233SOL     OW25940   0.805   4.890   0.976 -0.6715  0.5721 -0.6770
 8233SOL    HW125941   0.871   4.872   0.909 -0.2220 -2.6352  0.5444
 8233SOL    HW225942   0.855   4.914   1.054 -0.9538 -1.1386  0.0431
 8234SOL     OW25943   2.585   3.373   7.969  0.1645  0.7528  0.5684
 8234SOL    HW125944   2.680   3.371   7.970  0.1878 -2.5714 -1.3520
 8234SOL    HW225945   2.559   3.347   8.058  1.0686 -0.3357  0.5238
 8235SOL     OW25946   7.987   0.870   7.944  0.2381 -0.1513 -0.5016
 8235SOL    HW125947   8.082   0.875   7.957  0.1915 -2.1256  0.8982
 8235SOL    HW225948   7.974   0.788   7.896 -0.8416 -0.6858  0.6575
 8236SOL     OW25949   3.440   4.097   6.555  0.0393  0.6111 -0.1176
 8236SOL    HW125950   3.498   4.067   6.485 -1.0733 -0.6627 -0.5326
 8236SOL    HW225951   3.493   4.092   6.635  0.3456 -1.0738 -0.4085
 8237SOL     OW25952   1.537   3.829   6.049  0.0710  0.3972 -0.3659
 8237SOL    HW125953   1.450   3.793   6.034  0.6410 -0.6021 -1.3220
 8237SOL    HW225954   1.527   3.886   6.126 -0.9911 -1.2014  0.6939
 8238SOL     OW25955   6.649   4.951   5.015 -0.0463  0.2702  0.5625
 8238SOL    HW125956   6.671   4.955   4.922 -1.2470 -0.2157  0.2502
 8238SOL    HW225957   6.634   4.857   5.031 -0.5777  0.4418  1.0680
 8239SOL     OW25958   8.073   3.996   7.231  0.8840  0.0680 -0.4568
 8239SOL    HW125959   8.084   4.058   7.159  2.5034 -0.0422 -0.3192
 8239SOL    HW225960   8.116   3.916   7.201  0.1864 -0.4849  0.0021
 8240SOL     OW25961   3.311   5.118   5.976 -0.0316  0.3655  0.4048
 8240SOL    HW125962   3.320   5.191   5.916  2.5244 -1.4688 -1.5518
 8240SOL    HW225963   3.260   5.053   5.928  1.2153 -0.7449  0.5491
 8241SOL     OW25964   3.042   0.089   3.244  0.2052 -0.1029 -0.5716
 8241SOL    HW125965   3.010   0.053   3.326  1.2435 -2.1768 -1.0396
 8241SOL    HW225966   3.121   0.139   3.268  0.1536 -0.1857 -0.2337
 8242SOL     OW25967   0.123   5.596   5.738 -0.4416  0.7400  0.5886
 8242SOL    HW125968   0.183   5.522   5.742 -1.9167 -0.5199 -0.0888
 8242SOL    HW225969   0.078   5.595   5.822 -0.5685  0.7769  0.5202
 8243SOL     OW25970   2.809   2.710   0.387 -0.2435  0.2414  0.6121
 8243SOL    HW125971   2.805   2.711   0.291 -0.6078 -1.3204  0.5958
 8243SOL    HW225972   2.775   2.795   0.413 -1.0640  0.3086 -0.6307
 8244SOL     OW25973   0.155   2.508   0.818 -0.4522  0.3653 -0.2255
 8244SOL    HW125974   0.146   2.449   0.892  1.5691  1.7536  1.1863
 8244SOL    HW225975   0.128   2.593   0.851 -1.2604  0.6680 -1.6180
 8245SOL     OW25976   5.647   0.303   3.988 -0.4606  0.5077  0.1987
 8245SOL    HW125977   5.636   0.370   3.921  1.4950 -0.4035 -1.0889
 8245SOL    HW225978   5.697   0.346   4.057 -0.0248  0.6605 -0.2069
 8246SOL     OW25979   6.875   6.429   1.936  0.1258 -0.5301 -0.1738
 8246SOL    HW125980   6.870   6.509   1.884 -0.2650 -1.0343 -0.9071
 8246SOL    HW225981   6.873   6.459   2.027 -4.4007  0.0380 -0.3871
 8247SOL     OW25982   3.032   3.888   6.551  0.4822 -0.4888 -0.0330
 8247SOL    HW125983   3.050   3.892   6.645 -1.2169  1.3529  0.2302
 8247SOL    HW225984   3.087   3.957   6.514 -1.2487  0.9062 -0.0030
 8248SOL     OW25985   4.589   3.988   3.494  0.1387  0.1734 -0.3146
 8248SOL    HW125986   4.625   3.982   3.583  0.2501 -3.1655 -0.5034
 8248SOL    HW225987   4.495   3.998   3.507  0.1723 -0.1356  0.1908
 8249SOL     OW25988   1.187   2.016   2.633 -0.4123  0.4255  0.2933
 8249SOL    HW125989   1.216   1.933   2.594 -0.3234  1.2828 -1.5351
 8249SOL    HW225990   1.114   1.992   2.689 -1.6488 -0.6683 -1.7209
 8250SOL     OW25991   6.791   5.955   0.814  0.1266 -0.1395 -0.1697
 8250SOL    HW125992   6.879   5.976   0.782  0.4833  1.1993  1.6346
 8250SOL    HW225993   6.782   6.006   0.894 -1.9882 -0.9269  0.1119
 8251SOL     OW25994   0.138   3.020   3.704 -0.0433 -0.1266  0.3361
 8251SOL    HW125995   0.129   3.115   3.696 -0.9476 -0.2475 -0.1647
 8251SOL    HW225996   0.082   2.985   3.634  0.6482 -1.0202  0.2205
 8252SOL     OW25997   4.208   2.527   0.118  0.5987  0.1304  0.1704
 8252SOL    HW125998   4.177   2.590   0.182 -1.3427 -0.7382  0.1241
 8252SOL    HW225999   4.146   2.454   0.123  0.4105  0.0199 -2.6425
 8253SOL     OW26000   3.411   8.270   4.047 -0.8362  0.3498 -0.4981
 8253SOL    HW126001   3.443   8.256   3.958 -0.3277  1.4662 -0.5010
 8253SOL    HW226002   3.489   8.289   4.098 -1.3873  2.6109 -0.4154
 8254SOL     OW26003   5.043   2.016   1.428  0.0045  0.5204  0.4821
 8254SOL    HW126004   4.958   2.054   1.405  1.1204  2.1728 -1.0817
 8254SOL    HW226005   5.039   1.926   1.395 -0.5042  1.1388 -1.2130
 8255SOL     OW26006   7.309   5.188   7.067  0.4301  0.1089 -0.2494
 8255SOL    HW126007   7.305   5.260   7.004  1.2660  1.5327  1.2682
 8255SOL    HW226008   7.230   5.138   7.052 -0.6492  1.8970 -0.7195
 8256SOL     OW26009   6.736   6.525   0.661 -0.2788  0.1327  0.1717
 8256SOL    HW126010   6.774   6.573   0.735 -2.7193 -1.8314  2.8742
 8256SOL    HW226011   6.692   6.592   0.609  0.1125  1.3923  1.4174
 8257SOL     OW26012   7.956   1.327   7.185 -0.2696  0.3667  0.2854
 8257SOL    HW126013   8.020   1.383   7.143  1.2946 -0.6611  1.2559
 8257SOL    HW226014   7.968   1.241   7.145  0.5227 -0.3666  2.0370
 8258SOL     OW26015   4.394   2.778   0.265  0.3509  0.1949  0.2931
 8258SOL    HW126016   4.313   2.817   0.235  0.7859  0.1488 -0.9640
 8258SOL    HW226017   4.463   2.832   0.227  0.9220  0.9094  2.2547
 8259SOL     OW26018   3.648   4.105   4.404 -0.0074 -0.1430 -0.5649
 8259SOL    HW126019   3.691   4.164   4.466  0.8201 -1.9479  0.5967
 8259SOL    HW226020   3.555   4.129   4.410 -0.0824 -0.9647  2.1431
 8260SOL     OW26021   0.727   5.696   2.479  0.4773 -0.2384  0.4989
 8260SOL    HW126022   0.722   5.639   2.556  2.0015  0.6583  1.2940
 8260SOL    HW226023   0.803   5.752   2.496  0.3370  0.5236 -1.2907
 8261SOL     OW26024   4.556   3.427   3.213 -0.5761  0.0399 -0.3719
 8261SOL    HW126025   4.566   3.422   3.117  0.9962 -3.1042 -0.1178
 8261SOL    HW226026   4.636   3.470   3.243  0.5640 -2.0821 -0.2616
 8262SOL     OW26027   6.521   0.341   1.680  0.0813 -0.4139 -0.4426
 8262SOL    HW126028   6.466   0.279   1.633  0.0674  0.3419 -1.4372
 8262SOL    HW226029   6.520   0.420   1.626  0.0512  0.4747  0.8330
 8263SOL     OW26030   0.569   4.380   3.483 -0.0207 -0.1215  0.2057
 8263SOL    HW126031   0.563   4.308   3.420 -1.3601  1.4583 -1.5045
 8263SOL    HW226032   0.663   4.392   3.496  0.2453 -1.2467 -0.5720
 8264SOL     OW26033   0.027   4.084   2.709 -0.3950 -0.0078  0.4824
 8264SOL    HW126034   0.060   4.156   2.655  0.5276 -0.8332 -0.0763
 8264SOL    HW226035   0.088   4.079   2.783  0.2368 -0.9623 -0.0913
 8265SOL     OW26036   6.718   3.524   4.764 -0.1327  0.7299  0.1514
 8265SOL    HW126037   6.788   3.462   4.741 -1.2450 -0.0985 -1.0951
 8265SOL    HW226038   6.730   3.596   4.703  0.9694  1.6164  1.3958
 8266SOL     OW26039   5.204   2.824   6.867 -0.6317 -0.3048  0.4929
 8266SOL    HW126040   5.119   2.808   6.826  0.1377 -0.6128 -1.0107
 8266SOL    HW226041   5.195   2.789   6.955 -1.6983 -1.3613 -0.0252
 8267SOL     OW26042   4.659   1.733   2.818 -0.6154 -0.1480 -0.1809
 8267SOL    HW126043   4.598   1.702   2.885 -1.2510  0.6536 -0.3677
 8267SOL    HW226044   4.615   1.714   2.735  0.2038 -1.2075 -0.3704
 8268SOL     OW26045   4.950   6.740   5.850  0.2267 -0.1595 -0.4352
 8268SOL    HW126046   4.911   6.685   5.919 -0.4595  1.9324  0.8910
 8268SOL    HW226047   5.035   6.766   5.887 -0.1722  1.0217 -0.3503
 8269SOL     OW26048   7.785   5.484   3.353 -0.5583 -0.0808 -0.3609
 8269SOL    HW126049   7.812   5.575   3.365 -0.9334  0.1984 -1.6390
 8269SOL    HW226050   7.768   5.475   3.259  0.6850 -1.8048 -0.4545
 8270SOL     OW26051   8.040   0.929   6.680 -0.4591  0.7353 -0.1313
 8270SOL    HW126052   8.060   0.835   6.672 -1.3420  0.3507  1.9369
 8270SOL    HW226053   8.106   0.962   6.741 -2.1983  0.7410  1.8033
 8271SOL     OW26054   5.433   5.715   2.415 -0.1749 -0.7776 -0.2058
 8271SOL    HW126055   5.380   5.657   2.360 -1.3479 -0.3832  0.5122
 8271SOL    HW226056   5.523   5.686   2.400 -0.4976 -0.8600 -2.1344
 8272SOL     OW26057   7.499   1.646   3.282  0.0649 -0.2694  0.5929
 8272SOL    HW126058   7.558   1.576   3.252 -0.5587 -0.4196 -0.3139
 8272SOL    HW226059   7.556   1.722   3.295  0.1050  0.4884 -3.2462
 8273SOL     OW26060   2.736   6.396   3.327 -0.2950  0.2585 -0.5347
 8273SOL    HW126061   2.788   6.379   3.406  0.1993 -1.6917 -1.2264
 8273SOL    HW226062   2.743   6.314   3.277 -1.1631  1.2260 -2.2701
 8274SOL     OW26063   2.801   5.821   2.272 -0.2060 -0.0750 -0.0630
 8274SOL    HW126064   2.804   5.848   2.364 -1.6201  0.1758 -0.0689
 8274SOL    HW226065   2.747   5.742   2.272 -0.7825  0.3075 -0.7468
 8275SOL     OW26066   7.624   2.877   6.177  0.8193 -0.8320  0.1025
 8275SOL    HW126067   7.590   2.789   6.191 -1.5377  0.0776  0.4721
 8275SOL    HW226068   7.612   2.921   6.262 -0.3407  0.5357 -0.7384
 8276SOL     OW26069   3.098   1.018   3.815  0.2075  0.1706  0.0498
 8276SOL    HW126070   3.174   0.965   3.838  0.6811  1.0248  0.4946
 8276SOL    HW226071   3.081   1.071   3.893 -0.4326  0.4671 -0.2853
 8277SOL     OW26072   5.655   0.733   4.213 -0.0018 -0.0372 -0.4329
 8277SOL    HW126073   5.712   0.658   4.196 -1.8507 -1.3108 -1.1854
 8277SOL    HW226074   5.575   0.695   4.250 -1.0626  1.5306 -1.0323
 8278SOL     OW26075   2.741   3.556   7.559  0.0754 -0.4992  0.5206
 8278SOL    HW126076   2.710   3.547   7.469 -2.0398 -1.6988  1.3206
 8278SOL    HW226077   2.677   3.615   7.600 -0.0701 -1.4350  1.6928
 8279SOL     OW26078   2.227   6.224   7.669 -0.1816  0.0353  0.1363
 8279SOL    HW126079   2.244   6.190   7.757 -0.1014  0.6819  0.3721
 8279SOL    HW226080   2.135   6.251   7.671 -0.4607 -0.8737 -0.2859
 8280SOL     OW26081   5.410   1.190   7.049 -0.4374 -0.1414  0.2303
 8280SOL    HW126082   5.372   1.193   7.137 -0.2847  1.2729  0.2635
 8280SOL    HW226083   5.336   1.200   6.990 -0.5602 -1.2632  0.1780
 8281SOL     OW26084   8.020   1.542   3.681 -0.4529  0.4092  0.2713
 8281SOL    HW126085   8.088   1.490   3.637 -0.6648  1.1657 -0.9516
 8281SOL    HW226086   7.938   1.498   3.659 -0.3364 -0.9970  2.4291
 8282SOL     OW26087   4.823   1.943   8.188 -0.0499  0.5614 -0.4885
 8282SOL    HW126088   4.884   1.920   8.258 -0.4005  1.2257  0.0410
 8282SOL    HW226089   4.875   1.938   8.108  0.4344  0.1134 -0.1496
 8283SOL     OW26090   0.389   6.334   5.240 -0.9751 -0.0404 -0.7523
 8283SOL    HW126091   0.396   6.305   5.148 -1.9030 -2.1502 -0.1836
 8283SOL    HW226092   0.435   6.266   5.289  1.0409  1.9556  0.2504
 8284SOL     OW26093   3.444   3.331   6.118  0.0471  0.0603  0.3533
 8284SOL    HW126094   3.382   3.275   6.072 -0.0901  0.2200  0.3418
 8284SOL    HW226095   3.528   3.317   6.073 -0.0706  0.1612  0.0971
 8285SOL     OW26096   5.412   6.280   3.529 -0.2799 -0.2787 -0.0039
 8285SOL    HW126097   5.481   6.318   3.583  0.2803 -0.9703 -0.2310
 8285SOL    HW226098   5.344   6.348   3.526  0.1427  0.1816  0.6826
 8286SOL     OW26099   0.443   1.623   6.502 -0.0343 -0.4712  0.4572
 8286SOL    HW126100   0.487   1.703   6.530 -1.7013  0.8282 -0.5295
 8286SOL    HW226101   0.479   1.605   6.415  1.3625 -1.6091  1.2455
 8287SOL     OW26102   3.621   1.118   6.293  0.0518 -0.0217  0.6855
 8287SOL    HW126103   3.579   1.075   6.218  0.4549  1.4237 -0.3897
 8287SOL    HW226104   3.624   1.210   6.269  0.1321  0.4658  2.5311
 8288SOL     OW26105   1.477   1.327   7.329  0.0857 -0.1695  0.0555
 8288SOL    HW126106   1.541   1.378   7.279 -1.1871 -0.4621 -1.9466
 8288SOL    HW226107   1.528   1.257   7.370  1.2825  0.5539 -0.1812
 8289SOL     OW26108   4.107   3.651   5.336  0.0634  0.1834 -0.0987
 8289SOL    HW126109   4.028   3.606   5.307  1.1759 -0.9316 -1.4637
 8289SOL    HW226110   4.132   3.706   5.262 -0.7215  2.3586  1.1869
 8290SOL     OW26111   6.446   3.482   5.521 -0.3919  0.0195 -0.0340
 8290SOL    HW126112   6.482   3.395   5.504 -3.5614 -2.0481  2.9365
 8290SOL    HW226113   6.492   3.512   5.599 -1.6488 -0.5493  0.9538
 8291SOL     OW26114   6.920   0.076   3.884 -0.8013  0.5140  0.0913
 8291SOL    HW126115   6.997   0.064   3.941  0.3259  0.7908 -1.3488
 8291SOL    HW226116   6.940   0.023   3.807 -2.0123  0.7162 -0.3593
 8292SOL     OW26117   6.106   3.825   4.651 -0.4369  0.4587 -0.0529
 8292SOL    HW126118   6.119   3.874   4.733 -0.7883  2.8379 -1.3670
 8292SOL    HW226119   6.012   3.830   4.635 -0.3074  0.3786 -0.8317
 8293SOL     OW26120   7.759   2.827   5.897  0.1533 -0.0643  0.5044
 8293SOL    HW126121   7.796   2.906   5.856  2.5324 -1.4700 -0.1720
 8293SOL    HW226122   7.779   2.837   5.990  0.2417  0.2486  0.4546
 8294SOL     OW26123   6.050   3.091   3.055 -0.6525  0.2848  0.1905
 8294SOL    HW126124   6.065   3.066   2.963  1.7936 -0.4117  0.7365
 8294SOL    HW226125   5.967   3.138   3.053 -1.9235 -1.9201 -1.9754
 8295SOL     OW26126   1.089   1.753   5.262  0.4792  0.3142  0.1549
 8295SOL    HW126127   1.045   1.738   5.346 -0.4924  1.0021 -0.2252
 8295SOL    HW226128   1.068   1.843   5.240  2.4242  0.7938  0.1478
 8296SOL     OW26129   3.768   3.260   4.214  0.6486  0.0185 -0.2160
 8296SOL    HW126130   3.852   3.295   4.186  0.6821 -0.2585 -0.4569
 8296SOL    HW226131   3.725   3.334   4.258  1.9506 -0.4689  1.9437
 8297SOL     OW26132   1.929   0.381   0.178 -0.3140  0.8362  0.0091
 8297SOL    HW126133   1.931   0.344   0.089 -0.7740  2.5941 -0.7625
 8297SOL    HW226134   1.970   0.315   0.233  1.0193  0.1959 -1.7047
 8298SOL     OW26135   5.989   0.017   8.183 -0.0324 -0.1267  0.2533
 8298SOL    HW126136   5.951  -0.003   8.097 -0.4949  1.5355  0.0636
 8298SOL    HW226137   6.070  -0.034   8.186 -1.3075 -2.2489 -0.1067
 8299SOL     OW26138   7.809   5.289   2.557 -0.1659  0.6284 -0.4476
 8299SOL    HW126139   7.775   5.373   2.589  0.4850  1.2344 -1.3209
 8299SOL    HW226140   7.867   5.259   2.627 -2.2583 -0.2919  0.9475
 8300SOL     OW26141   7.951   0.256   0.413  0.0671 -0.2542  0.2710
 8300SOL    HW126142   7.862   0.224   0.419 -0.4074  1.1338  0.8751
 8300SOL    HW226143   8.002   0.200   0.471 -0.6032 -0.3932  0.7258
 8301SOL     OW26144   7.942   0.181   7.186 -0.4384  0.0212  0.6649
 8301SOL    HW126145   7.989   0.249   7.139 -1.0002  0.4742  0.7528
 8301SOL    HW226146   7.924   0.219   7.273 -1.5028  0.0978  0.4231
 8302SOL     OW26147   8.060   0.891   8.237 -0.1655  0.1577  0.4962
 8302SOL    HW126148   8.085   0.872   8.147 -1.3249 -0.9835  0.4077
 8302SOL    HW226149   8.047   0.986   8.239 -0.0256  0.1947 -0.5073
 8303SOL     OW26150   5.935   4.014   8.022 -0.1813 -0.7387 -0.0758
 8303SOL    HW126151   5.928   3.931   8.068 -0.2140 -0.9505 -0.4636
 8303SOL    HW226152   5.900   4.079   8.084  0.2738 -0.9483  0.4002
 8304SOL     OW26153   6.375   6.983   4.470  0.2145 -0.4485 -0.1461
 8304SOL    HW126154   6.465   7.002   4.443  0.0299 -1.2585 -1.3643
 8304SOL    HW226155   6.372   6.888   4.475 -0.8742 -0.4734 -1.1825
 8305SOL     OW26156   1.840   1.157   2.624 -0.1980  0.1661  0.5466
 8305SOL    HW126157   1.782   1.130   2.696  1.1222 -1.0520  1.1797
 8305SOL    HW226158   1.781   1.195   2.559 -1.8691 -2.2253  0.6014
 8306SOL     OW26159   1.114   4.327   2.846 -0.0116 -0.2784 -0.3665
 8306SOL    HW126160   1.088   4.268   2.917 -0.7316  1.7022  1.0381
 8306SOL    HW226161   1.114   4.414   2.886 -1.6564  1.0350 -3.1170
 8307SOL     OW26162   5.907   4.984   5.390 -0.0476  0.2607 -0.1401
 8307SOL    HW126163   5.980   5.033   5.428 -0.5202  1.2380 -0.4760
 8307SOL    HW226164   5.844   5.051   5.366 -0.0023 -0.3922 -2.1290
 8308SOL     OW26165   1.923   3.594   4.228  0.5980 -0.5259 -0.0239
 8308SOL    HW126166   2.017   3.613   4.226  0.5153 -0.0306  0.8333
 8308SOL    HW226167   1.881   3.679   4.233  0.0969 -0.7450 -0.5060
 8309SOL     OW26168   2.831   4.981   2.576  0.2018 -0.0434  0.3055
 8309SOL    HW126169   2.794   4.962   2.663  0.9045  1.4986  0.9465
 8309SOL    HW226170   2.754   4.993   2.521 -0.3142  2.7768  1.5626
 8310SOL     OW26171   5.809   3.032   4.626 -0.7050 -0.1464  0.5065
 8310SOL    HW126172   5.884   3.010   4.571 -2.1839  0.3165 -1.7493
 8310SOL    HW226173   5.808   3.128   4.629 -0.5337 -0.1667  1.5020
 8311SOL     OW26174   4.960   0.384   5.960 -0.2701 -0.0218  0.0918
 8311SOL    HW126175   4.948   0.430   6.043 -0.3744  0.7275 -0.3392
 8311SOL    HW226176   4.873   0.386   5.919  0.3583  1.8760 -1.2053
 8312SOL     OW26177   1.183   4.086   2.409  0.5146 -0.6604 -0.5727
 8312SOL    HW126178   1.135   4.099   2.327 -0.3732 -1.6931 -0.2265
 8312SOL    HW226179   1.221   4.172   2.429 -0.8326  0.0656 -1.0802
 8313SOL     OW26180   3.043   6.687   0.127  0.5934 -0.0528 -0.0740
 8313SOL    HW126181   3.012   6.620   0.188  0.6927 -0.4269 -0.4296
 8313SOL    HW226182   3.101   6.742   0.180 -1.8430  1.5774  0.9806
 8314SOL     OW26183   1.479   1.841   2.356 -0.1485  0.0699  0.2954
 8314SOL    HW126184   1.560   1.861   2.404 -0.3129 -0.0324  0.6122
 8314SOL    HW226185   1.454   1.924   2.316  1.0927 -0.2887 -1.2768
 8315SOL     OW26186   3.633   4.585   5.805  0.0483  0.3296 -0.0244
 8315SOL    HW126187   3.640   4.593   5.900 -0.3343 -2.0335  0.2135
 8315SOL    HW226188   3.702   4.642   5.771  0.8547  0.3855  1.6801
 8316SOL     OW26189   0.472   2.726   6.696  0.2570 -0.2276 -0.0596
 8316SOL    HW126190   0.505   2.637   6.708 -1.3204 -1.2090 -2.5103
 8316SOL    HW226191   0.548   2.777   6.670  0.8092 -1.3461 -0.6770
 8317SOL     OW26192   2.646   1.359   4.278 -0.0416  0.2188  0.2500
 8317SOL    HW126193   2.560   1.384   4.246 -0.3614 -0.7735  0.3394
 8317SOL    HW226194   2.629   1.309   4.358  0.6331  0.3385  0.4771
 8318SOL     OW26195   3.766   4.276   1.177  0.0478 -0.1077 -0.2566
 8318SOL    HW126196   3.815   4.220   1.117 -1.4987 -1.8625  0.0719
 8318SOL    HW226197   3.699   4.218   1.215 -1.3073  1.8552  0.4270
 8319SOL     OW26198   0.701   4.324   0.483  0.0940  0.1972  0.2658
 8319SOL    HW126199   0.647   4.326   0.562 -0.7116  0.4181 -0.2824
 8319SOL    HW226200   0.693   4.412   0.446 -2.0019 -0.7499 -1.6814
 8320SOL     OW26201   0.288   6.624   3.500 -0.2141  0.1112 -0.4042
 8320SOL    HW126202   0.287   6.549   3.441 -0.7364 -0.0265 -0.2240
 8320SOL    HW226203   0.366   6.611   3.554  3.3408  2.9515 -4.4959
 8321SOL     OW26204   3.718   0.161   0.941  0.0986  0.5162  0.6018
 8321SOL    HW126205   3.671   0.170   0.858  0.9325  0.0481  0.0685
 8321SOL    HW226206   3.801   0.122   0.917 -0.1567 -0.8227  1.8120
 8322SOL     OW26207   2.182   3.738   7.178 -0.0356 -0.3676  0.2522
 8322SOL    HW126208   2.266   3.734   7.224 -0.4657 -0.8022  0.9992
 8322SOL    HW226209   2.165   3.648   7.150  0.2921 -0.0831 -0.8965
 8323SOL     OW26210   0.520   6.336   7.269 -0.3013 -0.1191 -0.1688
 8323SOL    HW126211   0.571   6.340   7.349  0.1642 -1.8779 -0.3458
 8323SOL    HW226212   0.571   6.386   7.205  0.0988 -0.0089  0.2378
 8324SOL     OW26213   6.693   3.253   2.349  0.2275  0.2504  0.1713
 8324SOL    HW126214   6.610   3.207   2.364  1.2493 -1.5062  0.6253
 8324SOL    HW226215   6.713   3.293   2.434  0.7558 -0.8762  0.5863
 8325SOL     OW26216   4.810   4.716   3.186 -0.7555 -0.1289 -0.5189
 8325SOL    HW126217   4.738   4.708   3.248 -2.5257 -1.4555 -2.6750
 8325SOL    HW226218   4.808   4.808   3.159 -0.9995  0.0729  0.1817
 8326SOL     OW26219   5.840   0.572   8.218  0.1604  0.4330 -0.1144
 8326SOL    HW126220   5.747   0.593   8.211  0.3472  2.1521  2.0363
 8326SOL    HW226221   5.844   0.476   8.216 -1.4900  0.3728 -1.7342
 8327SOL     OW26222   2.050   7.220   2.843 -0.2716 -0.1366  0.2704
 8327SOL    HW126223   2.136   7.184   2.822  0.1487  0.5458  0.7895
 8327SOL    HW226224   2.064   7.315   2.844 -0.9076 -0.0443  0.8892
 8328SOL     OW26225   0.474   1.774   5.290  0.2931 -0.3286  0.0894
 8328SOL    HW126226   0.558   1.730   5.303  0.3202  0.1899  1.7565
 8328SOL    HW226227   0.421   1.748   5.365 -1.3433 -1.3077 -1.3787
 8329SOL     OW26228   1.575   4.462   4.970  0.0990 -0.3065  0.1754
 8329SOL    HW126229   1.634   4.443   4.898  1.5692  0.9771  1.0080
 8329SOL    HW226230   1.546   4.551   4.955 -0.0248 -0.2267  0.8548
 8330SOL     OW26231   7.128   4.945   8.220  0.3598 -0.2698  0.0526
 8330SOL    HW126232   7.181   4.868   8.239  1.1119  0.3060  0.2847
 8330SOL    HW226233   7.190   5.018   8.216 -0.5283  0.5995  1.4994
 8331SOL     OW26234   7.671   1.382   7.312  0.1924  0.2876  0.3033
 8331SOL    HW126235   7.683   1.466   7.357  1.0368  0.4114 -0.1329
 8331SOL    HW226236   7.760   1.350   7.298 -0.1386 -0.9429  0.9413
 8332SOL     OW26237   2.111   3.544   4.553  0.7666  0.2188  0.0621
 8332SOL    HW126238   2.121   3.616   4.615  1.7079 -0.0510  0.2254
 8332SOL    HW226239   2.029   3.501   4.580 -0.3364  1.8006 -0.6531
 8333SOL     OW26240   6.221   6.802   5.358  0.3165 -0.0456 -0.1066
 8333SOL    HW126241   6.180   6.857   5.292  0.9517 -2.3198 -2.4972
 8333SOL    HW226242   6.313   6.798   5.332  1.0092  0.6430  2.1028
 8334SOL     OW26243   1.551   8.093   2.677  0.4654 -0.2895 -0.6619
 8334SOL    HW126244   1.537   8.185   2.698  0.9394 -0.9151  2.8652
 8334SOL    HW226245   1.464   8.058   2.659  0.0581  0.4672 -0.1701
 8335SOL     OW26246   2.008   2.587   2.032 -0.3927  0.0167  0.3592
 8335SOL    HW126247   1.948   2.555   2.099 -0.5462  0.9326  0.6671
 8335SOL    HW226248   1.955   2.594   1.953 -0.9138  1.6746  0.8474
 8336SOL     OW26249   7.445   4.697   0.853  0.1987 -0.1901 -0.1350
 8336SOL    HW126250   7.427   4.638   0.926  2.4368 -0.8869 -0.1178
 8336SOL    HW226251   7.407   4.653   0.777 -0.8496 -0.1527  0.3510
 8337SOL     OW26252   8.221   7.728   5.286 -0.0333 -0.3251 -0.1393
 8337SOL    HW126253   8.244   7.804   5.340 -1.9065 -0.0995  0.3588
 8337SOL    HW226254   8.189   7.767   5.204 -0.8834 -0.5836  0.0709
 8338SOL     OW26255   5.265   4.298   2.745 -0.4093  0.3955  0.1559
 8338SOL    HW126256   5.344   4.250   2.718  0.8464  2.4961 -0.0083
 8338SOL    HW226257   5.234   4.341   2.666 -1.2899  0.2057  0.3916
 8339SOL     OW26258   4.794   1.580   0.845  0.4217  0.1564  0.0243
 8339SOL    HW126259   4.851   1.503   0.844  0.4535  0.1801 -0.0898
 8339SOL    HW226260   4.775   1.595   0.937 -1.7833 -1.5955 -0.0954
 8340SOL     OW26261   4.166   4.627   6.308 -0.1306  0.5020  0.3441
 8340SOL    HW126262   4.171   4.722   6.298 -1.6677  0.3574 -2.0036
 8340SOL    HW226263   4.076   4.604   6.282  0.6237 -1.7403 -0.4132
 8341SOL     OW26264   1.053   1.870   3.579 -0.2397 -0.2513  0.1711
 8341SOL    HW126265   1.121   1.915   3.529 -0.5906  0.1720  0.0751
 8341SOL    HW226266   1.032   1.930   3.651 -0.1283 -0.6170  0.5134
 8342SOL     OW26267   7.167   1.479   0.437 -0.3458  0.6868 -0.0450
 8342SOL    HW126268   7.163   1.397   0.387 -0.6290 -0.6389  2.0801
 8342SOL    HW226269   7.097   1.533   0.401  0.8293  0.6263 -2.5269
 8343SOL     OW26270   4.308   7.781   8.025  0.1038  0.3144  0.0824
 8343SOL    HW126271   4.225   7.826   8.012  0.1729  0.2149 -0.7453
 8343SOL    HW226272   4.311   7.716   7.955  0.4430 -0.3290  0.6895
 8344SOL     OW26273   1.370   5.068   7.462  0.6500 -0.6602  0.0159
 8344SOL    HW126274   1.359   5.029   7.549 -0.0324  0.0118  0.2275
 8344SOL    HW226275   1.353   4.996   7.401  1.3467 -1.1876  0.4312
 8345SOL     OW26276   7.488   3.383   3.946  0.2816  0.3492 -0.0056
 8345SOL    HW126277   7.444   3.356   3.865  0.7378 -2.7811  0.7499
 8345SOL    HW226278   7.446   3.466   3.969 -0.7837  0.6092 -2.7265
 8346SOL     OW26279   7.537   1.153   0.175 -0.7019 -0.0213 -0.0795
 8346SOL    HW126280   7.630   1.137   0.186 -0.8575 -0.3450  0.8391
 8346SOL    HW226281   7.519   1.229   0.231 -1.0009  0.0022 -0.2068
 8347SOL     OW26282   5.216   4.827   0.560 -0.3134  0.2578  0.2548
 8347SOL    HW126283   5.162   4.795   0.632  0.3744  0.5146  0.8780
 8347SOL    HW226284   5.305   4.799   0.580 -0.0205  0.8409 -0.1900
 8348SOL     OW26285   2.559   1.064   5.671  0.6753  0.2945 -0.1585
 8348SOL    HW126286   2.534   1.076   5.763 -0.5819 -0.1859 -0.4240
 8348SOL    HW226287   2.639   1.012   5.675 -0.0318 -0.7496  0.6361
 8349SOL     OW26288   2.883   1.723   0.319  0.7317 -0.8398  0.1931
 8349SOL    HW126289   2.845   1.668   0.387  0.0914 -1.4794 -0.6718
 8349SOL    HW226290   2.812   1.736   0.256  1.3050 -0.2174 -0.3318
 8350SOL     OW26291   4.131   4.894   5.150 -0.0652 -0.0860  0.0634
 8350SOL    HW126292   4.110   4.805   5.122  0.6858 -0.9268  2.0781
 8350SOL    HW226293   4.080   4.906   5.230  0.1347  1.1725  0.0071
 8351SOL     OW26294   5.097   0.574   1.152  0.4340  0.1091 -0.0384
 8351SOL    HW126295   5.179   0.608   1.116 -0.4964  2.3220 -0.1313
 8351SOL    HW226296   5.084   0.623   1.233  0.4341 -1.9643  1.2449
 8352SOL     OW26297   5.911   5.819   4.220 -0.1119  0.1504  0.0018
 8352SOL    HW126298   5.856   5.898   4.215  1.3849  1.1273 -1.7758
 8352SOL    HW226299   5.973   5.829   4.148  2.0697 -1.1796  1.6580
 8353SOL     OW26300   0.131   0.860   2.234 -0.2796  0.1632 -0.5357
 8353SOL    HW126301   0.041   0.893   2.237 -0.9730 -1.7102  4.0857
 8353SOL    HW226302   0.131   0.799   2.160 -2.9605 -0.0252 -0.4530
 8354SOL     OW26303   7.097   3.742   6.448 -0.0048 -0.2698 -0.2718
 8354SOL    HW126304   7.190   3.745   6.471  0.0392  1.1395 -0.5791
 8354SOL    HW226305   7.082   3.824   6.401 -1.7916  0.3088  1.2602
 8355SOL     OW26306   1.625   3.889   6.697  0.3710 -0.5246 -0.2669
 8355SOL    HW126307   1.616   3.809   6.748 -1.6080  0.7846  1.5403
 8355SOL    HW226308   1.559   3.948   6.733  1.3111  1.6877 -2.0227
 8356SOL     OW26309   2.519   3.171   0.396 -0.9104  0.4919  0.0869
 8356SOL    HW126310   2.513   3.099   0.459  0.6063 -1.3204 -1.7614
 8356SOL    HW226311   2.443   3.161   0.339 -1.1855  0.9058  0.3783
 8357SOL     OW26312   4.174   7.724   0.103  0.1677 -0.3201 -0.6731
 8357SOL    HW126313   4.238   7.794   0.106 -0.8367  0.6138 -0.5321
 8357SOL    HW226314   4.222   7.645   0.130  1.3567  0.2651 -1.0937
 8358SOL     OW26315   6.972   0.754   4.454  0.5958 -0.0248 -0.5741
 8358SOL    HW126316   7.041   0.766   4.520  0.7268 -0.5033 -0.6207
 8358SOL    HW226317   7.018   0.766   4.371  0.2428  1.5024 -0.5564
 8359SOL     OW26318   1.490   5.415   2.673  0.0876 -0.0193 -0.3428
 8359SOL    HW126319   1.516   5.498   2.633 -1.7112  0.7817  0.1018
 8359SOL    HW226320   1.525   5.418   2.762 -1.0525  0.8100  0.0778
 8360SOL     OW26321   5.744   7.364   7.697  0.2397 -0.6322 -0.2295
 8360SOL    HW126322   5.712   7.332   7.782 -0.4887  1.6406  0.3728
 8360SOL    HW226323   5.735   7.459   7.701  1.9194 -0.3421 -2.1811
 8361SOL     OW26324   7.738   2.560   0.438 -0.0813 -0.1883 -0.3137
 8361SOL    HW126325   7.742   2.584   0.530  1.1739  0.5792 -0.5498
 8361SOL    HW226326   7.787   2.478   0.432  1.5896  0.8117 -0.6087
 8362SOL     OW26327   2.509   3.469   3.667 -0.3681  0.1180  0.4357
 8362SOL    HW126328   2.422   3.508   3.666  0.0254  1.0270 -2.0639
 8362SOL    HW226329   2.568   3.542   3.685  0.1406  0.2354 -1.5308
 8363SOL     OW26330   3.246   6.254   7.928  0.0368  1.3628 -0.1863
 8363SOL    HW126331   3.203   6.177   7.966 -0.0345  0.9092 -1.1597
 8363SOL    HW226332   3.290   6.296   8.002 -2.8885  2.4027  1.0188
 8364SOL     OW26333   7.315   7.063   6.794 -0.8284  0.2645  0.0805
 8364SOL    HW126334   7.408   7.081   6.808 -0.5114 -1.5212  0.4513
 8364SOL    HW226335   7.313   6.997   6.725 -1.8367  0.4231 -0.0503
 8365SOL     OW26336   6.937   1.414   5.430  0.4379 -0.4029 -0.3900
 8365SOL    HW126337   6.888   1.362   5.366  0.4230 -2.1792  1.0292
 8365SOL    HW226338   6.925   1.504   5.401 -1.5962 -0.9950 -1.5101
 8366SOL     OW26339   1.535   5.603   2.475  0.1214 -0.1087  0.0408
 8366SOL    HW126340   1.478   5.651   2.415 -0.8101  0.7149  1.5682
 8366SOL    HW226341   1.548   5.518   2.432 -2.5634 -0.4677 -0.1994
 8367SOL     OW26342   6.431   5.081   3.573  0.3307 -0.1931  0.0564
 8367SOL    HW126343   6.363   5.104   3.637 -0.3846 -1.1214 -0.3556
 8367SOL    HW226344   6.424   5.148   3.505 -1.1765 -1.0919 -0.7176
 8368SOL     OW26345   5.964   2.163   3.899 -0.2995 -0.1650 -0.1396
 8368SOL    HW126346   5.936   2.238   3.845 -0.1058 -0.5653 -0.7904
 8368SOL    HW226347   5.998   2.203   3.979 -3.6148  0.3432  1.1076
 8369SOL     OW26348   5.910   4.320   2.419 -0.2058  0.0771 -0.4812
 8369SOL    HW126349   5.994   4.312   2.375  0.0654  1.2938 -0.2162
 8369SOL    HW226350   5.906   4.412   2.447 -1.1431 -0.2334  0.4570
 8370SOL     OW26351   3.604   3.818   1.814  0.0745 -0.0991  0.4079
 8370SOL    HW126352   3.590   3.768   1.895  0.2358  0.0798  0.5464
 8370SOL    HW226353   3.699   3.818   1.802  0.0896  0.3463  0.5190
 8371SOL     OW26354   0.953   5.349   4.977  0.0588 -0.4018 -0.0879
 8371SOL    HW126355   1.012   5.424   4.983  1.6567 -1.7219  1.2613
 8371SOL    HW226356   0.887   5.365   5.045  0.9500 -0.6612  0.8618
 8372SOL     OW26357   7.936   3.399   6.020 -0.6579 -0.5735 -0.3257
 8372SOL    HW126358   8.004   3.413   6.085  0.5287  1.7256 -1.9564
 8372SOL    HW226359   7.854   3.409   6.068  0.1867  2.1202  0.6663
 8373SOL     OW26360   0.796   5.457   1.209  0.0175 -0.2867 -0.0106
 8373SOL    HW126361   0.745   5.408   1.144  0.4087 -0.9482  0.1681
 8373SOL    HW226362   0.880   5.472   1.167  0.5958 -1.5235  0.6714
 8374SOL     OW26363   8.185   0.322   3.349  0.2371  0.0786  0.3437
 8374SOL    HW126364   8.121   0.283   3.290 -0.7259 -0.4178  1.6983
 8374SOL    HW226365   8.188   0.263   3.425 -0.1926  1.8296  1.7716
 8375SOL     OW26366   4.083   1.571   3.715  0.2073  0.3374  0.1832
 8375SOL    HW126367   4.088   1.487   3.670  0.3484 -0.0914  0.9976
 8375SOL    HW226368   3.992   1.576   3.746 -0.1960  1.1274 -1.0952
 8376SOL     OW26369   4.287   3.346   5.595 -0.2480 -0.0443 -0.3678
 8376SOL    HW126370   4.306   3.293   5.672 -1.3243 -1.3107 -0.9598
 8376SOL    HW226371   4.194   3.366   5.602  0.1461  1.8457 -0.1225
 8377SOL     OW26372   5.424   7.920   2.538 -0.3296  0.0055  0.0001
 8377SOL    HW126373   5.456   7.995   2.488 -2.2530  0.3519 -0.7701
 8377SOL    HW226374   5.400   7.957   2.623  2.0569 -0.4119  0.8896
 8378SOL     OW26375   1.000   8.008   0.645  0.1391 -0.1124  0.0326
 8378SOL    HW126376   1.043   8.046   0.569 -0.5449  0.2980 -0.1459
 8378SOL    HW226377   1.058   7.936   0.671  0.9429  0.4432 -0.1953
 8379SOL     OW26378   0.188   3.021   5.494  0.2464 -0.0547  0.3795
 8379SOL    HW126379   0.249   2.963   5.540  0.0443  0.0620  0.7931
 8379SOL    HW226380   0.109   3.022   5.548  0.1339  0.3547  0.2125
 8380SOL     OW26381   4.622   6.289   0.396  0.6083 -0.0894  0.4481
 8380SOL    HW126382   4.712   6.302   0.427  0.4888  0.7829  0.4477
 8380SOL    HW226383   4.605   6.196   0.409  1.8330 -0.4415 -0.4073
 8381SOL     OW26384   0.003   6.967   1.835  0.3531  0.6103 -0.5272
 8381SOL    HW126385   0.096   6.947   1.838  0.7118  2.2119 -0.3532
 8381SOL    HW226386  -0.006   7.047   1.886 -0.9323  1.1062 -1.4905
 8382SOL     OW26387   7.038   7.583   4.567 -0.3362  0.5793  0.4931
 8382SOL    HW126388   7.095   7.526   4.515 -1.3223 -1.1069  1.2303
 8382SOL    HW226389   7.081   7.668   4.565  1.9873 -0.5710  0.7029
 8383SOL     OW26390   7.062   4.031   2.789  0.2217 -0.2976 -0.9892
 8383SOL    HW126391   7.143   4.073   2.817 -0.9948  0.3588  1.7866
 8383SOL    HW226392   7.083   3.937   2.786  1.2961 -0.0567 -1.1496
 8384SOL     OW26393   8.144   3.096   1.847 -0.1797  0.4977 -0.3302
 8384SOL    HW126394   8.208   3.026   1.833  0.6780  0.8846  1.4102
 8384SOL    HW226395   8.060   3.051   1.852  0.0449 -0.1193 -1.7710
 8385SOL     OW26396   2.496   0.369   0.564 -0.1736 -0.2645 -0.3682
 8385SOL    HW126397   2.427   0.303   0.561 -0.6560  0.1850  0.5753
 8385SOL    HW226398   2.553   0.342   0.636 -0.3805  0.3404  0.0341
 8386SOL     OW26399   6.965   6.422   0.066 -0.4655 -0.5669  0.3324
 8386SOL    HW126400   6.903   6.363   0.023 -0.8594  0.2647 -0.2641
 8386SOL    HW226401   6.927   6.509   0.054  0.8712 -0.0414 -0.1293
 8387SOL     OW26402   2.210   6.868   2.037  0.2831 -0.6747  0.2825
 8387SOL    HW126403   2.269   6.903   1.970 -0.8865 -1.0867 -0.9924
 8387SOL    HW226404   2.131   6.843   1.988 -0.0670 -2.2472  1.6283
 8388SOL     OW26405   7.465   5.398   4.947 -0.0283  0.5130  0.3579
 8388SOL    HW126406   7.410   5.354   5.011  0.5997 -0.4466  0.2403
 8388SOL    HW226407   7.554   5.388   4.981  0.0202  2.8375  1.0288
 8389SOL     OW26408   7.594   3.278   8.273  0.9814  0.4859 -0.0961
 8389SOL    HW126409   7.654   3.206   8.251  0.1712 -0.0055 -0.7292
 8389SOL    HW226410   7.511   3.254   8.231  0.5127  1.4625  0.2548
 8390SOL     OW26411   2.019   1.316   7.421  0.2682  0.5209 -0.0904
 8390SOL    HW126412   1.994   1.336   7.511 -2.4847 -0.7911 -0.5428
 8390SOL    HW226413   2.011   1.400   7.375 -2.1769  0.4021  0.0583
 8391SOL     OW26414   2.442   7.614   5.353 -0.0281 -0.1116 -0.0784
 8391SOL    HW126415   2.467   7.572   5.435  1.3976  0.5399 -0.1539
 8391SOL    HW226416   2.462   7.707   5.366 -2.1961  0.3979 -0.2633
 8392SOL     OW26417   2.631   4.098   0.375  0.1250 -0.2906 -0.3350
 8392SOL    HW126418   2.622   4.020   0.430 -0.1053  0.4281  0.6604
 8392SOL    HW226419   2.547   4.104   0.328 -0.1070 -0.2655  0.0859
 8393SOL     OW26420   2.325   6.847   6.236  0.6005  0.5903 -0.1971
 8393SOL    HW126421   2.378   6.857   6.157  2.0754 -0.3195  0.6493
 8393SOL    HW226422   2.300   6.754   6.237 -1.2362  1.0563 -0.7125
 8394SOL     OW26423   0.450   6.623   5.383  0.2192 -0.2469  0.0991
 8394SOL    HW126424   0.392   6.548   5.398 -0.4908  0.6027  1.7126
 8394SOL    HW226425   0.468   6.620   5.289  0.3716 -2.5518  0.1661
 8395SOL     OW26426   7.569   2.674   0.943 -0.0332 -0.4275  0.3433
 8395SOL    HW126427   7.480   2.640   0.954 -0.8383  1.2960 -0.5652
 8395SOL    HW226428   7.563   2.766   0.968  0.9177  0.3551 -2.1505
 8396SOL     OW26429   2.640   3.175   1.371 -0.1751  0.1917  0.7257
 8396SOL    HW126430   2.726   3.215   1.384  0.4111 -0.4959 -0.9036
 8396SOL    HW226431   2.643   3.095   1.423 -0.5645  1.1499  2.2550
 8397SOL     OW26432   5.459   2.931   3.158  0.1448  0.8972  0.4093
 8397SOL    HW126433   5.435   2.990   3.229  1.4360  0.9076  0.8463
 8397SOL    HW226434   5.384   2.871   3.150  0.2892  0.4497  2.2604
 8398SOL     OW26435   1.425   7.684   0.740 -0.2322  0.0869  0.5355
 8398SOL    HW126436   1.334   7.715   0.735  0.2335  1.1485 -2.3181
 8398SOL    HW226437   1.468   7.746   0.798 -1.1266  0.0476  1.2660
 8399SOL     OW26438   3.341   7.114   5.093 -0.1280  0.2179  0.2516
 8399SOL    HW126439   3.370   7.116   5.184  1.0496 -0.6471 -0.0934
 8399SOL    HW226440   3.414   7.151   5.043 -0.6463  0.4064 -0.3777
 8400SOL     OW26441   8.178   6.839   0.556 -0.3194 -0.3913  0.4901
 8400SOL    HW126442   8.245   6.857   0.490 -1.4789  4.5588  0.4753
 8400SOL    HW226443   8.218   6.863   0.639 -0.7924 -1.1641  0.9480
 8401SOL     OW26444   6.459   7.065   7.548  0.5376 -0.1697 -0.0488
 8401SOL    HW126445   6.392   7.132   7.563  0.2209 -0.7967  1.5085
 8401SOL    HW226446   6.411   6.991   7.512  0.8069  0.2604 -1.3035
 8402SOL     OW26447   3.955   3.164   3.408  0.1034 -0.0552 -0.1581
 8402SOL    HW126448   4.039   3.161   3.453  1.0284 -0.1126 -1.8519
 8402SOL    HW226449   3.922   3.074   3.413 -0.2491  0.1406  1.2082
 8403SOL     OW26450   5.443   2.131   0.557  0.2795 -0.4678  0.4993
 8403SOL    HW126451   5.515   2.190   0.580 -1.7399  2.4561 -0.4627
 8403SOL    HW226452   5.443   2.129   0.462 -0.7893 -0.6238  0.5003
 8404SOL     OW26453   4.170   1.484   6.899  0.5076  0.7020  0.7949
 8404SOL    HW126454   4.259   1.462   6.927  0.1746 -0.9613  0.5828
 8404SOL    HW226455   4.114   1.421   6.944 -0.4297  0.8203 -0.1918
 8405SOL     OW26456   5.777   7.442   5.708 -0.1466 -0.5368 -0.2717
 8405SOL    HW126457   5.847   7.393   5.752  0.8737  1.4183  0.3138
 8405SOL    HW226458   5.696   7.404   5.742  0.6315 -1.3629  0.6852
 8406SOL     OW26459   3.169   5.377   1.527  0.2313  0.1336  0.2274
 8406SOL    HW126460   3.146   5.461   1.566 -0.8162 -0.0019 -0.0943
 8406SOL    HW226461   3.100   5.317   1.555  0.6964 -0.5009  0.0393
 8407SOL     OW26462   0.279   7.294   6.343 -0.1750  0.4871  0.2227
 8407SOL    HW126463   0.264   7.250   6.259 -2.6641  1.6787  0.0054
 8407SOL    HW226464   0.308   7.382   6.320  0.3567  0.4258  0.6374
 8408SOL     OW26465   1.813   2.821   1.575 -0.0691 -0.6056  0.5829
 8408SOL    HW126466   1.885   2.760   1.556  0.5685 -0.0307  1.1053
 8408SOL    HW226467   1.840   2.903   1.532 -1.2617 -0.8824 -0.7245
 8409SOL     OW26468   5.409   0.988   1.287  0.0352 -0.0536 -0.2973
 8409SOL    HW126469   5.470   1.059   1.307  0.2028 -0.6676  1.5078
 8409SOL    HW226470   5.413   0.979   1.192  2.9529 -0.2432 -0.2174
 8410SOL     OW26471   4.598   2.743   4.304  0.0699  0.2736 -0.2097
 8410SOL    HW126472   4.573   2.746   4.396 -2.5242  0.3055 -0.8711
 8410SOL    HW226473   4.607   2.650   4.284  0.4138  0.2582  0.0154
 8411SOL     OW26474   3.175   7.420   6.234  0.2405 -0.1340  0.2162
 8411SOL    HW126475   3.155   7.349   6.173  2.2122  0.8157 -1.6164
 8411SOL    HW226476   3.215   7.377   6.309 -2.1064 -1.3129  0.8294
 8412SOL     OW26477   0.416   3.611   2.403 -0.1220 -0.0763 -0.1992
 8412SOL    HW126478   0.496   3.590   2.450  0.5774 -1.5533 -2.0011
 8412SOL    HW226479   0.438   3.687   2.348 -0.7367  1.1952  1.2673
 8413SOL     OW26480   5.519   1.445   4.086 -0.1131  0.0198  0.2914
 8413SOL    HW126481   5.596   1.484   4.046 -0.1973 -2.1741 -2.1185
 8413SOL    HW226482   5.445   1.482   4.038 -0.4422  0.3368  1.0328
 8414SOL     OW26483   3.056   6.920   0.308  0.5858 -0.4687 -0.3056
 8414SOL    HW126484   3.064   6.974   0.229  0.8614  1.6762  1.1336
 8414SOL    HW226485   2.966   6.887   0.305  1.1599 -1.9568 -2.4441
 8415SOL     OW26486   5.856   7.281   5.470  0.0998  0.2219  0.0231
 8415SOL    HW126487   5.880   7.357   5.523  0.5977 -1.0956  1.7238
 8415SOL    HW226488   5.939   7.248   5.436  0.0592 -0.4886  0.5916
 8416SOL     OW26489   2.095   3.006   6.542 -0.1829 -0.8816 -0.4045
 8416SOL    HW126490   2.007   2.998   6.505  0.1553 -0.9315 -1.2035
 8416SOL    HW226491   2.101   3.098   6.568  0.8976  0.1202 -3.8890
 8417SOL     OW26492   7.525   1.898   6.435  0.5829 -0.6896  0.5704
 8417SOL    HW126493   7.588   1.829   6.418  0.6855 -0.6904  0.9720
 8417SOL    HW226494   7.501   1.888   6.527  0.0723 -0.6308  0.4474
 8418SOL     OW26495   5.122   1.545   0.179  0.0598  0.3127  0.1932
 8418SOL    HW126496   5.075   1.546   0.262  1.0514 -0.5921  0.7793
 8418SOL    HW226497   5.193   1.481   0.192  0.8346  0.9092 -1.0067
 8419SOL     OW26498   7.743   2.414   1.206 -0.0794  0.1698 -0.5314
 8419SOL    HW126499   7.699   2.438   1.288  1.3702 -2.1946  0.9903
 8419SOL    HW226500   7.835   2.407   1.229  0.5376  0.6456 -2.6837
 8420SOL     OW26501   8.017   3.288   4.429 -0.6918  0.2145  0.2810
 8420SOL    HW126502   7.987   3.203   4.461  2.5408 -1.1103  0.0073
 8420SOL    HW226503   7.961   3.307   4.354 -1.6198 -1.5765  0.5033
 8421SOL     OW26504   2.309   1.330   6.755  0.2099  0.8521 -0.0477
 8421SOL    HW126505   2.326   1.316   6.662  0.2062  2.9572 -0.3977
 8421SOL    HW226506   2.273   1.247   6.786  0.3153  0.0944 -1.9019
 8422SOL     OW26507   6.075   2.578   1.413  0.0955 -0.4250  0.0773
 8422SOL    HW126508   6.080   2.495   1.366  0.6748 -1.0487  1.2135
 8422SOL    HW226509   6.166   2.599   1.434  0.0626  1.1057 -1.2218
 8423SOL     OW26510   6.968   6.183   5.196  0.1545  0.1008 -0.0461
 8423SOL    HW126511   6.873   6.170   5.188 -0.1506  2.6846 -1.1945
 8423SOL    HW226512   6.977   6.252   5.262  1.1966  0.3808 -0.4701
 8424SOL     OW26513   7.398   2.078   5.941  0.3125  0.0051 -0.5049
 8424SOL    HW126514   7.390   1.985   5.961  0.2094  0.4700  1.7742
 8424SOL    HW226515   7.466   2.110   6.000 -1.5363  1.9080  0.7001
 8425SOL     OW26516   4.174   2.404   0.718  0.3648 -0.0503 -0.2365
 8425SOL    HW126517   4.083   2.377   0.729  0.0941  1.4015  1.1902
 8425SOL    HW226518   4.170   2.477   0.655  0.6559 -0.5685 -0.8688
 8426SOL     OW26519   4.347   4.959   0.645  0.1604  0.1144 -0.0722
 8426SOL    HW126520   4.332   5.053   0.635 -1.4930  0.1427  2.2643
 8426SOL    HW226521   4.287   4.919   0.582  0.0404  0.6019 -0.2764
 8427SOL     OW26522   7.640   4.405   5.897 -0.5542 -0.5587  0.5499
 8427SOL    HW126523   7.563   4.348   5.897 -0.0276 -1.2729  1.5095
 8427SOL    HW226524   7.622   4.469   5.966 -1.1504  0.4641 -0.5299
 8428SOL     OW26525   2.070   2.781   1.178  0.2735  0.2281  0.1412
 8428SOL    HW126526   2.083   2.698   1.132 -0.6847  0.0660  0.1643
 8428SOL    HW226527   2.149   2.831   1.158  1.1394 -0.9170  0.6341
 8429SOL     OW26528   3.517   4.311   7.702  0.2655 -0.2722 -0.0189
 8429SOL    HW126529   3.559   4.371   7.763  0.8387 -0.0114 -0.6528
 8429SOL    HW226530   3.481   4.367   7.633 -0.3950 -0.5592  0.0928
 8430SOL     OW26531   2.501   7.079   2.593 -0.0737  0.3570 -0.1403
 8430SOL    HW126532   2.570   7.144   2.600 -0.2816  0.4619  1.1468
 8430SOL    HW226533   2.524   7.012   2.658  0.5167 -1.2230 -1.9497
 8431SOL     OW26534   3.180   7.165   5.459  0.5610  0.3406 -0.3984
 8431SOL    HW126535   3.269   7.158   5.425  0.9822 -0.9931  0.9025
 8431SOL    HW226536   3.130   7.101   5.409  0.2655  1.3080 -1.3399
 8432SOL     OW26537   1.605   4.696   7.075 -0.2923 -0.3858  0.3672
 8432SOL    HW126538   1.586   4.789   7.077 -3.6104 -1.0214  0.0842
 8432SOL    HW226539   1.612   4.675   6.981  1.1565 -0.3045  0.4470
 8433SOL     OW26540   4.506   4.563   7.753  0.3883  0.0006  0.0361
 8433SOL    HW126541   4.595   4.594   7.739  0.5629 -1.3934 -2.1162
 8433SOL    HW226542   4.516   4.483   7.805  0.3579  0.1190  0.2255
 8434SOL     OW26543   0.707   1.877   0.617  0.5858  0.0969  0.4595
 8434SOL    HW126544   0.801   1.858   0.619  0.6781  0.3412 -1.0049
 8434SOL    HW226545   0.688   1.895   0.525 -1.0046 -0.4606  0.6649
 8435SOL     OW26546   4.699   8.122   8.012  0.6339  0.2482 -0.0880
 8435SOL    HW126547   4.611   8.083   8.009 -0.2406  2.1861 -0.8193
 8435SOL    HW226548   4.758   8.049   7.992 -0.8364 -0.9993 -0.0310
 8436SOL     OW26549   3.370   0.297   4.006 -0.5944 -0.3396  0.3176
 8436SOL    HW126550   3.434   0.241   3.961 -2.1713  0.2443 -2.7866
 8436SOL    HW226551   3.410   0.384   4.006 -1.3545  0.0380 -1.6785
 8437SOL     OW26552   7.120   1.081   7.182  0.0842  0.1143 -0.3347
 8437SOL    HW126553   7.040   1.028   7.191 -0.3530  0.9576  1.0046
 8437SOL    HW226554   7.165   1.069   7.266  0.1702  1.5490 -0.1699
 8438SOL     OW26555   3.701   8.096   2.285  0.3761  0.6805 -0.3469
 8438SOL    HW126556   3.666   8.077   2.372 -1.5465  0.5175 -1.1311
 8438SOL    HW226557   3.796   8.089   2.295  0.1525  0.3418  1.6555
 8439SOL     OW26558   0.142   4.620   8.206  0.3912  0.0508 -0.2220
 8439SOL    HW126559   0.084   4.609   8.282 -0.5745 -1.6579 -1.1799
 8439SOL    HW226560   0.220   4.570   8.228 -1.0265 -2.8298 -1.4857
 8440SOL     OW26561   6.538   1.517   8.068 -0.1064  0.3664 -0.0665
 8440SOL    HW126562   6.493   1.508   7.984  0.2773 -1.1931 -0.1174
 8440SOL    HW226563   6.490   1.459   8.127  1.5911 -1.0510 -0.0394
 8441SOL     OW26564   4.669   3.358   5.325  0.3321  0.1920  0.4806
 8441SOL    HW126565   4.683   3.350   5.420 -1.3282 -0.1742  0.7204
 8441SOL    HW226566   4.629   3.444   5.314  0.8775  0.3905  0.0709
 8442SOL     OW26567   4.908   6.260   6.472 -0.0202  0.0679 -0.4407
 8442SOL    HW126568   4.885   6.307   6.553  0.2396  1.3595 -1.1180
 8442SOL    HW226569   4.830   6.207   6.453 -1.0604  1.6802 -0.7215
 8443SOL     OW26570   4.787   0.544   2.923  0.0968  0.3719  0.5157
 8443SOL    HW126571   4.779   0.467   2.979  0.1811  0.5831  0.8216
 8443SOL    HW226572   4.696   0.574   2.912  0.0342  0.0446  0.1337
 8444SOL     OW26573   2.303   0.174   2.020  0.3850 -0.6181  0.4515
 8444SOL    HW126574   2.266   0.092   2.054 -0.1304 -0.1407  1.0686
 8444SOL    HW226575   2.301   0.234   2.095 -2.0617  0.8979 -0.7353
 8445SOL     OW26576   5.178   5.962   8.046 -0.5201 -0.2500 -0.2910
 8445SOL    HW126577   5.261   5.956   7.998 -0.8289 -0.3810 -0.8007
 8445SOL    HW226578   5.187   5.899   8.117 -0.1729 -0.2519 -0.3359
 8446SOL     OW26579   0.839   3.253   6.834 -0.1850 -0.2699 -0.3510
 8446SOL    HW126580   0.784   3.203   6.773 -0.9061 -0.4682  0.4504
 8446SOL    HW226581   0.859   3.334   6.788 -0.6767 -0.4456 -0.8773
 8447SOL     OW26582   7.486   4.968   7.463  0.3699  0.1709 -0.3540
 8447SOL    HW126583   7.422   4.913   7.419  1.4696 -1.2908 -0.1551
 8447SOL    HW226584   7.474   4.949   7.556 -0.3998  1.5525 -0.1555
 8448SOL     OW26585   5.775   7.116   6.773  0.2561  0.6036  0.4662
 8448SOL    HW126586   5.825   7.157   6.703 -0.0801 -1.1198 -0.8269
 8448SOL    HW226587   5.726   7.188   6.813  0.6420  1.6574 -0.9192
 8449SOL     OW26588   3.434   7.286   2.139 -0.2500 -0.4863 -0.0084
 8449SOL    HW126589   3.448   7.378   2.116 -0.6406 -0.5913 -0.6687
 8449SOL    HW226590   3.417   7.242   2.056 -1.9145 -0.8191  0.4682
 8450SOL     OW26591   1.614   2.372   2.972  0.0212  0.5843  0.3471
 8450SOL    HW126592   1.564   2.292   2.958  0.1087  0.3350  1.3794
 8450SOL    HW226593   1.598   2.395   3.064  2.2504  0.1547  0.8870
 8451SOL     OW26594   5.739   2.862   7.705  0.2372 -0.1025  0.4509
 8451SOL    HW126595   5.649   2.883   7.678  0.4426  0.6823  0.3733
 8451SOL    HW226596   5.794   2.904   7.639  0.6945  0.4210  1.1612
 8452SOL     OW26597   4.285   8.045   0.098 -0.5439 -0.0719 -0.1149
 8452SOL    HW126598   4.302   8.136   0.074 -1.4296  0.5151  1.3930
 8452SOL    HW226599   4.353   8.025   0.163 -0.9861 -0.1450  0.3298
 8453SOL     OW26600   5.654   7.613   3.214  0.3405  0.2696 -0.0602
 8453SOL    HW126601   5.727   7.576   3.263  1.3699  1.2776 -0.7976
 8453SOL    HW226602   5.658   7.707   3.232 -1.3248  0.2326  0.6112
 8454SOL     OW26603   3.229   7.521   5.403 -0.2487  0.0878 -0.1215
 8454SOL    HW126604   3.210   7.547   5.493 -0.7518  0.2807 -0.2765
 8454SOL    HW226605   3.225   7.426   5.405 -1.1975  0.1163 -0.1262
 8455SOL     OW26606   6.252   8.178   1.414  0.5283 -0.2185  0.0547
 8455SOL    HW126607   6.286   8.093   1.442  2.9445  0.8130  0.3681
 8455SOL    HW226608   6.304   8.202   1.338 -1.9527 -0.2020 -1.7126
 8456SOL     OW26609   1.050   3.440   7.891  0.1540 -0.5397 -0.3084
 8456SOL    HW126610   1.040   3.359   7.941  1.7870 -0.2797  0.4786
 8456SOL    HW226611   0.976   3.494   7.917  0.9793 -0.4115  1.8632
 8457SOL     OW26612   4.831   5.793   2.513  0.2931 -0.5903  0.1356
 8457SOL    HW126613   4.843   5.823   2.423  0.3732 -0.3682  0.2186
 8457SOL    HW226614   4.908   5.740   2.532  0.7148  0.0999  0.3704
 8458SOL     OW26615   7.458   5.624   0.544 -0.0143  0.0319  0.5016
 8458SOL    HW126616   7.503   5.540   0.538  1.1282  0.6046  0.9770
 8458SOL    HW226617   7.522   5.683   0.585 -1.2176  0.8298  1.2723
 8459SOL     OW26618   1.927   5.825   0.709 -0.4347  0.3682  0.0515
 8459SOL    HW126619   1.931   5.865   0.796  0.0268  1.1620 -0.3383
 8459SOL    HW226620   2.018   5.815   0.683 -0.5317 -1.2710  0.2960
 8460SOL     OW26621   1.902   5.991   6.853  0.2488 -0.4276  0.0960
 8460SOL    HW126622   1.996   6.004   6.866  0.5619 -1.9696 -0.5281
 8460SOL    HW226623   1.875   5.934   6.925 -0.3693  0.5921  0.6897
 8461SOL     OW26624   6.118   2.072   6.840 -0.4285 -0.3527  0.3942
 8461SOL    HW126625   6.129   2.095   6.932  0.2056 -0.2799  0.3010
 8461SOL    HW226626   6.185   2.006   6.824  0.3717  0.6341 -0.3743
 8462SOL     OW26627   3.070   6.705   5.863 -0.4237 -0.7048  0.0266
 8462SOL    HW126628   3.151   6.660   5.885 -0.8834 -0.9305  1.2582
 8462SOL    HW226629   3.032   6.730   5.947 -0.2893  1.8029 -0.6116
 8463SOL     OW26630   5.112   3.983   7.417  0.2887  0.9315 -0.4402
 8463SOL    HW126631   5.126   3.989   7.323  0.0266  0.3474 -0.5218
 8463SOL    HW226632   5.021   4.009   7.429 -0.8388 -2.5159 -0.7920
 8464SOL     OW26633   0.146   0.553   1.358 -0.3166 -0.9241 -0.1680
 8464SOL    HW126634   0.153   0.639   1.401  2.1006 -0.8901 -0.5768
 8464SOL    HW226635   0.069   0.561   1.301 -0.8340  0.5488  0.6984
 8465SOL     OW26636   3.480   7.621   6.794  0.0110 -0.1565 -0.0436
 8465SOL    HW126637   3.406   7.682   6.789 -0.2884 -0.5217 -0.0628
 8465SOL    HW226638   3.479   7.588   6.884  0.0255 -0.3210 -0.1038
 8466SOL     OW26639   0.061   7.737   4.225 -0.3970 -0.4201 -0.2349
 8466SOL    HW126640   0.059   7.648   4.190  0.6496 -0.9859  1.1100
 8466SOL    HW226641  -0.014   7.741   4.284  0.1451 -0.7549  0.4886
 8467SOL     OW26642   1.357   7.200   0.250 -0.1600  0.1046 -0.2242
 8467SOL    HW126643   1.313   7.193   0.334  1.9394  3.5626  1.2413
 8467SOL    HW226644   1.422   7.130   0.251 -0.8142 -0.4963  0.5781
 8468SOL     OW26645   0.937   0.613   2.569  0.6661 -0.1033  0.1729
 8468SOL    HW126646   0.924   0.521   2.594 -1.6613 -0.6816 -2.7869
 8468SOL    HW226647   0.885   0.662   2.633 -1.2020 -1.1536 -0.4959
 8469SOL     OW26648   7.685   4.025   1.604  0.0684  0.0374  0.5488
 8469SOL    HW126649   7.672   4.056   1.514 -1.2128 -1.2117  0.2859
 8469SOL    HW226650   7.777   4.044   1.622  0.3072  0.4471 -0.9704
 8470SOL     OW26651   5.271   0.259   7.412 -0.1403 -0.2799 -0.1505
 8470SOL    HW126652   5.180   0.286   7.402 -0.3468 -0.6371  0.7038
 8470SOL    HW226653   5.322   0.340   7.405 -0.5243 -0.0705 -0.5467
 8471SOL     OW26654   1.639   1.249   3.694  0.3499  0.1820 -0.2551
 8471SOL    HW126655   1.550   1.265   3.664  0.6023 -0.4836 -1.3824
 8471SOL    HW226656   1.629   1.203   3.778 -0.3556  1.5822  0.4332
 8472SOL     OW26657   8.301   6.009   5.651  0.2110  0.0251 -0.2169
 8472SOL    HW126658   8.348   5.970   5.725 -2.0203  1.7010  2.1830
 8472SOL    HW226659   8.268   5.935   5.601  0.4301 -1.1572  1.3564
 8473SOL     OW26660   0.493   6.091   2.181  0.0167  0.3626  0.0461
 8473SOL    HW126661   0.546   6.162   2.217  0.6721  0.2065 -0.6063
 8473SOL    HW226662   0.447   6.055   2.257 -2.1901  3.0379  0.0549
 8474SOL     OW26663   3.839   6.443   3.080  0.0590 -0.0149 -0.1839
 8474SOL    HW126664   3.863   6.360   3.122 -1.7458 -1.8946 -2.7569
 8474SOL    HW226665   3.904   6.454   3.010 -0.3352  0.1977 -0.5168
 8475SOL     OW26666   1.753   4.322   0.247  0.5798  0.1866  0.7953
 8475SOL    HW126667   1.735   4.354   0.336  0.3725  0.7045  0.5689
 8475SOL    HW226668   1.666   4.307   0.210  0.6384  1.3479  0.1818
 8476SOL     OW26669   0.540   0.040   6.996 -0.2191 -0.0023 -0.3251
 8476SOL    HW126670   0.609  -0.007   6.951  0.1772 -0.4520  0.7281
 8476SOL    HW226671   0.527  -0.009   7.078 -1.5554  0.2539 -0.3655
 8477SOL     OW26672   1.797   4.731   1.120  0.0202 -0.0102  0.0497
 8477SOL    HW126673   1.794   4.662   1.186  0.8915  0.7486  0.8772
 8477SOL    HW226674   1.844   4.803   1.161 -0.3361  0.8575 -1.0319
 8478SOL     OW26675   6.319   3.726   1.076  0.2966 -0.2925  0.3281
 8478SOL    HW126676   6.376   3.778   1.133  2.1671 -0.1771 -1.5842
 8478SOL    HW226677   6.232   3.762   1.089  0.6602 -0.3050  3.1423
 8479SOL     OW26678   7.713   3.539   6.127 -0.0010  0.4460  0.1543
 8479SOL    HW126679   7.624   3.574   6.138  0.6855  1.6668  2.0343
 8479SOL    HW226680   7.771   3.613   6.144  1.4449 -1.0209  1.8326
 8480SOL     OW26681   1.358   4.945   2.832 -0.7748 -0.1085 -0.1365
 8480SOL    HW126682   1.375   4.851   2.831 -3.1483 -0.5629 -0.7769
 8480SOL    HW226683   1.356   4.969   2.925 -0.9307 -0.8315  0.0426
 8481SOL     OW26684   4.136   3.143   0.441  0.1294 -0.4279  0.5037
 8481SOL    HW126685   4.185   3.073   0.484 -1.8405 -1.9408  0.3877
 8481SOL    HW226686   4.150   3.220   0.496  1.5743 -1.1357  1.1548
 8482SOL     OW26687   1.612   4.269   8.084  0.1932 -0.0528 -0.2412
 8482SOL    HW126688   1.535   4.242   8.033 -0.4311  2.4949 -0.6981
 8482SOL    HW226689   1.603   4.221   8.167 -2.5217  1.0003  0.1505
 8483SOL     OW26690   3.811   5.178   5.330  0.1444  0.0660  0.0288
 8483SOL    HW126691   3.845   5.162   5.242 -2.0942  0.9175 -1.0267
 8483SOL    HW226692   3.758   5.102   5.350 -0.2776  0.3908  0.1618
 8484SOL     OW26693   0.106   1.451   5.696  0.1149 -0.0787  0.2614
 8484SOL    HW126694   0.104   1.357   5.713  0.7644 -0.3152 -0.9344
 8484SOL    HW226695   0.081   1.491   5.780 -0.2384 -1.3078  0.7547
 8485SOL     OW26696   3.624   5.576   7.213  0.4771 -0.1364  0.1587
 8485SOL    HW126697   3.642   5.663   7.177  2.3569 -0.4469  0.3142
 8485SOL    HW226698   3.675   5.572   7.294 -1.9095 -0.3066  1.7366
 8486SOL     OW26699   2.741   3.610   6.888 -0.0473 -0.1765 -0.6538
 8486SOL    HW126700   2.719   3.521   6.861 -1.0739  0.6088 -2.5650
 8486SOL    HW226701   2.830   3.623   6.857  0.5704 -0.9418  0.7460
 8487SOL     OW26702   6.257   1.098   4.770 -0.2017  0.0620 -0.1342
 8487SOL    HW126703   6.163   1.082   4.758  0.0301 -0.3698 -1.4474
 8487SOL    HW226704   6.271   1.186   4.735  0.3536 -0.9300 -2.4980
 8488SOL     OW26705   1.888   4.855   1.872  0.2009  0.4809  0.3065
 8488SOL    HW126706   1.924   4.820   1.954 -0.1391  1.2723  0.7998
 8488SOL    HW226707   1.918   4.946   1.870 -0.6291  0.7524  0.0485
 8489SOL     OW26708   3.472   8.088   5.302 -0.4741  0.5231 -0.7168
 8489SOL    HW126709   3.423   8.012   5.271 -2.5466  1.0604  1.1504
 8489SOL    HW226710   3.491   8.138   5.222 -1.0292 -0.8086 -1.7031
 8490SOL     OW26711   3.743   1.717   0.356 -0.3298 -0.0463  0.5696
 8490SOL    HW126712   3.658   1.732   0.314 -1.0582  0.3517  2.1576
 8490SOL    HW226713   3.729   1.639   0.409  1.1423 -1.6999 -1.3748
 8491SOL     OW26714   2.414   6.865   7.570  0.4477  0.7312  0.9590
 8491SOL    HW126715   2.437   6.909   7.488  1.5875  0.1142  0.9344
 8491SOL    HW226716   2.392   6.776   7.544 -2.6752  1.4591  0.9050
 8492SOL     OW26717   6.941   5.581   3.787 -0.0051  0.3994  0.2827
 8492SOL    HW126718   7.010   5.614   3.729 -1.5511  0.6170 -1.4878
 8492SOL    HW226719   6.873   5.648   3.783 -0.6147 -0.1440  1.4448
 8493SOL     OW26720   2.271   1.685   4.976  0.1066  1.0547 -0.0982
 8493SOL    HW126721   2.180   1.676   4.949 -0.4698 -1.0805  2.3603
 8493SOL    HW226722   2.321   1.647   4.904 -1.0138  1.2012 -0.9661
 8494SOL     OW26723   4.212   7.689   4.003  0.5508 -0.6828 -0.0841
 8494SOL    HW126724   4.200   7.780   4.029  2.3029 -0.4351 -0.0958
 8494SOL    HW226725   4.169   7.683   3.918 -1.7709 -0.5243  1.0166
 8495SOL     OW26726   0.969   3.887   0.983  0.3028 -0.6356 -0.1087
 8495SOL    HW126727   1.059   3.866   0.959  0.9346  0.7233  1.0188
 8495SOL    HW226728   0.976   3.968   1.034 -1.6259 -0.1478 -0.5841
 8496SOL     OW26729   6.023   6.286   1.040  0.2244  0.0160  0.0750
 8496SOL    HW126730   6.048   6.379   1.033  0.7566 -0.1630 -0.4729
 8496SOL    HW226731   6.074   6.243   0.972  0.9088 -0.8677  1.1368
 8497SOL     OW26732   2.057   1.873   8.275  0.6404  0.0986  0.0691
 8497SOL    HW126733   2.119   1.866   8.203  0.5488 -1.3003  0.1299
 8497SOL    HW226734   2.053   1.967   8.294  1.2701  0.3858 -1.2073
 8498SOL     OW26735   4.979   2.799   3.721  0.1043 -0.1066  0.1472
 8498SOL    HW126736   4.906   2.836   3.672  0.2159  0.0494  0.0993
 8498SOL    HW226737   4.942   2.778   3.807 -0.0272 -0.1448  0.0808
 8499SOL     OW26738   0.399   8.274   3.361  0.0028 -0.1351 -0.1001
 8499SOL    HW126739   0.415   8.230   3.277  2.5564 -0.3640  0.4805
 8499SOL    HW226740   0.340   8.346   3.338 -0.9135 -1.3724 -1.7494
 8500SOL     OW26741   5.373   2.422   6.151 -0.2110 -0.1862 -0.0106
 8500SOL    HW126742   5.321   2.413   6.232 -1.3860  1.4561 -0.5538
 8500SOL    HW226743   5.320   2.380   6.084 -0.3041  0.4744 -0.3517
 8501SOL     OW26744   7.931   0.665   7.702 -0.5449  0.0685  0.2574
 8501SOL    HW126745   7.879   0.589   7.730 -1.3048  0.0682 -1.1445
 8501SOL    HW226746   8.016   0.628   7.679 -0.8480 -0.3364 -0.2261
 8502SOL     OW26747   8.306   4.542   3.526 -0.0997 -0.0309  0.1115
 8502SOL    HW126748   8.292   4.494   3.445 -1.0043  0.7822 -0.2284
 8502SOL    HW226749   8.398   4.530   3.547 -0.1512 -1.2707 -0.3751
 8503SOL     OW26750   3.163   6.604   3.155 -0.7754 -0.2451  0.0867
 8503SOL    HW126751   3.223   6.532   3.174 -0.8851 -0.1678  0.7564
 8503SOL    HW226752   3.149   6.599   3.061 -2.4581 -2.4144  0.4167
 8504SOL     OW26753   6.183   0.928   2.069 -0.2857  0.4383  0.0451
 8504SOL    HW126754   6.276   0.950   2.066 -0.2492  0.2728 -0.0589
 8504SOL    HW226755   6.140   1.007   2.102 -0.2079  0.8116 -0.7416
 8505SOL     OW26756   4.625   5.719   2.299 -0.3088  0.0969  0.5903
 8505SOL    HW126757   4.683   5.781   2.256 -1.3308  0.3754 -0.4105
 8505SOL    HW226758   4.674   5.637   2.300  1.0234  0.8767  1.8593
 8506SOL     OW26759   5.119   1.255   0.276  0.5187 -0.0921 -0.1328
 8506SOL    HW126760   5.034   1.298   0.259 -0.1622 -1.4068 -0.1051
 8506SOL    HW226761   5.177   1.290   0.208  0.6215  2.6369  1.2663
 8507SOL     OW26762   1.273   1.782   2.525  0.1116  0.3618  0.0061
 8507SOL    HW126763   1.260   1.692   2.555 -0.0645  0.0901 -0.8952
 8507SOL    HW226764   1.352   1.778   2.471 -0.6717  0.4811 -1.1655
 8508SOL     OW26765   0.753   1.646   5.312  0.0830  0.6596 -0.0891
 8508SOL    HW126766   0.752   1.645   5.216 -0.5189  1.0652 -0.0905
 8508SOL    HW226767   0.715   1.562   5.337 -0.2626  0.7778 -0.2092
 8509SOL     OW26768   2.600   0.648   7.988 -0.5568 -0.4675  0.0158
 8509SOL    HW126769   2.665   0.592   8.031  1.2785  0.5599 -1.3379
 8509SOL    HW226770   2.557   0.694   8.059  0.6824 -0.6685  0.9235
 8510SOL     OW26771   6.963   0.242   6.641  0.1231 -0.3478  0.0042
 8510SOL    HW126772   6.912   0.293   6.705  0.1662  0.0468 -0.2752
 8510SOL    HW226773   7.054   0.261   6.663  0.1399  1.3437 -1.4017
 8511SOL     OW26774   5.180   1.052   0.504  0.4607 -0.1728 -0.3024
 8511SOL    HW126775   5.084   1.057   0.495  0.2030 -2.2542  0.8576
 8511SOL    HW226776   5.212   1.037   0.415 -0.1902  1.7420 -0.8708
 8512SOL     OW26777   2.724   5.277   3.253 -0.6009 -0.1011 -0.1016
 8512SOL    HW126778   2.685   5.361   3.279 -0.1705 -0.2138  0.9666
 8512SOL    HW226779   2.678   5.212   3.304 -1.3659 -0.5918 -1.4093
 8513SOL     OW26780   1.037   2.596   8.209 -0.1418 -0.1696  0.2300
 8513SOL    HW126781   0.976   2.653   8.256 -1.4624 -1.7958  0.5562
 8513SOL    HW226782   1.000   2.589   8.121  0.4448  0.1035 -0.0394
 8514SOL     OW26783   5.822   2.912   7.000  0.0502 -0.3461  0.7350
 8514SOL    HW126784   5.738   2.942   6.966  0.6272  0.8244  0.3271
 8514SOL    HW226785   5.859   2.987   7.046  1.0588 -0.7064  0.5472
 8515SOL     OW26786   2.345   4.587   2.814 -0.0566  0.1915  0.0325
 8515SOL    HW126787   2.273   4.546   2.862 -1.3882  0.2160 -1.8528
 8515SOL    HW226788   2.412   4.605   2.880 -0.7114 -2.2095  1.3874
 8516SOL     OW26789   1.214   4.045   4.097  0.0595  0.2103 -0.2356
 8516SOL    HW126790   1.192   3.982   4.028  0.0444  0.2144 -0.2343
 8516SOL    HW226791   1.308   4.061   4.086  0.5525 -1.4992  1.1390
 8517SOL     OW26792   6.167   4.444   3.343  0.0029  0.5207  0.7927
 8517SOL    HW126793   6.130   4.376   3.399 -2.4454 -1.5232 -3.0782
 8517SOL    HW226794   6.102   4.514   3.345  0.0148  0.5341  0.7181
 8518SOL     OW26795   2.194   0.937   0.597  0.0606 -0.4530  0.3390
 8518SOL    HW126796   2.234   0.862   0.641  0.5063  0.3056  1.2662
 8518SOL    HW226797   2.184   0.910   0.506 -1.8539 -2.4627  1.1004
 8519SOL     OW26798   2.490   6.364   6.846 -0.0168  0.3565  0.2429
 8519SOL    HW126799   2.458   6.299   6.908 -0.4116 -0.0847 -0.4206
 8519SOL    HW226800   2.554   6.317   6.792 -0.5443  0.4214 -0.4524
 8520SOL     OW26801   6.912   6.618   7.508 -0.3058  0.6586 -0.7367
 8520SOL    HW126802   6.821   6.623   7.479 -0.2956  0.7369 -0.7576
 8520SOL    HW226803   6.954   6.556   7.449 -0.2799  0.8297 -0.8984
 8521SOL     OW26804   1.995   4.885   5.815  0.4141  0.1948 -0.3614
 8521SOL    HW126805   2.006   4.976   5.844 -0.4529  0.4004 -0.6604
 8521SOL    HW226806   1.926   4.889   5.749 -0.8063 -0.9072  0.8011
 8522SOL     OW26807   5.766   3.786   2.144  0.0982  0.2593  0.0546
 8522SOL    HW126808   5.854   3.756   2.122 -0.2452 -0.2805 -0.6064
 8522SOL    HW226809   5.764   3.877   2.116  0.2089  0.0545 -0.6351
 8523SOL     OW26810   3.005   5.257   7.135 -0.1668  0.0931 -0.2644
 8523SOL    HW126811   2.912   5.244   7.113 -0.3867  0.4418  0.4580
 8523SOL    HW226812   3.049   5.259   7.050 -1.4809  5.0202 -0.9890
 8524SOL     OW26813   7.489   1.336   7.856 -0.2488 -0.0918  0.1255
 8524SOL    HW126814   7.531   1.417   7.828 -0.4462  0.7501  2.2034
 8524SOL    HW226815   7.403   1.337   7.814 -0.0762  0.5507 -0.2125
 8525SOL     OW26816   3.099   1.549   5.408 -0.5324 -0.2915  0.1384
 8525SOL    HW126817   3.149   1.522   5.331  0.6197 -1.6607  1.3243
 8525SOL    HW226818   3.166   1.568   5.474 -1.5083  0.8499  0.8162
 8526SOL     OW26819   1.179   2.844   0.438 -0.6257 -0.3649  0.6067
 8526SOL    HW126820   1.241   2.784   0.395  0.4748  1.4258 -0.3700
 8526SOL    HW226821   1.094   2.802   0.426 -0.0258 -1.1617 -1.1032
 8527SOL     OW26822   6.905   6.675   3.872 -0.0527 -0.2662  0.2020
 8527SOL    HW126823   6.887   6.674   3.778  1.1417 -1.9708 -0.0246
 8527SOL    HW226824   6.939   6.763   3.889 -1.4575  0.4722 -0.7230
 8528SOL     OW26825   7.954   4.866   7.177 -0.8538 -0.6142  0.2387
 8528SOL    HW126826   7.887   4.797   7.182  0.1478 -1.6214  0.1836
 8528SOL    HW226827   7.974   4.873   7.084 -1.0953 -0.1103  0.2262
 8529SOL     OW26828   1.319   3.734   6.869  0.6193  0.6692 -0.3229
 8529SOL    HW126829   1.401   3.704   6.908  0.3285  1.7586  1.1767
 8529SOL    HW226830   1.344   3.807   6.812  0.5109  2.2443  1.5855
 8530SOL     OW26831   7.777   3.418   1.677  0.1785  0.3645  0.1296
 8530SOL    HW126832   7.688   3.398   1.648  0.8224 -0.2230 -1.4780
 8530SOL    HW226833   7.833   3.362   1.623  1.6130  1.7898  0.1065
 8531SOL     OW26834   7.816   1.839   4.738  0.7799 -0.0578  0.2017
 8531SOL    HW126835   7.872   1.912   4.762 -0.4776  0.8910  0.2715
 8531SOL    HW226836   7.728   1.866   4.763  0.2918 -1.5959  0.2390
 8532SOL     OW26837   3.589   8.175   0.758 -0.3805 -0.3392 -0.0828
 8532SOL    HW126838   3.668   8.121   0.749 -1.7450 -2.0675 -2.3774
 8532SOL    HW226839   3.616   8.261   0.726  0.2829 -1.2594 -2.1240
 8533SOL     OW26840   3.819   3.053   6.453  0.1601  0.2305  0.3052
 8533SOL    HW126841   3.901   3.036   6.406 -0.0042 -0.0107  0.1044
 8533SOL    HW226842   3.840   3.035   6.545  0.8371  1.9163  0.5183
 8534SOL     OW26843   1.868   6.934   2.706 -0.1692  0.3400  0.1977
 8534SOL    HW126844   1.850   7.010   2.761 -0.1519  0.6215 -0.1811
 8534SOL    HW226845   1.797   6.872   2.725 -0.3450  0.5705  0.2900
 8535SOL     OW26846   2.524   6.005   1.478  0.2002 -0.2183  0.0993
 8535SOL    HW126847   2.549   5.980   1.389 -1.2542  0.9906 -0.6552
 8535SOL    HW226848   2.477   5.928   1.512  0.8138 -0.7036 -0.1452
 8536SOL     OW26849   6.364   2.285   3.653 -0.1406 -0.0386  0.0503
 8536SOL    HW126850   6.343   2.292   3.747  0.0769 -0.5725  0.1396
 8536SOL    HW226851   6.429   2.353   3.638 -1.1127  0.9037  0.0103
 8537SOL     OW26852   7.923   2.792   5.439  0.3085 -0.0683 -0.2244
 8537SOL    HW126853   7.922   2.751   5.353  4.7588 -0.8599 -0.0259
 8537SOL    HW226854   7.957   2.880   5.423  1.8972 -0.4827  0.8014
 8538SOL     OW26855   2.035   2.271   4.890 -0.1256  0.1347  0.1199
 8538SOL    HW126856   2.020   2.178   4.909  1.6837 -0.1451  0.2322
 8538SOL    HW226857   2.130   2.280   4.887 -0.2690  2.2238  1.1893
 8539SOL     OW26858   0.011   4.191   7.048 -0.4009 -0.1755 -0.4953
 8539SOL    HW126859  -0.078   4.170   7.021 -0.7968  2.4261 -1.3684
 8539SOL    HW226860  -0.000   4.252   7.121  0.6353  0.2698 -0.6950
 8540SOL     OW26861   4.267   7.459   0.503 -0.0488 -0.3981  0.6178
 8540SOL    HW126862   4.242   7.457   0.595 -1.3433 -0.3592  0.2813
 8540SOL    HW226863   4.360   7.436   0.503 -0.3235 -1.6040  1.8306
 8541SOL     OW26864   3.646   8.080   2.552 -0.1994  0.2429  0.2878
 8541SOL    HW126865   3.630   7.990   2.580  1.9000 -0.3007 -0.1626
 8541SOL    HW226866   3.615   8.134   2.625 -2.5041 -0.7603  0.1064
 8542SOL     OW26867   7.048   5.428   3.212  0.0100  0.0825  0.3986
 8542SOL    HW126868   6.997   5.420   3.293  0.6193  0.0359  0.7786
 8542SOL    HW226869   7.124   5.480   3.237  0.7795 -0.9109  0.1221
 8543SOL     OW26870   5.822   1.132   7.596 -0.1824  0.0767  0.2749
 8543SOL    HW126871   5.913   1.100   7.597  0.6271  2.3159 -0.5364
 8543SOL    HW226872   5.770   1.054   7.617  1.9678 -1.0622  1.6221
 8544SOL     OW26873   0.588   2.460   8.133  0.0156 -0.8110 -0.0441
 8544SOL    HW126874   0.524   2.393   8.108 -0.2691 -0.8981  0.9037
 8544SOL    HW226875   0.650   2.413   8.189  0.3213 -0.4940 -0.1234
 8545SOL     OW26876   6.218   4.275   4.582  0.3257 -0.1358 -0.0743
 8545SOL    HW126877   6.249   4.207   4.522 -1.7356 -1.8339  0.7520
 8545SOL    HW226878   6.198   4.228   4.663  0.1319  1.6737  0.9404
 8546SOL     OW26879   5.656   7.246   4.236 -0.1960 -0.0619  0.3847
 8546SOL    HW126880   5.702   7.235   4.319  1.2198  1.1858 -0.2029
 8546SOL    HW226881   5.569   7.277   4.260  0.6259  1.5652  1.3629
 8547SOL     OW26882   3.214   3.241   2.664 -0.3796 -0.4833  0.5721
 8547SOL    HW126883   3.281   3.260   2.598 -1.7098 -1.9406 -1.2684
 8547SOL    HW226884   3.216   3.317   2.723  0.8353  0.8742 -1.1568
 8548SOL     OW26885   7.395   6.904   5.523 -0.0719 -0.3026  0.3563
 8548SOL    HW126886   7.408   6.996   5.501  1.0387 -0.0049  2.1656
 8548SOL    HW226887   7.405   6.857   5.440  3.1072  0.8566  0.0354
 8549SOL     OW26888   0.608   4.780   6.252  0.2648  0.2908  0.1668
 8549SOL    HW126889   0.525   4.825   6.268  0.2083  0.0775  0.4838
 8549SOL    HW226890   0.635   4.747   6.338  0.4931  0.0414  0.0021
 8550SOL     OW26891   2.998   0.499   6.761  0.0060  0.6599 -0.3401
 8550SOL    HW126892   2.960   0.450   6.834  2.0307  2.1638  1.7538
 8550SOL    HW226893   3.004   0.434   6.690  1.6138 -1.8745  2.0147
 8551SOL     OW26894   5.610   7.848   1.450 -0.1814 -1.1725 -0.6822
 8551SOL    HW126895   5.531   7.795   1.460 -2.0390  1.5233 -0.5485
 8551SOL    HW226896   5.655   7.840   1.534 -2.5498  0.7019  0.8170
 8552SOL     OW26897   1.354   5.215   8.150 -0.6787  0.2542 -0.2369
 8552SOL    HW126898   1.383   5.140   8.201 -1.5155  1.1735  1.6173
 8552SOL    HW226899   1.395   5.203   8.064 -0.8504 -2.3435  0.0069
 8553SOL     OW26900   3.805   3.579   6.495  0.1121  0.1779 -0.1342
 8553SOL    HW126901   3.804   3.636   6.572 -0.9341  0.2210 -0.1712
 8553SOL    HW226902   3.793   3.491   6.529  1.6348 -0.0270 -0.0863
 8554SOL     OW26903   2.147   5.314   3.159  0.0829 -0.2954 -0.1443
 8554SOL    HW126904   2.203   5.238   3.147  0.3196 -0.4607  1.7591
 8554SOL    HW226905   2.205   5.382   3.193  0.0097  0.9762 -2.4730
 8555SOL     OW26906   7.379   1.443   6.169  0.7338  0.2453  0.5465
 8555SOL    HW126907   7.397   1.367   6.113 -0.7994  0.9261 -0.9286
 8555SOL    HW226908   7.465   1.482   6.184  1.1600  0.2482 -1.6637
 8556SOL     OW26909   1.560   6.474   0.637  0.0408 -0.0683 -0.4110
 8556SOL    HW126910   1.599   6.509   0.557 -1.8529  2.3969 -0.3006
 8556SOL    HW226911   1.543   6.382   0.617  2.2184 -0.2173 -1.8099
 8557SOL     OW26912   7.735   5.509   5.186  0.0593  0.9918 -0.3040
 8557SOL    HW126913   7.684   5.513   5.266  1.8886 -0.5043  0.9673
 8557SOL    HW226914   7.708   5.429   5.143  0.6057  0.7019 -0.1164
 8558SOL     OW26915   5.116   4.739   5.784  0.2168 -0.1366 -0.0363
 8558SOL    HW126916   5.110   4.805   5.716  0.3612  1.6775  1.6830
 8558SOL    HW226917   5.205   4.747   5.818 -0.0009 -0.7124  0.6997
 8559SOL     OW26918   6.784   3.110   5.943  0.4225 -0.4904 -0.6113
 8559SOL    HW126919   6.812   3.134   5.855  0.7881  1.3470 -0.0204
 8559SOL    HW226920   6.850   3.150   6.001 -0.8708 -0.0415  0.5745
 8560SOL     OW26921   5.692   0.486   6.161  0.2501  0.1955 -0.1347
 8560SOL    HW126922   5.638   0.471   6.238 -1.2524 -1.2873 -1.4266
 8560SOL    HW226923   5.696   0.400   6.118  1.2841  0.9372 -1.5522
 8561SOL     OW26924   1.349   8.233   1.105  0.3612  0.1003 -0.7702
 8561SOL    HW126925   1.289   8.186   1.164  1.0143  1.1747  0.7958
 8561SOL    HW226926   1.337   8.191   1.020 -2.0782 -0.1768 -0.3316
 8562SOL     OW26927   2.048   7.324   5.059 -0.0525  0.1287 -0.1129
 8562SOL    HW126928   2.031   7.327   5.153  4.3111 -1.0792  0.8252
 8562SOL    HW226929   2.094   7.405   5.040  0.1256 -0.1702 -0.9960
 8563SOL     OW26930   3.202   5.659   7.749 -0.0007 -0.5588  0.2479
 8563SOL    HW126931   3.109   5.642   7.766 -0.3253  1.4747  0.6457
 8563SOL    HW226932   3.218   5.618   7.664 -1.1859 -1.1481  0.2909
 8564SOL     OW26933   2.074   7.550   2.722 -0.1978 -0.2711 -0.3208
 8564SOL    HW126934   2.101   7.590   2.805 -0.2838  0.0796 -0.4611
 8564SOL    HW226935   1.984   7.580   2.709 -0.3314 -0.6778 -0.3231
 8565SOL     OW26936   0.514   1.426   3.254 -0.0042  0.1612  0.2964
 8565SOL    HW126937   0.493   1.389   3.339  0.1473 -1.7309 -0.4560
 8565SOL    HW226938   0.429   1.455   3.219 -0.4247 -1.2221  0.1202
 8566SOL     OW26939   2.484   2.065   4.989 -0.0527  0.3719  0.4014
 8566SOL    HW126940   2.470   2.078   4.895  1.4599 -2.5833 -0.2827
 8566SOL    HW226941   2.407   2.017   5.018 -0.8377  1.8618  0.8507
 8567SOL     OW26942   0.898   0.997   4.002  0.0477 -0.3254  0.0164
 8567SOL    HW126943   0.975   0.943   4.020  1.0213  0.9777 -0.1635
 8567SOL    HW226944   0.830   0.961   4.059  0.7373 -1.5777  0.0841
 8568SOL     OW26945   4.126   0.252   0.790  0.1335 -0.1196  0.7997
 8568SOL    HW126946   4.126   0.347   0.777 -0.5972 -0.2535 -0.2667
 8568SOL    HW226947   4.169   0.218   0.711  1.0615 -0.6422  1.5222
 8569SOL     OW26948   3.296   6.183   3.662  0.3578  0.1329  0.1403
 8569SOL    HW126949   3.333   6.234   3.735 -0.1463 -0.9740  1.1760
 8569SOL    HW226950   3.356   6.200   3.590  1.2378  0.7404  0.9873
 8570SOL     OW26951   5.259   4.427   4.541  0.2685 -0.0981  0.5143
 8570SOL    HW126952   5.355   4.436   4.544  0.1420  1.2065  0.8146
 8570SOL    HW226953   5.237   4.380   4.621  0.4505  1.5922  1.5672
 8571SOL     OW26954   5.481   0.613   3.975 -0.1770  0.3471 -0.1432
 8571SOL    HW126955   5.573   0.622   3.999 -0.4690 -0.3235  1.3022
 8571SOL    HW226956   5.459   0.696   3.932  0.3894  1.6363  1.9492
 8572SOL     OW26957   5.599   3.558   6.826 -0.1568  0.0931 -0.3460
 8572SOL    HW126958   5.546   3.634   6.852 -0.8874 -0.2694 -0.7698
 8572SOL    HW226959   5.542   3.483   6.842 -0.2098 -0.2096 -1.9537
 8573SOL     OW26960   5.855   0.566   5.371  0.8513 -0.8291 -0.2989
 8573SOL    HW126961   5.840   0.588   5.279  0.3494  0.0765 -0.0158
 8573SOL    HW226962   5.941   0.524   5.372  1.4712  0.3834 -0.9937
 8574SOL     OW26963   7.608   1.311   1.693 -0.1031 -1.0478 -0.1726
 8574SOL    HW126964   7.670   1.261   1.745  4.6895  2.1831 -2.3553
 8574SOL    HW226965   7.581   1.383   1.750  0.8864 -0.5431 -0.3336
 8575SOL     OW26966   4.537   1.634   2.578  0.0243 -0.2074  0.2598
 8575SOL    HW126967   4.481   1.571   2.624 -0.0519  0.8627  1.6473
 8575SOL    HW226968   4.493   1.649   2.494 -0.2092 -1.6202  0.1181
 8576SOL     OW26969   5.433   2.036   4.263 -0.2174 -0.5434  0.2220
 8576SOL    HW126970   5.455   2.029   4.170  0.1440  1.4789  0.1427
 8576SOL    HW226971   5.459   1.951   4.299  0.5848 -0.9928 -1.3254
 8577SOL     OW26972   5.104   8.144   4.362  0.2739 -0.1340 -0.1418
 8577SOL    HW126973   5.150   8.098   4.292 -0.2221 -0.0100 -0.5528
 8577SOL    HW226974   5.155   8.225   4.374  2.2151 -1.5843  1.8401
 8578SOL     OW26975   2.640   2.334   6.294  0.5326  0.0848  0.1873
 8578SOL    HW126976   2.578   2.262   6.283 -0.2879  0.6526  1.1291
 8578SOL    HW226977   2.602   2.407   6.245  0.1756  0.5960  1.2070
 8579SOL     OW26978   7.316   0.589   6.094 -0.7173  0.1271  0.3262
 8579SOL    HW126979   7.265   0.516   6.059 -0.4064 -0.1648  0.4787
 8579SOL    HW226980   7.252   0.648   6.134 -0.9757 -0.0167  0.1200
 8580SOL     OW26981   6.437   2.595   4.176  0.1022  0.1810 -0.2356
 8580SOL    HW126982   6.487   2.513   4.178  1.1534  0.7797 -1.2719
 8580SOL    HW226983   6.367   2.582   4.241  0.3938 -1.4373 -0.2217
 8581SOL     OW26984   6.329   2.101   6.126 -0.0198  0.1956 -0.6092
 8581SOL    HW126985   6.360   2.118   6.215 -1.6229 -0.1569  0.0354
 8581SOL    HW226986   6.292   2.184   6.097  0.3988  0.2790 -0.9133
 8582SOL     OW26987   3.224   6.900   7.094 -0.3909 -0.2850  0.2805
 8582SOL    HW126988   3.311   6.878   7.062 -0.1262  1.1988 -0.0543
 8582SOL    HW226989   3.165   6.845   7.042  0.2381 -0.1630 -0.5601
 8583SOL     OW26990   8.258   6.604   1.149 -0.5599 -0.2088  0.0556
 8583SOL    HW126991   8.268   6.627   1.056 -1.6472  0.8850  0.1928
 8583SOL    HW226992   8.165   6.619   1.167 -0.3073 -0.2013  1.3938
 8584SOL     OW26993   0.060   6.651   6.795 -0.2643 -0.1326  0.1141
 8584SOL    HW126994  -0.030   6.618   6.799 -1.0811  1.7808 -1.4048
 8584SOL    HW226995   0.057   6.735   6.842  0.2490  0.9014 -1.6595
 8585SOL     OW26996   1.355   7.379   1.214 -0.0118  0.1509 -0.3239
 8585SOL    HW126997   1.268   7.365   1.177 -0.6132  0.9597  0.7368
 8585SOL    HW226998   1.409   7.407   1.140 -0.9058  0.6331 -0.7923
 8586SOL     OW26999   4.586   0.927   4.165 -0.0436 -0.1126  0.1139
 8586SOL    HW127000   4.671   0.958   4.134  0.4669 -2.6288 -1.1121
 8586SOL    HW227001   4.590   0.940   4.260  1.9692 -0.6826  0.1464
 8587SOL     OW27002   6.759   3.781   1.705 -0.1186  0.1205  0.1925
 8587SOL    HW127003   6.747   3.830   1.786  0.4520  1.0064 -0.2447
 8587SOL    HW227004   6.854   3.772   1.697  0.0110  2.7245 -1.9267
 8588SOL     OW27005   1.181   0.670   3.423  0.0918 -0.3632  0.8552
 8588SOL    HW127006   1.190   0.575   3.413 -0.6503 -0.2292 -1.4497
 8588SOL    HW227007   1.105   0.681   3.480 -0.3085 -1.1638  0.4922
 8589SOL     OW27008   5.334   0.149   7.654 -0.3660  0.1113 -0.0659
 8589SOL    HW127009   5.390   0.219   7.687  0.1750  0.1124 -0.9653
 8589SOL    HW227010   5.306   0.178   7.567 -0.4738 -0.5935 -0.2764
 8590SOL     OW27011   3.820   1.862   2.276 -0.7473 -0.8622 -0.3763
 8590SOL    HW127012   3.883   1.917   2.229 -1.4246 -0.6541 -1.0544
 8590SOL    HW227013   3.798   1.912   2.355  1.9839 -2.1413  1.2586
 8591SOL     OW27014   6.385   7.774   1.685  0.2963  0.0659  0.6310
 8591SOL    HW127015   6.378   7.869   1.684 -0.2187  0.0243 -1.6354
 8591SOL    HW227016   6.295   7.743   1.673  0.5242 -0.6989  0.8625
 8592SOL     OW27017   5.795   6.249   2.834 -0.2631  0.5258 -0.0375
 8592SOL    HW127018   5.831   6.208   2.755 -1.0469  0.3337 -0.2974
 8592SOL    HW227019   5.852   6.324   2.850  1.7227 -1.1333  0.9366
 8593SOL     OW27020   1.471   1.633   4.870 -0.2922 -0.4935 -0.0753
 8593SOL    HW127021   1.401   1.568   4.874  0.0390 -0.8185  0.5002
 8593SOL    HW227022   1.459   1.687   4.948  0.4176 -0.8866  0.3174
 8594SOL     OW27023   1.394   1.448   1.211 -0.1513 -0.3399  0.5383
 8594SOL    HW127024   1.350   1.374   1.169 -1.6697 -0.4166  2.2489
 8594SOL    HW227025   1.451   1.483   1.142 -0.2776 -2.3649 -0.6461
 8595SOL     OW27026   5.416   3.545   7.158 -0.2763 -0.0321 -0.2575
 8595SOL    HW127027   5.338   3.499   7.188  0.5743 -0.0510  2.0242
 8595SOL    HW227028   5.489   3.486   7.179  0.5796  1.1683  0.2044
 8596SOL     OW27029   8.223   3.980   4.152 -0.0989  0.0535  0.0196
 8596SOL    HW127030   8.270   3.975   4.068  1.4868  0.7882  0.8235
 8596SOL    HW227031   8.234   3.894   4.190 -0.6529 -0.2238 -0.4437
 8597SOL     OW27032   4.143   0.279   5.176  0.2995 -0.7699 -0.2965
 8597SOL    HW127033   4.051   0.302   5.167 -0.2069 -1.3607  2.7933
 8597SOL    HW227034   4.152   0.196   5.129 -1.0788 -1.4319  0.5838
 8598SOL     OW27035   5.444   0.720   3.588  0.0369 -0.4770 -0.1312
 8598SOL    HW127036   5.424   0.752   3.676 -0.0073 -1.2767  0.1529
 8598SOL    HW227037   5.538   0.737   3.578 -0.4631  2.0797 -0.9732
 8599SOL     OW27038   7.484   4.139   2.383 -0.0562 -0.2137  0.4153
 8599SOL    HW127039   7.507   4.226   2.349  1.3637 -0.3936  0.8935
 8599SOL    HW227040   7.389   4.143   2.396 -0.1945  0.8146 -0.8359
 8600SOL     OW27041   5.843   4.950   2.517  0.3655 -0.1250 -0.3177
 8600SOL    HW127042   5.894   5.029   2.498 -0.0654  0.4269  0.7562
 8600SOL    HW227043   5.903   4.894   2.566  0.5968 -0.3578 -0.8701
 8601SOL     OW27044   7.226   4.765   3.275 -0.4169  0.0883 -1.0356
 8601SOL    HW127045   7.256   4.774   3.184 -0.2536 -1.4210 -1.1386
 8601SOL    HW227046   7.306   4.756   3.326 -0.5041  1.0576 -0.7093
 8602SOL     OW27047   4.325   6.468   2.983 -0.3406 -0.7871  0.3298
 8602SOL    HW127048   4.241   6.422   2.987  1.1067 -3.9091 -2.7523
 8602SOL    HW227049   4.307   6.546   2.930 -1.8560 -0.0123  1.9356
 8603SOL     OW27050   3.403   2.420   6.133 -0.4505 -0.2130 -0.0416
 8603SOL    HW127051   3.340   2.375   6.075 -0.1643  0.0690 -0.5764
 8603SOL    HW227052   3.354   2.495   6.167 -0.1200  0.5315 -1.1866
 8604SOL     OW27053   7.751   6.500   7.007  0.7766  0.0598 -0.0990
 8604SOL    HW127054   7.772   6.442   7.080 -0.2432 -0.1477  0.0366
 8604SOL    HW227055   7.785   6.585   7.034  0.0578  0.0682  0.7949
 8605SOL     OW27056   1.474   6.176   4.380 -0.7331  0.3701  0.0316
 8605SOL    HW127057   1.444   6.257   4.338 -0.7847  0.7234  0.7513
 8605SOL    HW227058   1.511   6.204   4.464  1.8505 -0.0157 -0.9295
 8606SOL     OW27059   6.613   0.688   1.999 -0.2426  0.1532  0.3771
 8606SOL    HW127060   6.575   0.601   1.987  0.2741  0.0854 -0.8037
 8606SOL    HW227061   6.707   0.672   2.005 -0.3916  0.2622  3.7715
 8607SOL     OW27062   3.604   7.611   1.844 -0.5909 -0.4893  0.4198
 8607SOL    HW127063   3.635   7.655   1.765  0.8585 -1.7831  0.2412
 8607SOL    HW227064   3.679   7.613   1.904 -1.1311 -1.0127  1.1203
 8608SOL     OW27065   5.441   7.656   0.537  0.1338 -0.2885  0.2346
 8608SOL    HW127066   5.415   7.677   0.626  0.2336 -1.9152  0.6730
 8608SOL    HW227067   5.511   7.718   0.516  0.0980  0.1076  1.2768
 8609SOL     OW27068   5.726   6.403   6.343 -0.0995 -0.2018 -0.4181
 8609SOL    HW127069   5.668   6.351   6.287 -1.8807  0.4289  0.8170
 8609SOL    HW227070   5.683   6.405   6.428  1.8944  0.0319  0.6184
 8610SOL     OW27071   5.076   5.241   6.993 -0.3041  0.0058 -0.0624
 8610SOL    HW127072   5.068   5.324   6.947  2.2339  1.4013  1.8694
 8610SOL    HW227073   5.100   5.178   6.925 -1.4218  1.0116 -1.4026
 8611SOL     OW27074   8.251   0.394   2.915  0.0140 -0.1925  0.3674
 8611SOL    HW127075   8.284   0.436   2.994  2.8696 -0.4259 -0.6119
 8611SOL    HW227076   8.325   0.340   2.884 -1.7331 -1.7261 -1.3119
 8612SOL     OW27077   5.983   4.871   0.310 -0.2352  0.2111  0.0475
 8612SOL    HW127078   6.010   4.780   0.297  1.9912  0.6108  1.7182
 8612SOL    HW227079   6.003   4.914   0.227  1.3702 -0.2042  0.2116
 8613SOL     OW27080   1.428   5.218   3.301 -0.0039  0.1413 -0.9695
 8613SOL    HW127081   1.467   5.242   3.384  0.1273 -0.4453 -0.8567
 8613SOL    HW227082   1.496   5.166   3.257 -0.4331 -0.3879 -1.0171
 8614SOL     OW27083   8.040   2.285   1.201 -0.1559  0.0599  0.0473
 8614SOL    HW127084   8.107   2.222   1.226  0.1587 -0.2063 -1.4014
 8614SOL    HW227085   8.085   2.370   1.198 -0.2140  0.1052  0.4571
 8615SOL     OW27086   0.130   7.983   4.902  0.4854 -0.5689 -0.0779
 8615SOL    HW127087   0.048   8.005   4.947 -0.9523  0.3819 -3.0043
 8615SOL    HW227088   0.199   8.014   4.961 -1.2372 -1.2049  2.3643
 8616SOL     OW27089   3.264   3.014   7.536  0.7746  0.4431 -0.2152
 8616SOL    HW127090   3.341   3.049   7.580 -0.1661  2.6432 -0.2751
 8616SOL    HW227091   3.253   3.069   7.459 -0.0793 -0.7060 -0.9293
 8617SOL     OW27092   4.803   3.779   8.266 -0.3357  0.1438  0.0339
 8617SOL    HW127093   4.803   3.798   8.360  0.4206  2.8348 -0.4733
 8617SOL    HW227094   4.815   3.684   8.261  3.1376  0.3587  2.6035
 8618SOL     OW27095   4.818   5.112   7.809 -0.7242  0.4215 -0.2397
 8618SOL    HW127096   4.904   5.072   7.800 -0.3191  1.7791 -2.5048
 8618SOL    HW227097   4.800   5.109   7.904  1.8454  0.2612  0.2608
 8619SOL     OW27098   1.083   2.611   3.104 -0.2984  0.1889  0.0209
 8619SOL    HW127099   1.147   2.605   3.175 -1.8171  0.2323  1.4548
 8619SOL    HW227100   1.060   2.520   3.085  1.0988  0.1106 -1.3806
 8620SOL     OW27101   1.466   5.457   4.717 -0.7862 -0.5345 -0.0634
 8620SOL    HW127102   1.483   5.380   4.770 -0.4460 -0.8460 -0.6306
 8620SOL    HW227103   1.431   5.423   4.634 -0.0977 -0.1117 -0.5306
 8621SOL     OW27104   3.593   7.152   6.978  0.2783  0.1724  0.1105
 8621SOL    HW127105   3.525   7.111   7.032  0.7341 -0.0831  0.5007
 8621SOL    HW227106   3.617   7.085   6.915  1.7038 -0.5155  1.3584
 8622SOL     OW27107   6.087   5.690   8.271  0.0570 -0.7154  0.0571
 8622SOL    HW127108   6.019   5.730   8.326  1.8020 -0.0503  1.8200
 8622SOL    HW227109   6.071   5.725   8.184 -1.8486 -0.5638  0.4339
 8623SOL     OW27110   0.380   0.288   4.713  0.2952 -0.4406  0.0362
 8623SOL    HW127111   0.351   0.370   4.751  1.3409 -0.2495  0.4267
 8623SOL    HW227112   0.305   0.257   4.662  0.3344  1.4034 -1.1846
 8624SOL     OW27113   7.236   2.015   0.134 -0.2927 -0.3633 -1.0410
 8624SOL    HW127114   7.183   1.998   0.056 -1.5857  1.4771 -0.5910
 8624SOL    HW227115   7.223   1.937   0.189 -0.0154 -1.3133 -2.3025
 8625SOL     OW27116   4.690   3.404   7.769  0.2445 -0.0812  0.1267
 8625SOL    HW127117   4.773   3.439   7.801 -0.6665 -0.7052  3.3665
 8625SOL    HW227118   4.623   3.463   7.806 -0.9087 -1.3225  0.0626
 8626SOL     OW27119   0.429   2.340   4.837  0.2101  0.0190  0.0679
 8626SOL    HW127120   0.468   2.283   4.770  1.2900  0.1064  0.6088
 8626SOL    HW227121   0.443   2.429   4.804 -0.1929  0.0253 -0.0888
 8627SOL     OW27122   7.047   4.874   5.915  0.2749 -0.5887  0.3072
 8627SOL    HW127123   7.139   4.900   5.917  0.4368 -1.0604 -0.8587
 8627SOL    HW227124   7.048   4.784   5.884 -0.5572 -0.7346  0.6802
 8628SOL     OW27125   5.312   2.743   5.921 -0.5325 -0.4085 -0.3400
 8628SOL    HW127126   5.363   2.800   5.863 -0.5367 -1.5076 -1.4442
 8628SOL    HW227127   5.375   2.679   5.954 -0.8264 -0.6561 -0.2511
 8629SOL     OW27128   7.786   0.917   5.073 -1.1466  0.2276  0.1384
 8629SOL    HW127129   7.798   0.992   5.132  0.7277  1.4286 -1.7385
 8629SOL    HW227130   7.874   0.896   5.042 -2.0182 -0.8554 -1.6649
 8630SOL     OW27131   5.406   4.306   2.002 -0.5750  0.2509  0.1167
 8630SOL    HW127132   5.327   4.256   1.985  0.7984 -1.3025 -1.9691
 8630SOL    HW227133   5.477   4.253   1.965  1.0942  3.0559 -0.9082
 8631SOL     OW27134   6.125   6.687   2.387 -0.4145 -0.2194  0.1419
 8631SOL    HW127135   6.196   6.696   2.324 -0.0320  0.2706  0.6448
 8631SOL    HW227136   6.123   6.770   2.434 -0.6868 -0.5840  0.7867
 8632SOL     OW27137   2.787   3.904   4.489  0.3688 -0.2427  0.7110
 8632SOL    HW127138   2.797   3.817   4.529 -1.4690 -0.3892  0.8907
 8632SOL    HW227139   2.726   3.890   4.416  1.7203  0.5074 -0.6037
 8633SOL     OW27140   5.778   7.522   4.232 -0.1938 -0.1148 -0.4985
 8633SOL    HW127141   5.768   7.430   4.204 -2.6336 -0.4945  1.4105
 8633SOL    HW227142   5.869   7.529   4.259  0.4273 -1.5548 -2.0895
 8634SOL     OW27143   5.636   5.546   0.569 -0.2263 -0.0006 -0.4901
 8634SOL    HW127144   5.555   5.560   0.520  0.2355  0.3143 -1.1676
 8634SOL    HW227145   5.661   5.456   0.550  0.7157  0.5632 -1.9882
 8635SOL     OW27146   4.217   3.824   6.822 -0.0851  0.1780 -0.3698
 8635SOL    HW127147   4.169   3.853   6.900 -0.2156  0.7378 -0.6590
 8635SOL    HW227148   4.240   3.733   6.841 -0.7489  0.0881  0.0224
 8636SOL     OW27149   8.070   7.988   7.182  0.1087 -0.0343 -0.0183
 8636SOL    HW127150   8.159   7.970   7.154  0.1023 -1.3486  0.7656
 8636SOL    HW227151   8.070   8.082   7.201  1.6255 -0.2151  1.0034
 8637SOL     OW27152   1.590   4.084   3.405  0.1415  0.0562 -0.4044
 8637SOL    HW127153   1.666   4.076   3.347  0.4485 -0.2819  0.0304
 8637SOL    HW227154   1.628   4.081   3.493 -0.3514  0.1809 -0.1900
 8638SOL     OW27155   8.180   4.244   4.148  0.1509 -0.2453  0.5693
 8638SOL    HW127156   8.149   4.226   4.059 -1.4728  0.8477  0.8926
 8638SOL    HW227157   8.181   4.158   4.190 -1.9655 -0.4046  0.3666
 8639SOL     OW27158   6.594   3.292   0.002 -0.4951 -0.3011 -0.7089
 8639SOL    HW127159   6.542   3.212  -0.001  0.6807 -1.1335  0.4056
 8639SOL    HW227160   6.537   3.360  -0.035 -1.7989 -1.4818 -0.8971
 8640SOL     OW27161   1.824   1.627   7.847  0.5108  0.1992 -0.4797
 8640SOL    HW127162   1.753   1.605   7.787  1.1137 -0.3293 -1.0110
 8640SOL    HW227163   1.816   1.722   7.860 -0.7161  0.0320  0.0257
 8641SOL     OW27164   3.373   6.419   7.499 -0.1262 -0.3467 -0.0185
 8641SOL    HW127165   3.288   6.399   7.540 -0.1200 -0.0694  0.1330
 8641SOL    HW227166   3.352   6.482   7.430 -0.1323 -0.7908 -0.4217
 8642SOL     OW27167   5.698   1.147   0.040 -0.3190 -0.3567  0.2856
 8642SOL    HW127168   5.791   1.132   0.056 -0.4273  1.0190  2.3591
 8642SOL    HW227169   5.693   1.238   0.010 -1.1430  0.0282  1.5720
 8643SOL     OW27170   7.557   7.239   1.163  0.3222  0.0944 -0.2615
 8643SOL    HW127171   7.482   7.180   1.177 -0.9055  2.1138  1.9373
 8643SOL    HW227172   7.633   7.181   1.164 -0.8867 -1.5180  1.4369
 8644SOL     OW27173   1.924   7.233   8.065 -0.3154 -0.0041  0.0663
 8644SOL    HW127174   1.877   7.312   8.040  0.5328  0.9899  1.5005
 8644SOL    HW227175   1.982   7.214   7.991 -1.7793 -0.2921 -1.0047
 8645SOL     OW27176   7.629   0.795   5.483  0.5870  0.1458  0.4666
 8645SOL    HW127177   7.680   0.727   5.440 -0.1041 -0.5383  0.7147
 8645SOL    HW227178   7.669   0.803   5.570 -0.8291 -1.6888  1.3419
 8646SOL     OW27179   5.908   4.451   5.913  0.4591 -0.0030 -0.1274
 8646SOL    HW127180   5.858   4.377   5.876  0.9966 -0.5577  0.2506
 8646SOL    HW227181   5.923   4.426   6.004  1.3632  0.2003 -0.2233
 8647SOL     OW27182   0.113   7.181   2.973 -0.2472  0.0935  0.2898
 8647SOL    HW127183   0.066   7.181   3.056 -0.4955 -1.2128  0.1607
 8647SOL    HW227184   0.044   7.177   2.906 -0.0480  1.0742  0.0134
 8648SOL     OW27185   4.451   0.865   5.645  0.8073 -0.0359 -0.3126
 8648SOL    HW127186   4.536   0.890   5.681  1.4868 -1.2850 -0.9980
 8648SOL    HW227187   4.414   0.806   5.711 -0.1768  1.6077  0.6492
 8649SOL     OW27188   7.331   1.186   2.290 -0.1839 -0.1540 -0.2137
 8649SOL    HW127189   7.279   1.139   2.355 -0.6913 -0.1398 -0.6034
 8649SOL    HW227190   7.298   1.275   2.291  1.7128  0.5749  1.5097
 8650SOL     OW27191   3.996   2.306   3.632 -0.3898 -0.3684 -0.5501
 8650SOL    HW127192   3.924   2.251   3.600 -1.4605 -0.4092  1.8331
 8650SOL    HW227193   3.963   2.395   3.622 -0.1564 -0.3168 -0.8711
 8651SOL     OW27194   3.712   6.598   0.963 -0.1749 -1.0738  0.4095
 8651SOL    HW127195   3.748   6.514   0.936 -1.0243 -1.0034 -0.9640
 8651SOL    HW227196   3.626   6.577   1.000  0.5655 -1.0568  2.2291
 8652SOL     OW27197   0.448   4.380   3.722 -0.0790 -0.8614 -0.0251
 8652SOL    HW127198   0.523   4.368   3.780 -0.6807  3.1910  1.7347
 8652SOL    HW227199   0.486   4.383   3.634  1.7226  0.0604  0.7553
 8653SOL     OW27200   0.547   0.130   8.138 -0.1849 -0.1957  0.1839
 8653SOL    HW127201   0.452   0.126   8.145 -0.1208  1.0496  2.0969
 8653SOL    HW227202   0.569   0.223   8.147  1.1674 -0.3558 -1.1213
 8654SOL     OW27203   5.086   2.076   6.958 -0.1646 -0.0042  0.6254
 8654SOL    HW127204   5.179   2.084   6.935 -0.1949  2.5423  1.2106
 8654SOL    HW227205   5.075   2.132   7.035 -2.1757 -0.2600  0.5540
 8655SOL     OW27206   2.135   3.603   0.920  0.1692  0.5404 -0.0094
 8655SOL    HW127207   2.177   3.527   0.880 -1.1009 -0.6922  0.9331
 8655SOL    HW227208   2.122   3.665   0.848  1.9539  0.2141 -0.6273
 8656SOL     OW27209   4.118   2.259   0.085  0.4419  0.1056 -0.4279
 8656SOL    HW127210   4.034   2.302   0.101  0.0427 -0.6382 -0.5261
 8656SOL    HW227211   4.103   2.168   0.109  1.3851  0.0841  0.1106
 8657SOL     OW27212   0.303   5.363   7.456  0.4450 -0.2856  0.8589
 8657SOL    HW127213   0.395   5.337   7.466  0.1192 -0.9010  2.2749
 8657SOL    HW227214   0.267   5.298   7.396  0.7340 -0.4968  0.9114
 8658SOL     OW27215   4.350   4.848   1.818 -0.3229  0.0453 -0.1265
 8658SOL    HW127216   4.335   4.934   1.780  1.6068  0.0571 -0.8909
 8658SOL    HW227217   4.298   4.789   1.763 -0.5242  0.5307 -0.4628
 8659SOL     OW27218   6.838   0.720   0.353 -0.1433  0.0268 -0.0083
 8659SOL    HW127219   6.889   0.777   0.296  0.7939 -0.4814  0.3093
 8659SOL    HW227220   6.750   0.757   0.352  0.0649  0.5110 -1.1131
 8660SOL     OW27221   1.385   8.062   7.497 -0.3967  0.2807  0.2124
 8660SOL    HW127222   1.301   8.024   7.472  0.7443 -0.5603 -2.5437
 8660SOL    HW227223   1.371   8.157   7.492 -1.1714  0.1455 -0.2141
 8661SOL     OW27224   0.400   0.178   1.812  0.6725  0.7346 -0.6623
 8661SOL    HW127225   0.439   0.208   1.730 -0.2959  3.1332 -0.2942
 8661SOL    HW227226   0.470   0.187   1.877  1.0672 -0.0031 -0.9752
 8662SOL     OW27227   0.403   7.219   4.598  0.6732 -0.7523 -0.4235
 8662SOL    HW127228   0.390   7.312   4.615 -1.7054 -1.3993  1.6008
 8662SOL    HW227229   0.354   7.203   4.517 -0.6834 -0.6213  0.3498
 8663SOL     OW27230   6.813   4.440   6.975 -0.6638 -0.0681 -0.9517
 8663SOL    HW127231   6.784   4.364   6.925  2.2570 -1.8516 -0.0852
 8663SOL    HW227232   6.874   4.485   6.916 -0.7605  0.4006 -0.6912
 8664SOL     OW27233   6.017   2.901   4.449  0.0188  0.4408 -0.3536
 8664SOL    HW127234   6.107   2.907   4.416 -0.6381 -0.6519 -2.4217
 8664SOL    HW227235   6.008   2.811   4.478  0.1815  1.0589  1.7150
 8665SOL     OW27236   0.523   6.659   3.321  0.5203  0.0562 -0.4223
 8665SOL    HW127237   0.444   6.629   3.276 -0.0552 -0.0658  0.6561
 8665SOL    HW227238   0.493   6.729   3.379  1.2100  0.0368 -0.0308
 8666SOL     OW27239   0.446   4.218   1.994 -0.1118  0.1132 -0.6948
 8666SOL    HW127240   0.364   4.177   1.964 -0.0827 -0.0324 -0.5751
 8666SOL    HW227241   0.425   4.253   2.080  0.1623 -0.5731 -0.3483
 8667SOL     OW27242   6.735   3.255   2.784 -0.1371  0.1689  0.0184
 8667SOL    HW127243   6.760   3.299   2.703 -0.6003  0.2533 -0.0825
 8667SOL    HW227244   6.659   3.202   2.760  0.4940 -0.7881  0.1088
 8668SOL     OW27245   5.939   6.800   4.518  0.7109  0.6073  0.0741
 8668SOL    HW127246   6.013   6.838   4.565  0.2675  1.0072  0.4476
 8668SOL    HW227247   5.935   6.847   4.435  1.7004 -0.3242 -0.5185
 8669SOL     OW27248   1.512   6.673   6.948  0.5090  0.3582  0.0212
 8669SOL    HW127249   1.560   6.646   7.026 -0.8210 -2.4252 -0.0391
 8669SOL    HW227250   1.470   6.592   6.917 -4.2108  2.5744  0.1140
 8670SOL     OW27251   0.869   3.557   0.738 -0.0455 -0.1591 -0.1390
 8670SOL    HW127252   0.935   3.581   0.672 -0.1105  0.2333 -0.0630
 8670SOL    HW227253   0.844   3.468   0.715  0.3960 -0.2543 -0.2667
 8671SOL     OW27254   6.133   8.244   2.558  0.3111 -0.2311 -0.0941
 8671SOL    HW127255   6.166   8.206   2.639  0.3323 -0.3727 -0.1695
 8671SOL    HW227256   6.051   8.288   2.583  1.2059  1.2255  0.3511
 8672SOL     OW27257   4.037   1.264   6.947  0.2101  0.4179 -0.0461
 8672SOL    HW127258   4.085   1.197   6.996  1.1001  0.1991 -1.1760
 8672SOL    HW227259   3.956   1.277   6.995  1.4871  0.9133  2.0134
 8673SOL     OW27260   0.664   6.659   1.204 -0.2160 -0.2736 -0.9118
 8673SOL    HW127261   0.748   6.673   1.248 -0.7219  0.3885 -0.1493
 8673SOL    HW227262   0.688   6.635   1.115  0.7701  1.4012 -1.1260
 8674SOL     OW27263   4.245   2.370   7.293 -0.1435  0.1056  0.6470
 8674SOL    HW127264   4.294   2.434   7.344  0.5068 -0.2549  0.4896
 8674SOL    HW227265   4.260   2.287   7.338 -0.1337 -0.1000  0.2666
 8675SOL     OW27266   3.020   4.737   4.562 -0.6882  0.3954 -0.6537
 8675SOL    HW127267   2.990   4.724   4.652 -2.7853 -1.5695 -1.5979
 8675SOL    HW227268   2.945   4.714   4.508  0.6185  1.3379 -2.9397
 8676SOL     OW27269   3.696   3.232   3.625 -0.5881  0.6062 -0.0932
 8676SOL    HW127270   3.665   3.313   3.666  0.3288  0.4918  0.8450
 8676SOL    HW227271   3.702   3.253   3.532 -0.1191  1.6944  0.1782
 8677SOL     OW27272   3.877   3.613   3.556 -0.0684 -0.1181 -0.1187
 8677SOL    HW127273   3.812   3.567   3.609 -0.5351 -0.6280 -1.1240
 8677SOL    HW227274   3.916   3.677   3.616 -0.3502 -0.9149  0.9306
 8678SOL     OW27275   0.523   7.078   1.680 -0.3241 -0.6581  0.3625
 8678SOL    HW127276   0.537   7.023   1.603 -2.8065 -1.1743  0.2189
 8678SOL    HW227277   0.557   7.163   1.656  0.3120 -1.2247 -0.7448
 8679SOL     OW27278   3.516   7.579   2.780  0.2430  0.2794  0.2229
 8679SOL    HW127279   3.448   7.598   2.845  0.0413 -0.0078  0.0974
 8679SOL    HW227280   3.485   7.499   2.736  1.7246 -1.1242  1.6474
 8680SOL     OW27281   6.665   7.935   6.247  0.2857 -0.2612 -0.0867
 8680SOL    HW127282   6.646   7.975   6.162 -2.6288  0.7191  0.9547
 8680SOL    HW227283   6.645   8.004   6.311  0.0533 -1.7791  1.5182
 8681SOL     OW27284   1.085   7.483   2.077  0.0052  0.6026  0.0640
 8681SOL    HW127285   1.068   7.418   2.009 -0.2417  0.6047  0.1232
 8681SOL    HW227286   1.153   7.443   2.131 -0.5065  0.1703  0.3997
 8682SOL     OW27287   2.571   0.239   4.407  0.4023  0.0173 -0.4579
 8682SOL    HW127288   2.521   0.248   4.488 -1.0777 -0.1627 -1.3331
 8682SOL    HW227289   2.661   0.222   4.436 -0.0751  0.1317  1.1366
 8683SOL     OW27290   5.828   5.447   2.597  0.2268  0.3120  0.5129
 8683SOL    HW127291   5.870   5.533   2.600  0.7890  0.0519  0.1946
 8683SOL    HW227292   5.735   5.466   2.592  0.4002  0.9168 -0.4508
 8684SOL     OW27293   4.907   1.938   0.558 -0.0558 -0.0713  0.8709
 8684SOL    HW127294   4.987   1.887   0.569  0.2121 -0.0715 -0.8500
 8684SOL    HW227295   4.938   2.028   0.545 -0.1641 -0.4037 -2.0712
 8685SOL     OW27296   1.186   5.927   3.223  0.8563 -0.6877  0.2351
 8685SOL    HW127297   1.230   5.867   3.284 -0.6195 -0.0898  1.9424
 8685SOL    HW227298   1.144   5.870   3.159  0.9111 -1.4215  0.8430
 8686SOL     OW27299   5.159   7.977   2.507  0.1768  0.2584 -0.1308
 8686SOL    HW127300   5.219   7.918   2.462  1.4135  2.0105 -0.8752
 8686SOL    HW227301   5.216   8.039   2.552 -1.0578  2.0730 -1.0010
 8687SOL     OW27302   4.512   2.847   3.103  0.0285  0.5087  0.4455
 8687SOL    HW127303   4.552   2.854   3.017 -0.9991  0.3377 -0.0595
 8687SOL    HW227304   4.427   2.805   3.087 -0.1070  0.3269  1.5555
 8688SOL     OW27305   4.624   5.840   5.882 -0.5207  0.0102 -0.2205
 8688SOL    HW127306   4.542   5.848   5.833  0.1665  0.4873 -1.3287
 8688SOL    HW227307   4.662   5.758   5.851 -0.8431 -0.4875  0.7030
 8689SOL     OW27308   5.407   3.102   7.937 -0.2366  0.4720  0.4831
 8689SOL    HW127309   5.444   3.143   8.015 -0.3272  0.5717  0.4744
 8689SOL    HW227310   5.478   3.102   7.873 -0.5577  1.6150  0.1162
 8690SOL     OW27311   0.919   1.230   7.374 -0.0202  0.1028 -0.3798
 8690SOL    HW127312   0.843   1.194   7.419 -1.1748 -1.1437 -3.2054
 8690SOL    HW227313   0.941   1.309   7.422 -1.5942 -0.8270  1.9347
 8691SOL     OW27314   1.243   4.068   0.801 -0.1500  0.1167  0.0970
 8691SOL    HW127315   1.282   4.151   0.772  2.3248 -0.9159  0.3294
 8691SOL    HW227316   1.234   4.017   0.720  1.6895 -0.7126  0.3890
 8692SOL     OW27317   1.940   1.893   0.248  0.6116 -0.5845  0.7796
 8692SOL    HW127318   2.001   1.917   0.318  1.7313  0.6585 -0.5842
 8692SOL    HW227319   1.996   1.869   0.174 -0.5260  0.1117 -0.3345
 8693SOL     OW27320   3.269   0.505   1.146 -0.0491 -0.2183 -0.0445
 8693SOL    HW127321   3.181   0.471   1.157  0.3536 -0.4255  2.9052
 8693SOL    HW227322   3.325   0.427   1.146  0.2528 -0.0122 -0.7814
 8694SOL     OW27323   0.897   6.917   1.865 -0.1956 -0.1718 -0.1465
 8694SOL    HW127324   0.837   6.991   1.878  0.0753 -0.1416  0.9098
 8694SOL    HW227325   0.901   6.907   1.769  1.0717  2.2622 -0.3900
 8695SOL     OW27326   1.041   4.428   1.054  0.2526  0.1216 -0.4288
 8695SOL    HW127327   1.029   4.358   1.118  3.5135 -0.1363 -0.0197
 8695SOL    HW227328   0.984   4.498   1.084  2.8428  0.6145  3.7661
 8696SOL     OW27329   7.443   6.584   5.968 -0.1414  0.5384  0.0838
 8696SOL    HW127330   7.442   6.655   5.903  2.0046  0.5342  0.0138
 8696SOL    HW227331   7.511   6.609   6.031 -0.3509 -0.7560  0.8469
 8697SOL     OW27332   1.771   0.707   6.907 -0.1371 -0.2156 -0.0001
 8697SOL    HW127333   1.696   0.729   6.962 -0.5074  1.3884 -1.1050
 8697SOL    HW227334   1.842   0.762   6.941 -0.3859  0.8358 -1.1333
 8698SOL     OW27335   5.642   8.268   7.712  0.2312 -0.0971 -0.1819
 8698SOL    HW127336   5.553   8.264   7.748  0.5109  2.1069  0.8475
 8698SOL    HW227337   5.645   8.196   7.649 -2.2022 -0.3867 -0.0426
 8699SOL     OW27338   5.144   4.774   4.884 -0.0179 -0.2748 -0.2121
 8699SOL    HW127339   5.176   4.696   4.929  1.4711 -0.4141 -1.4352
 8699SOL    HW227340   5.149   4.751   4.791 -0.8204  0.8169 -0.5334
 8700SOL     OW27341   1.844   6.273   7.034  0.2221 -0.0051 -0.5653
 8700SOL    HW127342   1.798   6.351   7.067 -1.5534 -0.3935 -2.0262
 8700SOL    HW227343   1.895   6.241   7.108 -2.5519 -0.0324  1.3779
 8701SOL     OW27344   2.257   2.452   5.397  0.0076  0.4110  0.7337
 8701SOL    HW127345   2.207   2.457   5.478 -2.6577 -1.9951 -0.7079
 8701SOL    HW227346   2.231   2.530   5.348  0.1252  0.8358  1.3405
 8702SOL     OW27347   0.602   0.876   3.810  0.1147 -0.5240 -0.0074
 8702SOL    HW127348   0.683   0.879   3.861 -0.5365  0.2822  1.0046
 8702SOL    HW227349   0.569   0.787   3.822  0.7239 -0.7820 -0.2230
 8703SOL     OW27350   1.839   1.092   7.599 -0.2560  0.2197 -0.0960
 8703SOL    HW127351   1.826   1.001   7.574 -2.6778  0.6691 -0.5202
 8703SOL    HW227352   1.907   1.123   7.539 -0.5557 -0.8613 -1.0188
 8704SOL     OW27353   3.765   3.930   7.870  0.6033 -0.0519  0.0633
 8704SOL    HW127354   3.802   4.017   7.887 -1.2631  0.7037  0.3512
 8704SOL    HW227355   3.802   3.905   7.785  0.8208  1.2172 -0.2365
 8705SOL     OW27356   5.289   5.582   0.455  0.2607  0.0701  0.1168
 8705SOL    HW127357   5.276   5.663   0.405  0.2647  0.1196  0.1961
 8705SOL    HW227358   5.265   5.605   0.545  3.0391  0.7892  0.7278
 8706SOL     OW27359   4.242   2.206   4.864 -0.0105  0.0658 -0.4697
 8706SOL    HW127360   4.288   2.290   4.858  0.2631  0.0203  0.8959
 8706SOL    HW227361   4.175   2.220   4.932  0.1516 -0.8717 -0.1127
 8707SOL     OW27362   8.064   2.579   3.623 -0.2051 -0.4933 -0.0150
 8707SOL    HW127363   8.032   2.621   3.702 -2.3253  1.2928 -1.7452
 8707SOL    HW227364   7.989   2.527   3.592  0.4427 -0.8021 -1.1015
 8708SOL     OW27365   1.657   0.413   2.356 -0.6223 -0.2198  0.4184
 8708SOL    HW127366   1.638   0.466   2.433  0.5792  2.2606 -0.9568
 8708SOL    HW227367   1.576   0.413   2.305 -0.6145  0.3273  0.4065
 8709SOL     OW27368   7.791   6.273   5.083 -0.5892 -0.5354  0.1524
 8709SOL    HW127369   7.742   6.192   5.093 -2.5046  0.4342 -0.9555
 8709SOL    HW227370   7.806   6.304   5.172  0.1630 -2.0715  0.5848
 8710SOL     OW27371   4.949   1.887   7.741 -0.4332  0.1745 -0.4537
 8710SOL    HW127372   4.915   1.968   7.777 -0.5968 -0.0728 -0.0554
 8710SOL    HW227373   5.024   1.914   7.688  1.7472  0.2385  2.5664
 8711SOL     OW27374   0.914   6.927   3.078 -0.8346 -0.0442  0.0016
 8711SOL    HW127375   0.982   6.868   3.046 -1.2604 -0.6273  0.1552
 8711SOL    HW227376   0.873   6.879   3.150 -1.6189  0.1700 -0.3003
 8712SOL     OW27377   8.152   4.540   5.414 -0.6053 -0.2571  0.4472
 8712SOL    HW127378   8.141   4.586   5.498 -1.1419  1.2214 -0.4092
 8712SOL    HW227379   8.090   4.583   5.355 -0.2122 -1.2631 -0.7192
 8713SOL     OW27380   3.832   3.824   3.346 -0.2619  0.2070  0.4094
 8713SOL    HW127381   3.850   3.740   3.389 -2.3341  0.1588  1.2572
 8713SOL    HW227382   3.778   3.801   3.271  0.6694  0.6219 -0.4002
 8714SOL     OW27383   0.495   1.106   3.971 -0.2713  0.1990  0.1646
 8714SOL    HW127384   0.570   1.047   3.982  0.2320  0.9914  1.0925
 8714SOL    HW227385   0.470   1.129   4.060 -1.5775  0.0071 -0.1517
 8715SOL     OW27386   3.871   3.787   7.635  0.8289 -0.4052 -0.8517
 8715SOL    HW127387   3.938   3.730   7.673 -0.5965 -2.1153 -0.8766
 8715SOL    HW227388   3.863   3.757   7.544  0.1004 -0.1395 -0.8749
 8716SOL     OW27389   4.892   6.316   3.035 -0.6027 -0.3792  0.0340
 8716SOL    HW127390   4.810   6.268   3.046 -0.8757  0.0777  0.0222
 8716SOL    HW227391   4.917   6.343   3.124  0.3762 -1.8883  0.2253
 8717SOL     OW27392   1.390   4.275   3.845  0.5800 -0.4820  0.0743
 8717SOL    HW127393   1.354   4.225   3.771 -0.0436  2.1392 -1.4707
 8717SOL    HW227394   1.409   4.361   3.808  2.5727  0.1412  2.4220
 8718SOL     OW27395   2.544   5.103   6.724  0.0724 -0.1642  0.1525
 8718SOL    HW127396   2.462   5.140   6.690 -0.5317 -1.4283  0.1873
 8718SOL    HW227397   2.524   5.010   6.737  1.8724 -0.7243 -0.9667
 8719SOL     OW27398   4.420   0.275   0.054  0.0597 -0.3706  0.3325
 8719SOL    HW127399   4.341   0.312   0.015 -0.8914 -1.3415  1.3233
 8719SOL    HW227400   4.425   0.316   0.140  1.0116  0.1990  0.0105
 8720SOL     OW27401   3.778   1.630   2.643 -0.1387  0.0671 -0.3525
 8720SOL    HW127402   3.804   1.719   2.665  2.1850 -0.0388 -2.4930
 8720SOL    HW227403   3.801   1.579   2.721  0.9077  0.9202 -0.0964
 8721SOL     OW27404   1.978   8.269   7.816 -0.7712 -0.2730 -0.0451
 8721SOL    HW127405   2.007   8.201   7.755  3.0300 -0.2594  1.6069
 8721SOL    HW227406   1.931   8.222   7.884  0.2033 -1.0287  0.1131
 8722SOL     OW27407   1.676   3.169   4.196  0.6334 -0.2502 -0.0514
 8722SOL    HW127408   1.686   3.078   4.167  0.2677  0.3919 -2.3236
 8722SOL    HW227409   1.762   3.209   4.182  0.7665 -0.2232  0.8468
 8723SOL     OW27410   1.099   1.972   1.392  0.1662  0.7789 -0.3205
 8723SOL    HW127411   1.126   1.911   1.324  0.4218  0.4718  0.0499
 8723SOL    HW227412   1.180   1.992   1.440 -0.2465 -0.1272  0.7801
 8724SOL     OW27413   3.411   7.298   6.744 -0.5926  0.1205  0.1064
 8724SOL    HW127414   3.350   7.280   6.815  0.2241  1.0217  1.0509
 8724SOL    HW227415   3.491   7.326   6.788 -0.1037  0.7503 -1.1670
 8725SOL     OW27416   7.401   4.357   4.760 -0.5122  0.3686  0.3196
 8725SOL    HW127417   7.429   4.447   4.739  2.3925 -0.8517 -1.2689
 8725SOL    HW227418   7.345   4.332   4.686  0.9899 -0.1061 -0.6797
 8726SOL     OW27419   7.981   2.493   7.974 -0.2407  0.0182 -0.3427
 8726SOL    HW127420   7.920   2.433   8.018 -0.7230  1.4814  1.0464
 8726SOL    HW227421   7.927   2.541   7.912 -0.3256  0.6836  0.2449
 8727SOL     OW27422   0.023   4.871   2.154 -0.1324 -0.1339  0.1353
 8727SOL    HW127423  -0.031   4.946   2.179 -0.4921 -0.2127 -0.4201
 8727SOL    HW227424  -0.016   4.797   2.200  1.3118  0.3172  2.1530
 8728SOL     OW27425   0.029   1.307   3.766 -0.3901  0.1607  0.0005
 8728SOL    HW127426  -0.046   1.248   3.769 -0.2114 -0.0780 -0.2199
 8728SOL    HW227427   0.103   1.254   3.796 -0.2885  0.3637  0.1110
 8729SOL     OW27428   4.728   2.101   6.479  0.4247  0.3843  0.1343
 8729SOL    HW127429   4.676   2.161   6.425 -0.1457  0.1814  0.4498
 8729SOL    HW227430   4.813   2.144   6.486  0.8708 -0.1278 -1.8442
 8730SOL     OW27431   5.901   3.924   5.463 -0.8452  0.1349  0.4839
 8730SOL    HW127432   5.863   3.937   5.550  0.3221 -1.5188  1.2588
 8730SOL    HW227433   5.991   3.896   5.480 -0.0735  1.4335 -1.2959
 8731SOL     OW27434   4.192   3.621   4.914 -0.3936 -0.2245  0.4723
 8731SOL    HW127435   4.243   3.647   4.838 -1.0013 -0.2397  0.0588
 8731SOL    HW227436   4.250   3.564   4.964  0.7504  1.4523  1.0930
 8732SOL     OW27437   3.105   0.940   2.199 -0.4185 -0.1583  0.9756
 8732SOL    HW127438   3.075   1.028   2.176  1.7859  0.5400  0.6439
 8732SOL    HW227439   3.123   0.944   2.293 -1.0847 -0.4949  1.1201
 8733SOL     OW27440   5.261   0.161   1.709 -0.4410 -0.4978 -0.3741
 8733SOL    HW127441   5.264   0.244   1.757  2.1146 -0.7871  0.0433
 8733SOL    HW227442   5.318   0.176   1.634  0.7283 -2.1469  0.1694
 8734SOL     OW27443   0.375   0.138   7.370  0.2810  0.2395  0.6557
 8734SOL    HW127444   0.405   0.069   7.311  1.1217  0.3066  0.9957
 8734SOL    HW227445   0.419   0.217   7.339 -0.5938  0.6072  0.3360
 8735SOL     OW27446   5.043   5.547   0.133 -0.3764  0.1421  0.1571
 8735SOL    HW127447   5.010   5.629   0.094 -1.0050 -0.1920 -0.0286
 8735SOL    HW227448   4.974   5.521   0.194 -0.8880 -1.0493 -0.9057
 8736SOL     OW27449   2.616   1.433   5.863 -0.3333 -1.3718  0.3684
 8736SOL    HW127450   2.605   1.471   5.950  0.1799 -1.6071  0.5346
 8736SOL    HW227451   2.531   1.394   5.844 -0.2067 -2.0142  1.1001
 8737SOL     OW27452   2.626   0.828   7.806 -0.4873  0.1995  0.3726
 8737SOL    HW127453   2.622   0.750   7.860 -0.2627  0.3075  0.5447
 8737SOL    HW227454   2.681   0.803   7.731  1.1258  0.7433  1.3432
 8738SOL     OW27455   7.463   4.305   3.191 -0.1937 -0.8531 -0.8418
 8738SOL    HW127456   7.538   4.284   3.247  0.1262  1.7252 -0.2542
 8738SOL    HW227457   7.409   4.364   3.243 -2.1765 -1.8997 -1.6343
 8739SOL     OW27458   3.360   7.336   4.560  0.2319  0.5317  0.6653
 8739SOL    HW127459   3.411   7.337   4.479 -2.5922 -0.5585 -1.1998
 8739SOL    HW227460   3.374   7.249   4.596 -1.1638 -0.1677 -0.4424
 8740SOL     OW27461   2.467   4.068   0.012 -0.0646 -0.0067 -0.6017
 8740SOL    HW127462   2.507   4.153   0.033  1.8632 -0.5812 -1.7656
 8740SOL    HW227463   2.450   4.028   0.097 -2.1151  2.0240 -0.0064
 8741SOL     OW27464   4.869   3.943   4.721  0.6318 -0.6093  0.3656
 8741SOL    HW127465   4.876   3.896   4.639  2.5341 -1.9031  1.2237
 8741SOL    HW227466   4.783   3.984   4.719 -0.0928 -2.1729 -1.4358
 8742SOL     OW27467   2.970   5.253   6.681 -0.5381 -0.1076 -0.0071
 8742SOL    HW127468   2.965   5.331   6.626  0.3473  0.6594  0.9665
 8742SOL    HW227469   2.891   5.203   6.661 -0.7914  0.7339 -1.1063
 8743SOL     OW27470   0.858   0.283   3.194  0.3664  0.0189  0.6223
 8743SOL    HW127471   0.848   0.276   3.289 -1.9470 -0.4789  0.3623
 8743SOL    HW227472   0.772   0.263   3.159  1.9602 -3.0843 -1.7573
 8744SOL     OW27473   7.864   6.633   3.440 -0.5467  0.1881  0.5715
 8744SOL    HW127474   7.955   6.627   3.410 -0.9066 -2.7322 -0.0541
 8744SOL    HW227475   7.817   6.669   3.364 -0.1470  0.4582  0.4455
 8745SOL     OW27476   6.692   5.756   1.169  0.2091 -0.1623  0.1708
 8745SOL    HW127477   6.709   5.727   1.080  0.6034 -0.9260  0.4939
 8745SOL    HW227478   6.611   5.808   1.162  0.4834  0.1583 -0.6975
 8746SOL     OW27479   5.724   4.917   2.789  0.4433  0.2404  0.2223
 8746SOL    HW127480   5.756   4.931   2.700 -1.4993 -1.1334 -0.7383
 8746SOL    HW227481   5.770   4.839   2.819  0.8273  0.4934  0.2966
 8747SOL     OW27482   5.191   4.892   3.938 -0.3478 -0.2970 -0.1797
 8747SOL    HW127483   5.125   4.823   3.942 -1.7822  1.0722  0.6085
 8747SOL    HW227484   5.226   4.887   3.850 -0.4834 -1.9907 -0.1413
 8748SOL     OW27485   1.936   4.305   7.174 -0.0278  0.3467 -0.3113
 8748SOL    HW127486   1.949   4.372   7.107 -2.9225  0.8705 -0.3801
 8748SOL    HW227487   1.948   4.351   7.257 -1.0769  0.7512 -0.3788
 8749SOL     OW27488   2.433   2.857   5.314  0.4806 -0.0429  0.0926
 8749SOL    HW127489   2.340   2.850   5.336  0.3987 -0.6245 -0.4254
 8749SOL    HW227490   2.478   2.833   5.394  0.1806 -1.5397 -0.1709
 8750SOL     OW27491   2.602   1.098   3.015  0.6016  0.3502  0.3937
 8750SOL    HW127492   2.567   1.020   2.971  0.5962  0.1356  0.7726
 8750SOL    HW227493   2.675   1.065   3.067 -0.0527  0.4213  1.3751
 8751SOL     OW27494   0.648   0.681   2.094  0.0522 -0.1942  0.0454
 8751SOL    HW127495   0.560   0.651   2.075 -0.2409  0.2943  0.6371
 8751SOL    HW227496   0.638   0.746   2.164  0.7974  0.4105 -0.3876
 8752SOL     OW27497   2.065   7.181   7.817  0.2413  1.3598 -0.0703
 8752SOL    HW127498   2.140   7.232   7.786  0.5721 -0.2587 -2.0089
 8752SOL    HW227499   2.104   7.109   7.867  0.0329  0.2294 -1.4997
 8753SOL     OW27500   0.706   6.073   8.166 -0.1838  0.0289  0.3546
 8753SOL    HW127501   0.766   6.147   8.153 -1.9932  1.2046 -1.6497
 8753SOL    HW227502   0.619   6.113   8.165 -1.1655 -2.0753 -0.2582
 8754SOL     OW27503   0.103   6.623   6.517 -0.3359  0.1820 -0.2063
 8754SOL    HW127504   0.100   6.646   6.610  0.7951  0.0800 -0.1425
 8754SOL    HW227505   0.189   6.652   6.488 -0.2818 -0.7443 -0.9777
 8755SOL     OW27506   2.462   1.824   1.740  0.5224  0.6525  0.6197
 8755SOL    HW127507   2.434   1.912   1.714  1.0032  0.7874  0.5505
 8755SOL    HW227508   2.405   1.765   1.691  0.6109  0.9196  0.1941
 8756SOL     OW27509   5.078   2.242   7.640  0.4540 -0.5051  0.2370
 8756SOL    HW127510   4.987   2.229   7.615  0.7382 -1.3420 -0.3646
 8756SOL    HW227511   5.074   2.305   7.713 -0.5060  0.4258 -0.6068
 8757SOL     OW27512   6.913   3.828   8.257 -0.0614  0.4101 -0.1153
 8757SOL    HW127513   6.999   3.786   8.255 -0.5702 -0.5765 -1.6515
 8757SOL    HW227514   6.851   3.757   8.246 -1.0262  1.2807 -0.3902
 8758SOL     OW27515   7.568   6.084   4.854 -0.1526 -0.3964  0.5893
 8758SOL    HW127516   7.583   6.122   4.940  0.3737 -0.3802  0.4923
 8758SOL    HW227517   7.642   6.115   4.801 -1.3981  1.0413 -0.3433
 8759SOL     OW27518   0.052   7.131   7.780  0.6243 -0.0389 -0.1966
 8759SOL    HW127519   0.144   7.114   7.761  1.1350 -2.2156  3.7006
 8759SOL    HW227520   0.050   7.220   7.815  1.2475 -0.0198 -0.2104
 8760SOL     OW27521   0.402   2.501   5.190 -0.2659  0.1697  0.0566
 8760SOL    HW127522   0.333   2.560   5.159  1.0955  2.5377  1.4199
 8760SOL    HW227523   0.470   2.506   5.123 -0.5840 -0.6563 -0.3314
 8761SOL     OW27524   4.195   5.589   1.386  0.4869  0.2817  0.8784
 8761SOL    HW127525   4.258   5.659   1.404 -0.5683  1.4874 -0.0599
 8761SOL    HW227526   4.147   5.579   1.468 -0.4199  1.7621  0.5437
 8762SOL     OW27527   5.840   2.216   1.491  0.2892  0.0980 -0.2296
 8762SOL    HW127528   5.781   2.289   1.477  1.5402  1.0497 -0.6726
 8762SOL    HW227529   5.795   2.140   1.453 -2.1490  0.1014  2.5240
 8763SOL     OW27530   1.273   4.676   7.785  0.4586 -0.1439 -0.1531
 8763SOL    HW127531   1.267   4.581   7.792 -3.1040  0.0720  0.9917
 8763SOL    HW227532   1.284   4.706   7.875 -3.1235  0.6587  0.1224
 8764SOL     OW27533   2.165   5.337   7.933  0.0248  0.0024  0.6034
 8764SOL    HW127534   2.188   5.248   7.956  0.1858 -0.3185 -0.7739
 8764SOL    HW227535   2.233   5.366   7.872 -0.8368  0.5283 -0.1391
 8765SOL     OW27536   7.504   0.917   4.006  0.0849 -0.2066 -0.1814
 8765SOL    HW127537   7.462   0.977   3.944 -0.3754 -0.9614 -0.5998
 8765SOL    HW227538   7.568   0.869   3.954 -1.0898 -1.6460 -0.3257
 8766SOL     OW27539   6.312   7.350   8.157  0.0111 -0.6480 -0.1880
 8766SOL    HW127540   6.256   7.367   8.081 -0.3323 -0.7643  0.0335
 8766SOL    HW227541   6.278   7.268   8.194 -0.5330 -0.0347  0.7173
 8767SOL     OW27542   1.991   1.406   3.543 -0.0754 -0.0061 -0.4424
 8767SOL    HW127543   1.951   1.320   3.533 -1.5445  0.5162  0.8088
 8767SOL    HW227544   1.936   1.463   3.488 -0.5340  0.5533  0.5923
 8768SOL     OW27545   4.150   6.396   5.437 -0.5540  0.1213 -0.0740
 8768SOL    HW127546   4.151   6.465   5.503 -0.9920 -0.7693  0.8531
 8768SOL    HW227547   4.197   6.435   5.362  0.4234  0.9236  0.9392
 8769SOL     OW27548   6.064   0.444   6.210  0.3001  0.0284  0.3851
 8769SOL    HW127549   6.072   0.486   6.124 -0.1803  0.3394  0.4935
 8769SOL    HW227550   6.010   0.368   6.195 -0.9643  0.8575  0.6796
 8770SOL     OW27551   6.334   6.933   1.926 -0.1847  0.1614 -0.0720
 8770SOL    HW127552   6.402   6.935   1.858  0.2380 -1.7379  0.2596
 8770SOL    HW227553   6.278   7.008   1.906  1.6635  1.4127 -0.7117
 8771SOL     OW27554   1.180   6.178   1.147  0.0481  0.4325 -0.0684
 8771SOL    HW127555   1.224   6.209   1.226  1.4056  3.6968 -1.9989
 8771SOL    HW227556   1.105   6.236   1.137 -1.7262 -1.7559  0.3133
 8772SOL     OW27557   0.246   1.774   4.560  0.4612  0.0697 -0.0016
 8772SOL    HW127558   0.304   1.702   4.585  0.5672 -0.1850 -0.9654
 8772SOL    HW227559   0.260   1.784   4.465 -0.0916  0.8747  0.0021
 8773SOL     OW27560   1.169   3.696   3.181 -0.1639  0.3452 -0.1613
 8773SOL    HW127561   1.253   3.727   3.145 -0.0108  0.6220  0.4329
 8773SOL    HW227562   1.142   3.626   3.121  2.4591 -2.5183  1.8399
 8774SOL     OW27563   6.090   5.687   3.559  0.3565  0.3694 -0.1945
 8774SOL    HW127564   6.143   5.625   3.609  0.7588  1.5525  0.8750
 8774SOL    HW227565   6.153   5.741   3.511 -0.0055 -0.2985 -1.4344
 8775SOL     OW27566   0.010   5.412   2.616 -0.0886 -0.2932  0.6224
 8775SOL    HW127567   0.058   5.480   2.664  0.1294 -0.4836  0.6733
 8775SOL    HW227568  -0.015   5.455   2.534 -0.4574  0.0296  0.9029
 8776SOL     OW27569   1.643   7.606   1.986  0.8863 -0.3391  0.2986
 8776SOL    HW127570   1.690   7.596   1.903  1.0110  0.7673  0.2386
 8776SOL    HW227571   1.589   7.684   1.975  0.1436 -0.7599  0.9023
 8777SOL     OW27572   8.153   3.279   3.431 -0.6901 -0.1456  0.3492
 8777SOL    HW127573   8.170   3.224   3.354 -0.5832 -0.0305  0.2902
 8777SOL    HW227574   8.193   3.363   3.409 -0.6290 -0.1232  0.5450
 8778SOL     OW27575   0.915   7.818   1.779 -0.4851  0.5252  0.4680
 8778SOL    HW127576   0.940   7.767   1.856  2.2813  0.8524 -0.1567
 8778SOL    HW227577   0.820   7.826   1.785 -0.7902 -3.0924  1.5462
 8779SOL     OW27578   1.109   4.896   2.511 -0.0885  0.1086  0.3255
 8779SOL    HW127579   1.167   4.968   2.534 -0.8347  0.3825  1.4105
 8779SOL    HW227580   1.166   4.828   2.477  0.7388  0.8124  0.3032
 8780SOL     OW27581   6.779   6.105   1.052  1.2113 -1.0568  0.0140
 8780SOL    HW127582   6.712   6.173   1.054 -0.5770 -2.7689  0.4676
 8780SOL    HW227583   6.796   6.087   1.145  1.3831 -1.4960 -0.1045
 8781SOL     OW27584   3.963   3.200   0.742  0.4134  0.1709  0.2937
 8781SOL    HW127585   3.875   3.180   0.710  0.7376 -0.5863 -0.1432
 8781SOL    HW227586   3.991   3.119   0.785  0.1097  1.0754  2.2189
 8782SOL     OW27587   2.475   0.322   1.017  0.1634 -0.4697  0.3120
 8782SOL    HW127588   2.493   0.379   1.093 -1.6827 -1.4965  1.5466
 8782SOL    HW227589   2.482   0.233   1.052 -0.8680 -0.9495 -0.6893
 8783SOL     OW27590   5.357   1.051   5.967 -0.0299 -0.5543 -0.0229
 8783SOL    HW127591   5.286   0.997   5.933 -1.1336  0.7353  0.1682
 8783SOL    HW227592   5.392   1.095   5.890 -0.9023  0.4803  0.1543
 8784SOL     OW27593   1.097   6.358   5.533 -0.2376  0.4999  0.1631
 8784SOL    HW127594   1.067   6.267   5.525  1.3953  0.0339 -0.7807
 8784SOL    HW227595   1.018   6.410   5.520 -0.9932 -0.7514 -0.3763
 8785SOL     OW27596   4.125   2.618   0.875  0.2210  0.0522  0.8473
 8785SOL    HW127597   4.158   2.528   0.867 -0.7833 -0.3154  0.6129
 8785SOL    HW227598   4.074   2.631   0.795 -2.6413 -0.4921  2.4940
 8786SOL     OW27599   5.490   0.511   7.704 -0.2160 -0.3442  0.2374
 8786SOL    HW127600   5.558   0.454   7.740  1.7027  0.5114 -1.9735
 8786SOL    HW227601   5.520   0.535   7.617 -2.1145  2.1476  0.1723
 8787SOL     OW27602   0.684   6.919   2.856  0.5856 -0.2360 -0.2949
 8787SOL    HW127603   0.736   6.976   2.912 -0.4115  0.8440 -0.4447
 8787SOL    HW227604   0.597   6.918   2.897  0.0278  0.0444 -1.4576
 8788SOL     OW27605   7.214   0.987   1.976 -0.2395 -0.0992 -0.2427
 8788SOL    HW127606   7.289   1.013   2.029 -0.2416  0.4822 -0.5204
 8788SOL    HW227607   7.220   0.891   1.969 -0.7597 -0.2803  1.5836
 8789SOL     OW27608   4.364   7.458   4.109 -0.4295  0.5510  0.4086
 8789SOL    HW127609   4.374   7.551   4.089 -1.5346  0.6211  0.1083
 8789SOL    HW227610   4.396   7.448   4.198 -1.2879  1.4281  0.8232
 8790SOL     OW27611   0.999   0.382   5.161  0.0200  0.3734  0.1817
 8790SOL    HW127612   1.059   0.389   5.088  1.9026 -0.5609  1.5912
 8790SOL    HW227613   1.030   0.447   5.225 -0.9877  0.4902  0.5728
 8791SOL     OW27614   5.837   3.185   0.970  0.3100  0.1582 -0.3290
 8791SOL    HW127615   5.789   3.263   0.943 -0.8252  0.2636  1.9347
 8791SOL    HW227616   5.917   3.218   1.011 -0.1853  0.1505  0.6579
 8792SOL     OW27617   5.897   0.142   3.242  0.0920  0.1638 -0.2861
 8792SOL    HW127618   5.826   0.158   3.180  0.7296  1.7025 -0.6383
 8792SOL    HW227619   5.854   0.140   3.328 -0.4819  0.2724 -0.5691
 8793SOL     OW27620   4.914   7.608   1.241 -0.7563  0.2538 -0.0249
 8793SOL    HW127621   4.978   7.606   1.169  1.0496  1.2389  1.5122
 8793SOL    HW227622   4.907   7.517   1.269  1.1111  0.3199  0.7357
 8794SOL     OW27623   7.983   5.500   0.392  0.0631 -0.0120  0.3820
 8794SOL    HW127624   8.028   5.578   0.424  1.5712 -1.2571  1.3228
 8794SOL    HW227625   7.899   5.533   0.360  0.6347  1.9836  0.8689
 8795SOL     OW27626   2.660   5.695   8.137 -0.0097 -0.4710 -0.1084
 8795SOL    HW127627   2.732   5.632   8.130  0.6751  0.4163 -1.1110
 8795SOL    HW227628   2.673   5.736   8.223  1.1277  0.2084 -0.5931
 8796SOL     OW27629   5.952   0.243   7.134 -0.3140 -0.2873  0.0366
 8796SOL    HW127630   5.878   0.279   7.085 -0.3036  1.1644  1.0399
 8796SOL    HW227631   5.983   0.170   7.081 -0.0649  1.4654 -2.3400
 8797SOL     OW27632   5.447   5.395   1.859 -0.2556  0.6833  0.1709
 8797SOL    HW127633   5.488   5.433   1.781 -0.6257  0.6257 -0.0517
 8797SOL    HW227634   5.495   5.433   1.933 -0.3251  1.2262 -0.0641
 8798SOL     OW27635   3.163   2.759   5.651  0.0587  0.1558  0.1262
 8798SOL    HW127636   3.203   2.846   5.658  1.3156 -0.2507 -1.8274
 8798SOL    HW227637   3.226   2.700   5.692  0.2418 -0.1295 -0.5625
 8799SOL     OW27638   7.265   5.762   8.017  0.7312 -0.2073 -0.1890
 8799SOL    HW127639   7.358   5.785   8.026  1.1191 -2.0267  0.6258
 8799SOL    HW227640   7.262   5.701   7.943  0.3113 -0.8239  0.3325
 8800SOL     OW27641   6.476   6.325   0.043  0.2377  0.2110 -0.0818
 8800SOL    HW127642   6.470   6.233   0.069 -0.0218  0.8537  2.2292
 8800SOL    HW227643   6.387   6.348   0.018  0.6863 -0.7031 -2.7120
 8801SOL     OW27644   6.992   3.971   0.774 -0.2309 -1.0632 -0.1789
 8801SOL    HW127645   6.992   3.982   0.869 -1.2996 -0.8379 -0.1934
 8801SOL    HW227646   7.069   4.019   0.744 -0.0160 -0.9444  0.5519
 8802SOL     OW27647   3.247   0.073   5.933 -0.2958  0.2388  0.4678
 8802SOL    HW127648   3.309   0.133   5.974 -2.4127  2.1404  0.9950
 8802SOL    HW227649   3.223   0.012   6.002  2.3497 -1.6754 -0.2414
 8803SOL     OW27650   4.855   1.258   7.076 -0.0736 -0.1751 -0.1505
 8803SOL    HW127651   4.886   1.284   6.989 -0.0425 -0.2566 -0.1643
 8803SOL    HW227652   4.793   1.187   7.059 -0.4841  0.1838 -0.1402
 8804SOL     OW27653   6.650   4.915   6.779 -0.0993  0.3614  0.3248
 8804SOL    HW127654   6.672   4.910   6.686  0.5261  0.9752  0.4340
 8804SOL    HW227655   6.598   4.996   6.787  1.0934  1.0903  0.7499
 8805SOL     OW27656   7.052   5.996   0.737  0.2602 -0.3161 -0.0714
 8805SOL    HW127657   7.084   6.086   0.743 -1.1852  0.1361  1.0996
 8805SOL    HW227658   7.118   5.944   0.783  0.3789  0.3394  0.5058
 8806SOL     OW27659   2.504   1.835   7.064  0.5883 -0.2915  0.2458
 8806SOL    HW127660   2.586   1.873   7.034 -1.0435  2.0697 -1.3792
 8806SOL    HW227661   2.504   1.746   7.029  2.8887 -0.6863  1.1503
 8807SOL     OW27662   0.975   1.977   4.473  0.3204 -0.3697  0.0273
 8807SOL    HW127663   0.990   1.926   4.553 -0.3820 -0.4067  0.1433
 8807SOL    HW227664   0.965   1.912   4.404 -0.6784 -0.4022  0.1933
 8808SOL     OW27665   0.435   3.323   3.697 -0.0753 -0.2771 -0.8509
 8808SOL    HW127666   0.486   3.246   3.675  2.1059  0.8786 -0.0550
 8808SOL    HW227667   0.479   3.360   3.774 -1.0306  1.7756 -1.2338
 8809SOL     OW27668   5.666   6.767   4.519 -0.7898  0.6231 -0.2448
 8809SOL    HW127669   5.760   6.782   4.520 -0.8401  1.1074 -1.4068
 8809SOL    HW227670   5.629   6.844   4.564 -0.5376 -0.4124  1.7432
 8810SOL     OW27671   4.240   3.189   5.861 -0.2288  0.2366  0.2634
 8810SOL    HW127672   4.177   3.130   5.820 -0.1028  0.5737 -0.4096
 8810SOL    HW227673   4.185   3.249   5.912 -0.3934 -0.0464  0.4258
 8811SOL     OW27674   0.787   3.585   3.079  0.1286  0.9859 -0.1213
 8811SOL    HW127675   0.751   3.518   3.137  2.3068 -1.1102 -1.1249
 8811SOL    HW227676   0.713   3.610   3.024 -1.2343  0.9301  1.6269
 8812SOL     OW27677   1.362   6.129   3.256  0.0516 -0.1844  0.2411
 8812SOL    HW127678   1.350   6.218   3.224 -0.2854 -0.0425  0.7458
 8812SOL    HW227679   1.273   6.094   3.266  0.1578 -0.3499  0.6586
 8813SOL     OW27680   6.604   6.016   8.225 -0.0316  0.3899 -0.5930
 8813SOL    HW127681   6.550   6.015   8.146 -0.9338  1.9491 -0.0320
 8813SOL    HW227682   6.559   5.957   8.285  0.1515 -0.0889 -0.9221
 8814SOL     OW27683   6.834   6.536   1.137  0.3238  0.1038 -0.9187
 8814SOL    HW127684   6.793   6.546   1.223  1.1142 -0.6623 -0.4364
 8814SOL    HW227685   6.914   6.486   1.155  1.4260  1.5001 -1.8540
 8815SOL     OW27686   5.809   0.015   7.140  0.6063 -0.3913 -0.3385
 8815SOL    HW127687   5.823  -0.057   7.079  0.1434  0.4586 -1.4523
 8815SOL    HW227688   5.873   0.000   7.210 -0.5583 -2.8073  0.2825
 8816SOL     OW27689   1.363   1.307   6.083 -0.0082  0.6952 -0.4643
 8816SOL    HW127690   1.294   1.259   6.037  0.0165  1.7498 -1.6201
 8816SOL    HW227691   1.423   1.240   6.113 -0.4715 -0.0731 -1.2426
 8817SOL     OW27692   6.998   3.770   7.169 -0.3848  0.4110 -0.4321
 8817SOL    HW127693   6.940   3.727   7.107 -0.3692 -0.5425  0.2044
 8817SOL    HW227694   7.080   3.721   7.164  0.6564  2.2019 -1.8710
 8818SOL     OW27695   5.236   6.910   6.622 -0.3745 -0.3841  0.1057
 8818SOL    HW127696   5.292   6.840   6.588  0.8233  1.7224 -2.4170
 8818SOL    HW227697   5.296   6.969   6.668 -0.8659  0.6902 -0.6195
 8819SOL     OW27698   4.485   5.407   3.582 -0.4967  0.1376 -0.0747
 8819SOL    HW127699   4.520   5.482   3.532 -1.8464  0.1476 -1.0374
 8819SOL    HW227700   4.563   5.362   3.615  0.3626  1.4004 -0.3331
 8820SOL     OW27701   7.845   5.399   7.548 -0.2823 -0.1551 -0.0669
 8820SOL    HW127702   7.929   5.412   7.506 -1.2872 -1.8296 -2.6796
 8820SOL    HW227703   7.789   5.468   7.511 -0.6967 -0.5118 -0.1062
 8821SOL     OW27704   6.009   4.449   8.251  0.0616  0.1680  0.0647
 8821SOL    HW127705   5.957   4.371   8.236 -0.7708  0.5763  0.7972
 8821SOL    HW227706   6.020   4.453   8.346 -0.3865  1.2468  0.0764
 8822SOL     OW27707   8.260   2.381   3.222  0.1979 -0.9477  0.0886
 8822SOL    HW127708   8.204   2.420   3.155  1.7080  0.9624 -0.1048
 8822SOL    HW227709   8.205   2.380   3.301 -0.3034  0.3491 -0.2331
 8823SOL     OW27710   3.058   6.573   0.943 -0.4139 -0.0825  0.3651
 8823SOL    HW127711   3.026   6.635   0.877  0.3316 -0.4623 -0.3681
 8823SOL    HW227712   3.100   6.504   0.892 -0.5558 -0.7979  1.2170
 8824SOL     OW27713   2.660   2.728   3.827 -0.3442  0.1388  0.1883
 8824SOL    HW127714   2.690   2.802   3.774  1.2582 -0.2793  0.4994
 8824SOL    HW227715   2.590   2.689   3.774 -0.6619  1.3828 -0.3471
 8825SOL     OW27716   7.339   2.657   2.770  0.2475 -0.1465  0.2621
 8825SOL    HW127717   7.364   2.692   2.684 -0.0340 -1.5211 -0.3799
 8825SOL    HW227718   7.265   2.600   2.752  0.6105 -0.9531  1.3331
 8826SOL     OW27719   7.705   3.637   3.182  0.5201 -1.0519  0.5793
 8826SOL    HW127720   7.766   3.619   3.111 -0.0126  0.5613 -0.3300
 8826SOL    HW227721   7.674   3.726   3.164 -0.2917 -0.9595  2.3465
 8827SOL     OW27722   6.391   6.548   5.786 -0.6814  0.1362  0.3935
 8827SOL    HW127723   6.346   6.497   5.854  0.8453 -1.0824  0.5174
 8827SOL    HW227724   6.392   6.490   5.710 -0.6019  0.7269 -0.0597
 8828SOL     OW27725   3.953   2.560   2.340 -0.3442 -0.7602 -0.7140
 8828SOL    HW127726   3.918   2.471   2.333  0.0150 -0.9207 -0.4832
 8828SOL    HW227727   4.004   2.573   2.261 -0.9993 -0.4897 -1.0995
 8829SOL     OW27728   1.057   1.606   0.108 -0.1118  0.0632  0.2304
 8829SOL    HW127729   1.024   1.571   0.025 -0.1327 -1.8210  1.0187
 8829SOL    HW227730   0.981   1.648   0.148 -0.1017  0.9924 -0.6844
 8830SOL     OW27731   7.607   7.476   3.875  0.5066  0.0996  0.1632
 8830SOL    HW127732   7.686   7.466   3.927 -0.2001  3.2935  2.0268
 8830SOL    HW227733   7.621   7.556   3.825 -1.5243  0.7357  0.5439
 8831SOL     OW27734   1.508   0.317   4.811 -0.1012 -0.5464 -0.5589
 8831SOL    HW127735   1.431   0.289   4.762 -0.6080  2.3373 -1.4804
 8831SOL    HW227736   1.474   0.357   4.890  0.4670  0.4487 -0.8129
 8832SOL     OW27737   0.014   6.331   2.766  0.2115  0.1985 -0.1409
 8832SOL    HW127738   0.097   6.318   2.720  0.4971  0.6048  0.2539
 8832SOL    HW227739   0.006   6.255   2.824  1.0235  0.8932  0.8888
 8833SOL     OW27740   7.796   5.070   1.339 -0.8506 -0.3005  0.2528
 8833SOL    HW127741   7.845   5.012   1.398 -0.4918  0.8962  1.1590
 8833SOL    HW227742   7.851   5.148   1.332 -0.8866 -0.4367 -1.7029
 8834SOL     OW27743   3.371   1.207   4.027 -0.3018  0.0820 -0.2601
 8834SOL    HW127744   3.305   1.269   4.054 -0.4688 -0.5502  0.7958
 8834SOL    HW227745   3.421   1.253   3.959 -1.1642  0.9224 -0.3329
 8835SOL     OW27746   1.430   4.659   6.482 -0.1349  0.6784  0.1492
 8835SOL    HW127747   1.419   4.566   6.501 -1.6307  0.8176 -0.0255
 8835SOL    HW227748   1.519   4.665   6.447  0.3689 -0.5121  1.1813
 8836SOL     OW27749   0.304   1.282   5.894 -0.4644  0.3297 -0.4072
 8836SOL    HW127750   0.233   1.234   5.851 -1.2358  0.3189  0.8437
 8836SOL    HW227751   0.383   1.236   5.868 -1.0641 -0.7022 -0.4526
 8837SOL     OW27752   0.682   2.363   2.148  0.1063 -0.0778  0.2580
 8837SOL    HW127753   0.701   2.402   2.063 -0.1372  0.8523  0.6259
 8837SOL    HW227754   0.590   2.382   2.164  0.2646  0.1435  0.9332
 8838SOL     OW27755   7.865   0.516   1.240 -0.0960  0.0762 -0.3230
 8838SOL    HW127756   7.908   0.578   1.298  0.6929 -0.3886 -0.4010
 8838SOL    HW227757   7.853   0.564   1.158  0.9238 -0.0149 -0.5315
 8839SOL     OW27758   1.309   1.606   5.140  0.3894 -0.0719  0.2855
 8839SOL    HW127759   1.232   1.656   5.167  0.6374 -0.0738  1.0121
 8839SOL    HW227760   1.381   1.668   5.144  0.4825 -0.1564 -0.0714
 8840SOL     OW27761   1.184   3.390   4.173  0.4377 -0.6682  0.2299
 8840SOL    HW127762   1.274   3.365   4.195  0.4291 -3.2891 -2.4338
 8840SOL    HW227763   1.130   3.342   4.236  0.7927 -1.6339 -0.1836
 8841SOL     OW27764   2.844   3.931   1.772  0.3783 -0.1447 -0.8296
 8841SOL    HW127765   2.840   3.894   1.860  0.3955  0.3128 -0.6335
 8841SOL    HW227766   2.873   4.021   1.785 -1.0906  0.3926 -1.1770
 8842SOL     OW27767   6.629   6.132   0.561  0.0368 -0.5963  0.0339
 8842SOL    HW127768   6.655   6.051   0.605  2.3758  0.4829  0.6917
 8842SOL    HW227769   6.651   6.118   0.469  1.9991 -0.1140  0.4082
 8843SOL     OW27770   7.854   0.683   0.433  0.0184  0.8503 -0.3854
 8843SOL    HW127771   7.835   0.708   0.342 -3.0017  0.4530  0.1120
 8843SOL    HW227772   7.800   0.740   0.486  0.7679  0.1601  1.1468
 8844SOL     OW27773   4.063   7.233   4.367 -0.0218 -0.1555 -0.5221
 8844SOL    HW127774   4.068   7.299   4.298  0.4092  0.2348 -0.1151
 8844SOL    HW227775   4.152   7.225   4.400 -0.2357 -0.3105  0.0202
 8845SOL     OW27776   2.569   5.461   4.435  0.5200  0.0068  0.0215
 8845SOL    HW127777   2.549   5.526   4.502 -3.2006  0.6628 -1.5735
 8845SOL    HW227778   2.523   5.382   4.463  0.8166 -0.4060 -0.6304
 8846SOL     OW27779   5.865   0.846   5.165  0.0644  0.7338 -0.3611
 8846SOL    HW127780   5.843   0.929   5.207  0.1428 -0.6541  2.5589
 8846SOL    HW227781   5.781   0.801   5.155  0.2546  0.3069 -0.0390
 8847SOL     OW27782   4.594   4.451   5.423  0.3996 -0.7577  0.6330
 8847SOL    HW127783   4.672   4.417   5.377 -0.5261 -0.8066 -0.9451
 8847SOL    HW227784   4.542   4.373   5.441 -0.4787 -0.4793 -0.6233
 8848SOL     OW27785   5.825   7.795   6.217 -0.2696 -0.1156 -0.1546
 8848SOL    HW127786   5.755   7.856   6.242 -1.1232 -0.8679 -0.6637
 8848SOL    HW227787   5.825   7.729   6.286 -0.4506 -0.4297 -0.4549
 8849SOL     OW27788   7.036   3.409   0.074 -0.2157 -0.0232  0.0838
 8849SOL    HW127789   6.948   3.444   0.088 -0.6715 -0.6213 -1.2154
 8849SOL    HW227790   7.091   3.486   0.062 -0.4996  0.3670  1.2126
 8850SOL     OW27791   1.687   7.259   0.785  0.6482  0.1747  0.3280
 8850SOL    HW127792   1.650   7.209   0.859  0.2556 -1.6855 -1.0958
 8850SOL    HW227793   1.616   7.318   0.759  1.0645  1.4212  1.9340
 8851SOL     OW27794   7.862   7.699   6.330 -0.3455  0.2170 -0.1177
 8851SOL    HW127795   7.915   7.646   6.390 -0.2544  0.2827 -0.1398
 8851SOL    HW227796   7.811   7.636   6.280 -0.7112  0.1788  0.3002
 8852SOL     OW27797   1.192   2.370   3.312 -0.5537  0.3296 -1.1786
 8852SOL    HW127798   1.218   2.449   3.358  0.2937  1.2953 -3.2396
 8852SOL    HW227799   1.273   2.335   3.275 -0.7844 -1.9949  0.3855
 8853SOL     OW27800   6.076   7.003   2.474  0.1541  0.2706 -0.6174
 8853SOL    HW127801   6.087   7.067   2.404  0.9934 -0.3565 -1.0548
 8853SOL    HW227802   5.985   7.015   2.502 -0.1121  0.6891 -1.6364
 8854SOL     OW27803   3.057   3.134   3.402  0.5920 -0.1006 -0.0219
 8854SOL    HW127804   3.002   3.193   3.454 -0.1051 -1.3707  0.6998
 8854SOL    HW227805   3.112   3.193   3.350 -0.0149  1.1872  0.7603
 8855SOL     OW27806   0.589   0.275   2.017  0.3643  0.7839 -0.0088
 8855SOL    HW127807   0.589   0.203   2.080  1.0977 -0.0046 -0.8824
 8855SOL    HW227808   0.681   0.283   1.990 -0.1512  0.1538 -2.0189
 8856SOL     OW27809   7.460   3.062   4.410  0.4710  0.3875  0.7962
 8856SOL    HW127810   7.486   3.143   4.366 -0.6583  1.1510  1.5283
 8856SOL    HW227811   7.440   3.088   4.499 -3.4678 -0.0109  0.1249
 8857SOL     OW27812   5.945   6.084   5.010 -0.1018 -0.3066  0.6088
 8857SOL    HW127813   5.897   6.162   5.036 -1.7155 -1.4988  1.2744
 8857SOL    HW227814   5.988   6.109   4.928 -0.0334  1.4813  1.1664
 8858SOL     OW27815   2.550   7.410   0.738  0.0423 -0.1266 -0.1478
 8858SOL    HW127816   2.459   7.399   0.712  0.5797 -0.8700 -1.7367
 8858SOL    HW227817   2.554   7.500   0.772 -1.1476  0.1247 -0.6477
 8859SOL     OW27818   7.485   0.056   6.435 -0.6562 -0.5269  0.0480
 8859SOL    HW127819   7.431   0.131   6.460  0.2834  1.0677 -2.5434
 8859SOL    HW227820   7.454  -0.016   6.490 -1.1779  1.8949  3.0259
 8860SOL     OW27821   3.848   4.258   7.587  0.3470  0.3276  0.4242
 8860SOL    HW127822   3.913   4.215   7.642 -0.2261 -0.8690  0.1835
 8860SOL    HW227823   3.766   4.212   7.606  0.3007 -0.6839 -2.0221
 8861SOL     OW27824   7.637   8.158   5.612  0.3602  0.0017 -0.1574
 8861SOL    HW127825   7.637   8.249   5.582  0.5150 -0.0657 -0.3680
 8861SOL    HW227826   7.629   8.164   5.707  0.8529  0.2491 -0.1317
 8862SOL     OW27827   2.977   8.248   2.509  0.2700  0.3164  0.1645
 8862SOL    HW127828   2.916   8.307   2.465 -1.4972 -1.1175  0.5979
 8862SOL    HW227829   2.932   8.163   2.508  2.1785 -0.7239  0.6998
 8863SOL     OW27830   6.317   5.492   4.204  0.1963  0.3685 -0.1726
 8863SOL    HW127831   6.318   5.587   4.192 -0.9230  0.1539 -2.1662
 8863SOL    HW227832   6.374   5.477   4.280  2.6045  2.3952 -1.5142
 8864SOL     OW27833   2.061   6.927   4.268  0.1500 -0.1108  0.5608
 8864SOL    HW127834   1.987   6.878   4.235  2.3031 -2.3243 -1.1318
 8864SOL    HW227835   2.048   6.929   4.363 -2.1285 -0.2838  0.2813
 8865SOL     OW27836   6.368   1.771   8.224  0.0337 -0.4231 -0.0562
 8865SOL    HW127837   6.445   1.725   8.190  2.6351  2.1924  2.0702
 8865SOL    HW227838   6.330   1.709   8.287  0.7463 -1.4849 -0.6472
 8866SOL     OW27839   1.508   2.249   0.008 -0.0182 -0.3097 -0.1919
 8866SOL    HW127840   1.529   2.252   0.102  0.2206  0.3581 -0.2610
 8866SOL    HW227841   1.556   2.174  -0.025 -3.0645 -2.8469  0.9395
 8867SOL     OW27842   4.338   4.873   6.493  0.1176 -0.6169 -0.2858
 8867SOL    HW127843   4.351   4.910   6.406 -0.4601 -1.3015 -0.6665
 8867SOL    HW227844   4.243   4.860   6.500  0.1382 -0.3705  0.5241
 8868SOL     OW27845   5.495   1.167   0.582  0.0023  0.4101 -0.5710
 8868SOL    HW127846   5.438   1.221   0.638  1.1877 -0.5946  1.6769
 8868SOL    HW227847   5.434   1.112   0.532 -1.0814  1.2676 -0.2061
 8869SOL     OW27848   5.854   1.532   0.182 -0.2319 -0.0555 -0.5016
 8869SOL    HW127849   5.769   1.575   0.185 -0.2265  0.0159 -1.2562
 8869SOL    HW227850   5.844   1.463   0.116 -0.1643 -1.0575  0.5209
 8870SOL     OW27851   7.540   7.254   5.901  0.2946 -0.0326 -0.1067
 8870SOL    HW127852   7.492   7.172   5.913  0.6934 -0.3119 -0.4173
 8870SOL    HW227853   7.631   7.232   5.918  0.2694  0.5988  0.9240
 8871SOL     OW27854   3.377   4.059   0.373 -0.0513  0.0405  0.2901
 8871SOL    HW127855   3.295   4.035   0.415  0.4722 -3.1279 -0.3978
 8871SOL    HW227856   3.445   4.032   0.435  0.5386  1.3035  0.2192
 8872SOL     OW27857   4.704   3.777   4.218 -0.1383 -0.1264 -0.2598
 8872SOL    HW127858   4.772   3.779   4.151 -2.0096  1.6722 -2.1562
 8872SOL    HW227859   4.691   3.684   4.236  0.4066 -0.6263 -2.3593
 8873SOL     OW27860   3.756   6.744   2.534 -0.4839  0.2848 -0.4569
 8873SOL    HW127861   3.684   6.804   2.550  0.3153  1.0670  0.2161
 8873SOL    HW227862   3.811   6.789   2.470 -0.2915 -0.0741 -0.5477
 8874SOL     OW27863   5.429   6.196   1.201 -0.0913  0.2194 -0.0991
 8874SOL    HW127864   5.518   6.164   1.186 -0.5781 -1.1104 -0.1628
 8874SOL    HW227865   5.391   6.204   1.114 -1.1486 -2.4461  0.0840
 8875SOL     OW27866   3.572   5.190   7.678  0.0134  0.2766 -0.1871
 8875SOL    HW127867   3.581   5.107   7.632  1.3091  0.5553 -0.4725
 8875SOL    HW227868   3.649   5.195   7.735  0.4110  1.6402 -0.7946
 8876SOL     OW27869   4.658   0.686   0.974 -0.2790 -0.2284 -0.1441
 8876SOL    HW127870   4.625   0.774   0.959 -0.9628 -0.5806 -0.7816
 8876SOL    HW227871   4.748   0.698   1.003  0.0154  0.6403 -1.3647
 8877SOL     OW27872   0.818   5.500   6.484 -0.1849  0.1194  0.1369
 8877SOL    HW127873   0.866   5.512   6.566  1.1084 -0.9658 -0.4525
 8877SOL    HW227874   0.766   5.421   6.498  0.3724 -0.3157 -0.2481
 8878SOL     OW27875   1.470   3.414   6.363  0.0418 -0.5841 -0.3850
 8878SOL    HW127876   1.510   3.336   6.324  2.1289  0.6057 -0.6986
 8878SOL    HW227877   1.463   3.394   6.456  2.3417 -0.4721 -0.1423
 8879SOL     OW27878   8.057   1.092   3.961  0.3299 -0.0856  0.3936
 8879SOL    HW127879   8.092   1.176   3.992  1.8392 -0.1877 -0.9507
 8879SOL    HW227880   8.033   1.108   3.870 -0.9777 -0.6780  0.6170
 8880SOL     OW27881   3.336   6.172   7.688  0.2086 -0.0125 -0.1053
 8880SOL    HW127882   3.320   6.212   7.774 -0.6925 -0.7953  0.1028
 8880SOL    HW227883   3.382   6.090   7.708  0.4547  0.0538 -0.4028
 8881SOL     OW27884   4.666   5.022   6.704  0.0984  0.0223 -0.2617
 8881SOL    HW127885   4.627   5.099   6.662  0.4690 -0.1890 -1.0057
 8881SOL    HW227886   4.591   4.965   6.723 -0.2559  0.8578  0.9237
 8882SOL     OW27887   5.279   6.892   1.122 -0.6710  0.2313  0.3185
 8882SOL    HW127888   5.350   6.912   1.183 -0.2512 -0.6441  0.1342
 8882SOL    HW227889   5.311   6.921   1.037 -0.3347 -0.5647  0.1613
 8883SOL     OW27890   5.140   5.490   8.072  0.1369 -0.7440  0.1183
 8883SOL    HW127891   5.102   5.405   8.051  0.0126 -0.4747 -0.7669
 8883SOL    HW227892   5.210   5.502   8.009  0.2530 -0.2580  0.3351
 8884SOL     OW27893   0.040   6.731   2.656  0.1524 -0.4248  0.0919
 8884SOL    HW127894   0.090   6.732   2.575 -1.9461  2.7183 -1.2902
 8884SOL    HW227895  -0.049   6.706   2.630  0.0712 -2.1590  1.8829
 8885SOL     OW27896   3.778   6.121   7.720 -0.2382 -0.0228  0.0637
 8885SOL    HW127897   3.839   6.074   7.776  0.0168 -1.1458 -1.1468
 8885SOL    HW227898   3.692   6.085   7.743 -0.5060  1.6927  1.9036
 8886SOL     OW27899   3.779   5.040   6.220  0.3182 -0.1478  0.2813
 8886SOL    HW127900   3.835   4.964   6.203  0.7514  0.4223 -0.9112
 8886SOL    HW227901   3.840   5.113   6.230 -0.2235  0.7515 -2.4743
 8887SOL     OW27902   0.190   3.683   1.999  0.0886 -0.5114 -0.0876
 8887SOL    HW127903   0.153   3.598   1.974  0.1461 -0.1765 -1.3577
 8887SOL    HW227904   0.118   3.729   2.043  0.9114 -2.3503  3.4085
 8888SOL     OW27905   6.006   6.137   7.262  0.8723  0.0904 -0.4545
 8888SOL    HW127906   6.040   6.221   7.292  0.2724  0.1665  0.0098
 8888SOL    HW227907   5.918   6.131   7.300  1.2598 -1.1643  0.2723
 8889SOL     OW27908   7.232   1.485   5.857  0.3952  0.8588  0.1886
 8889SOL    HW127909   7.149   1.466   5.901  0.6610  2.6062  1.4987
 8889SOL    HW227910   7.274   1.551   5.912  2.2839  0.6140 -0.9111
 8890SOL     OW27911   4.229   8.195   4.859  0.1573 -0.2659  0.7227
 8890SOL    HW127912   4.186   8.120   4.818 -0.6264  0.5775 -0.0274
 8890SOL    HW227913   4.188   8.201   4.945  0.9217 -1.2853  1.1663
 8891SOL     OW27914   1.138   8.163   4.061 -0.3286  0.0034  0.4501
 8891SOL    HW127915   1.047   8.157   4.031 -1.2933  2.6138  2.6432
 8891SOL    HW227916   1.180   8.222   3.998 -0.6534  0.2653  0.4750
 8892SOL     OW27917   1.384   0.887   3.640 -0.2879 -0.0780  0.1750
 8892SOL    HW127918   1.445   0.906   3.711  0.1982  1.4623 -0.6328
 8892SOL    HW227919   1.347   0.973   3.617 -1.1789 -0.7022 -0.7580
 8893SOL     OW27920   4.400   0.337   0.632 -0.1364  0.6796  0.1223
 8893SOL    HW127921   4.394   0.432   0.621 -1.0315  0.8640  1.9991
 8893SOL    HW227922   4.486   0.323   0.671 -0.9813  0.9892  2.1841
 8894SOL     OW27923   7.270   5.855   0.810 -0.0866  0.7868 -0.4071
 8894SOL    HW127924   7.241   5.838   0.900 -0.9595 -1.2276 -1.0596
 8894SOL    HW227925   7.365   5.846   0.814 -0.1490  0.3245  0.2309
 8895SOL     OW27926   5.321   7.820   7.324 -0.0009 -0.6871 -0.1614
 8895SOL    HW127927   5.352   7.874   7.252 -0.3590 -2.0312 -1.3391
 8895SOL    HW227928   5.399   7.805   7.378  0.0680  1.0985  0.2633
 8896SOL     OW27929   1.933   4.942   5.024 -0.4769  0.1290  0.6181
 8896SOL    HW127930   1.897   5.021   5.063 -1.1021 -0.6060  1.5310
 8896SOL    HW227931   2.028   4.954   5.026 -0.5295  0.2813  1.9542
 8897SOL     OW27932   6.362   6.858   1.243 -0.4190  0.5212 -0.2675
 8897SOL    HW127933   6.387   6.871   1.335 -0.9318  0.3261 -0.0944
 8897SOL    HW227934   6.434   6.809   1.205 -1.1361 -1.2317  0.5644
 8898SOL     OW27935   1.657   5.958   5.607  0.4113 -0.3338 -0.1822
 8898SOL    HW127936   1.571   5.950   5.566  0.7149  0.8073 -1.0484
 8898SOL    HW227937   1.716   5.984   5.536  1.8874 -3.0413 -0.0470
 8899SOL     OW27938   3.620   4.748   6.055  0.3013 -0.5459  0.0784
 8899SOL    HW127939   3.623   4.835   6.015 -2.7408 -1.1183 -1.4695
 8899SOL    HW227940   3.684   4.753   6.127  1.4404  2.3891 -1.0656
 8900SOL     OW27941   0.845   7.803   7.101 -0.3112  0.2446  0.3965
 8900SOL    HW127942   0.765   7.768   7.061  0.5741 -0.0096 -1.1660
 8900SOL    HW227943   0.912   7.739   7.081  0.4393  0.7729  1.1697
 8901SOL     OW27944   7.778   0.431   7.712  0.3109 -0.2709 -0.0065
 8901SOL    HW127945   7.733   0.454   7.631  1.8649  0.4559 -0.6766
 8901SOL    HW227946   7.707   0.407   7.772 -0.9554  0.6328 -1.0986
 8902SOL     OW27947   1.687   2.718   7.424 -0.2899  0.2575 -0.0654
 8902SOL    HW127948   1.683   2.623   7.414 -2.7409  0.5346 -2.0988
 8902SOL    HW227949   1.744   2.731   7.500 -2.2201 -2.9348  2.0642
 8903SOL     OW27950   4.537   7.976   1.269  0.0737 -0.2545  0.0045
 8903SOL    HW127951   4.448   7.940   1.273 -0.4934  0.6418 -3.0006
 8903SOL    HW227952   4.594   7.899   1.271 -0.8270 -0.9234  0.4353
 8904SOL     OW27953   1.213   5.907   6.070 -0.4089 -0.4121  0.4011
 8904SOL    HW127954   1.281   5.963   6.106 -1.7760  0.5361  1.5485
 8904SOL    HW227955   1.260   5.828   6.041  0.9097 -0.6728  3.1067
 8905SOL     OW27956   1.997   2.506   4.761 -0.3793 -0.5265  0.0659
 8905SOL    HW127957   1.947   2.557   4.825  1.5973  1.4568  0.1006
 8905SOL    HW227958   2.027   2.430   4.809 -0.1836  0.1821  1.0853
 8906SOL     OW27959   8.306   4.775   6.431  0.0569 -0.1996  0.3643
 8906SOL    HW127960   8.267   4.697   6.470  0.5517  0.3479  1.9927
 8906SOL    HW227961   8.383   4.743   6.383 -0.0268 -0.7739  0.6198
 8907SOL     OW27962   3.857   5.952   4.260  0.4162  0.6284  0.0892
 8907SOL    HW127963   3.855   5.940   4.166 -2.4451  1.0518  0.0424
 8907SOL    HW227964   3.829   5.868   4.296  0.7253  0.7146  0.5391
 8908SOL     OW27965   3.298   6.787   1.394  0.0526  0.2534 -0.0777
 8908SOL    HW127966   3.325   6.802   1.304 -0.8121 -0.2553 -0.4268
 8908SOL    HW227967   3.331   6.700   1.416  1.4210  0.9070  0.5548
 8909SOL     OW27968   0.438   0.987   6.529  0.2662 -0.3779 -0.0845
 8909SOL    HW127969   0.356   0.975   6.480  0.6800  0.7216 -1.0656
 8909SOL    HW227970   0.413   0.976   6.621 -1.1251  0.6591 -0.3230
 8910SOL     OW27971   1.170   8.091   1.275  0.0011 -0.5246 -0.3089
 8910SOL    HW127972   1.144   7.999   1.270  0.8125 -0.7583 -0.2187
 8910SOL    HW227973   1.088   8.139   1.261 -0.5603 -1.2579  0.3714
 8911SOL     OW27974   7.752   2.172   4.571 -0.2354 -0.6317 -0.0998
 8911SOL    HW127975   7.688   2.162   4.501  0.7927  0.3145 -1.1900
 8911SOL    HW227976   7.837   2.172   4.526  0.5533 -2.1277  1.3376
 8912SOL     OW27977   2.121   2.469   5.622  0.2738 -0.1336 -0.0307
 8912SOL    HW127978   2.053   2.529   5.654 -1.0235 -1.4073 -0.3366
 8912SOL    HW227979   2.157   2.430   5.701  1.1158  1.0377  0.1692
 8913SOL     OW27980   5.387   0.576   5.101 -0.3904  0.4214 -0.0069
 8913SOL    HW127981   5.336   0.509   5.055 -0.8349  0.1575  0.8576
 8913SOL    HW227982   5.370   0.656   5.051  0.0169 -0.0716 -0.9493
 8914SOL     OW27983   3.072   3.395   3.552 -0.1412  0.0958  0.6297
 8914SOL    HW127984   3.150   3.411   3.499 -1.4864  0.7525 -1.1986
 8914SOL    HW227985   3.081   3.454   3.627  1.4859 -0.3946  0.8231
 8915SOL     OW27986   3.778   0.624   0.562  0.0187 -0.0137 -0.1373
 8915SOL    HW127987   3.694   0.641   0.519 -0.8985  0.1913  1.6736
 8915SOL    HW227988   3.844   0.653   0.499 -1.2889  0.6353 -1.2270
 8916SOL     OW27989   2.433   6.425   2.641  0.0390  0.8940  0.1177
 8916SOL    HW127990   2.360   6.441   2.701 -0.6646 -0.2438 -0.4063
 8916SOL    HW227991   2.405   6.465   2.559  1.4029  3.2715  0.7715
 8917SOL     OW27992   1.817   0.907   5.653  0.2234  0.2667 -0.0627
 8917SOL    HW127993   1.907   0.894   5.623  0.1382  0.1333 -0.2631
 8917SOL    HW227994   1.823   0.906   5.748  0.5726  1.2122 -0.0713
 8918SOL     OW27995   6.283   1.323   5.389  0.0595 -0.5461  0.6346
 8918SOL    HW127996   6.215   1.325   5.321 -0.3026  0.2293  1.0136
 8918SOL    HW227997   6.258   1.250   5.445  0.5380 -1.3920 -0.2487
 8919SOL     OW27998   1.617   1.912   7.040 -0.0928 -0.5485  0.3421
 8919SOL    HW127999   1.532   1.944   7.012  0.6460  0.3846 -0.8569
 8919SOL    HW228000   1.611   1.817   7.029  0.2106 -0.2368 -3.2046
 8920SOL     OW28001   0.557   5.684   6.652 -0.1546  0.3474  0.5407
 8920SOL    HW128002   0.568   5.593   6.626 -1.0955  0.8082 -1.6418
 8920SOL    HW228003   0.500   5.721   6.584  0.3721  2.6032  1.2894
 8921SOL     OW28004   3.279   7.686   8.057 -0.1323  0.3403  0.2734
 8921SOL    HW128005   3.283   7.596   8.024 -1.1302  0.9519 -1.6455
 8921SOL    HW228006   3.361   7.726   8.030  0.2307  0.0617  0.9610
 8922SOL     OW28007   1.558   4.204   4.545 -0.3355  0.2458 -0.1824
 8922SOL    HW128008   1.546   4.121   4.591 -0.8350  0.7356  0.5898
 8922SOL    HW228009   1.487   4.208   4.482  0.4601 -0.5166 -1.1579
 8923SOL     OW28010   6.147   4.220   2.286  0.4676  0.6185 -0.5393
 8923SOL    HW128011   6.223   4.274   2.263  1.7513 -0.3464  1.3568
 8923SOL    HW228012   6.159   4.199   2.378 -2.1031  0.4121 -0.2075
 8924SOL     OW28013   2.763   8.199   6.452  0.8491  0.2483  0.1316
 8924SOL    HW128014   2.708   8.267   6.489 -2.9330 -1.6905 -1.6527
 8924SOL    HW228015   2.800   8.238   6.373 -1.1861  0.3357 -0.8131
 8925SOL     OW28016   1.746   5.610   7.636 -0.5078  0.6074  0.1010
 8925SOL    HW128017   1.666   5.600   7.584 -0.1739  2.0587 -0.7112
 8925SOL    HW228018   1.718   5.658   7.713 -0.2572  1.8776 -0.5957
 8926SOL     OW28019   3.497   1.695   0.246 -0.4439 -0.2536  0.3280
 8926SOL    HW128020   3.431   1.666   0.309  0.3787 -1.8107  0.4745
 8926SOL    HW228021   3.460   1.672   0.160 -0.0261 -1.2733  0.4177
 8927SOL     OW28022   7.152   6.151   4.010 -0.5671 -0.2812 -0.4344
 8927SOL    HW128023   7.089   6.223   4.009 -1.8663 -1.3919 -0.9565
 8927SOL    HW228024   7.098   6.072   4.007  0.8719 -1.2535 -2.7820
 8928SOL     OW28025   1.548   1.624   6.491 -0.0851 -1.1666 -0.0843
 8928SOL    HW128026   1.567   1.575   6.411  0.2100  0.5731 -1.1064
 8928SOL    HW228027   1.453   1.617   6.500 -0.1678 -1.0107 -0.8163
 8929SOL     OW28028   4.726   4.415   1.957  0.1954  0.0601 -0.4475
 8929SOL    HW128029   4.677   4.491   1.989 -0.4459 -0.3454 -0.4581
 8929SOL    HW228030   4.817   4.444   1.956  0.2217  0.1302  1.6225
 8930SOL     OW28031   6.517   0.927   3.361 -0.3828 -0.0053  0.0810
 8930SOL    HW128032   6.539   0.863   3.294  0.2086 -0.3217  0.5749
 8930SOL    HW228033   6.480   1.001   3.313 -1.0834 -0.7274 -0.4821
 8931SOL     OW28034   2.403   1.556   4.343  0.0712 -0.4523 -0.0124
 8931SOL    HW128035   2.436   1.534   4.431 -1.3904 -0.4147  0.5512
 8931SOL    HW228036   2.310   1.572   4.356 -0.3334 -1.3225 -1.7305
 8932SOL     OW28037   5.417   6.153   4.252  0.4771  0.1426 -0.0913
 8932SOL    HW128038   5.503   6.194   4.244  0.3106  0.8626  1.7357
 8932SOL    HW228039   5.436   6.064   4.281  0.7050 -0.3948 -1.8102
 8933SOL     OW28040   7.498   6.170   3.303  0.4841 -0.1838 -0.1950
 8933SOL    HW128041   7.436   6.144   3.234  0.6145  0.3302 -0.5121
 8933SOL    HW228042   7.443   6.193   3.377  0.3291 -0.4658 -0.2185
 8934SOL     OW28043   3.098   0.219   5.745  0.4103 -0.1429 -0.5955
 8934SOL    HW128044   3.165   0.178   5.799  1.7388  1.3754 -1.0328
 8934SOL    HW228045   3.040   0.148   5.720  0.0037 -0.9443  2.4701
 8935SOL     OW28046   4.371   0.983   5.270  0.4372 -0.3097 -0.4230
 8935SOL    HW128047   4.310   0.999   5.341  1.1566  0.8304 -0.0353
 8935SOL    HW228048   4.451   0.953   5.313  0.2312 -1.5694 -0.9056
 8936SOL     OW28049   3.141   3.718   2.871 -0.0639  0.3671  0.0978
 8936SOL    HW128050   3.165   3.793   2.818  0.4789 -0.9712 -1.5915
 8936SOL    HW228051   3.082   3.667   2.816  0.3212 -0.9237  0.8413
 8937SOL     OW28052   4.393   4.833   7.810 -0.3780 -0.0435 -0.2884
 8937SOL    HW128053   4.451   4.757   7.816 -0.8182 -0.2713  1.6282
 8937SOL    HW228054   4.435   4.890   7.746  2.5440  0.2335  1.7609
 8938SOL     OW28055   1.316   6.560   4.666  0.4335 -0.4302  0.2544
 8938SOL    HW128056   1.286   6.649   4.686 -0.4715 -0.5967 -0.3580
 8938SOL    HW228057   1.408   6.559   4.694  0.6125  0.8767 -0.2571
 8939SOL     OW28058   5.323   5.998   1.709 -0.4565  0.6811 -0.0691
 8939SOL    HW128059   5.298   6.082   1.670 -2.5550  0.6070  1.0359
 8939SOL    HW228060   5.263   5.987   1.783  0.3579 -1.3986  0.3231
 8940SOL     OW28061   3.631   7.196   0.038 -0.2077 -0.5066 -0.1695
 8940SOL    HW128062   3.623   7.227  -0.052  0.8712 -0.0251 -0.1171
 8940SOL    HW228063   3.649   7.276   0.089 -2.8370 -0.4720  0.7840
 8941SOL     OW28064   1.520   5.207   7.895 -0.2782  0.8912  0.3471
 8941SOL    HW128065   1.443   5.250   7.857  0.5460  1.4497 -0.7126
 8941SOL    HW228066   1.509   5.115   7.873  0.2657  1.2285 -1.4060
 8942SOL     OW28067   8.095   4.682   0.424  0.4491 -0.0186 -0.2019
 8942SOL    HW128068   8.167   4.645   0.476 -0.2778 -1.2197 -0.0204
 8942SOL    HW228069   8.124   4.770   0.402  2.6407 -1.0023 -1.4202
 8943SOL     OW28070   1.045   5.685   3.455 -0.1387  0.2527  0.0503
 8943SOL    HW128071   1.009   5.772   3.473 -0.3060  0.2518 -0.2687
 8943SOL    HW228072   1.001   5.657   3.375  0.0614 -0.0436  0.0418
 8944SOL     OW28073   5.642   0.647   5.145  0.0619  0.5257  0.6801
 8944SOL    HW128074   5.702   0.578   5.175 -0.4759 -0.6146 -0.8231
 8944SOL    HW228075   5.560   0.602   5.128  0.1726  1.2579 -1.8802
 8945SOL     OW28076   5.154   0.546   7.377 -0.6761 -0.5800  0.5243
 8945SOL    HW128077   5.099   0.624   7.386 -1.2534 -0.9362  0.0947
 8945SOL    HW228078   5.141   0.497   7.457  0.8005  0.4595  1.4410
 8946SOL     OW28079   4.013   5.217   0.758 -0.0248  0.4740 -0.4175
 8946SOL    HW128080   4.044   5.193   0.846  0.3500 -0.5535 -0.8348
 8946SOL    HW228081   3.991   5.310   0.766 -0.0832  0.3681  0.7957
 8947SOL     OW28082   6.919   7.226   5.498  0.0918  0.2510  0.0553
 8947SOL    HW128083   6.840   7.279   5.509  1.3388  1.8685  1.4797
 8947SOL    HW228084   6.949   7.210   5.588  0.7808 -1.2859 -0.4386
 8948SOL     OW28085   1.861   8.109   1.572  0.3326  0.3501 -0.0757
 8948SOL    HW128086   1.818   8.090   1.489  1.5518  0.6618 -0.7989
 8948SOL    HW228087   1.819   8.188   1.604 -0.9719 -0.4399  0.2152
 8949SOL     OW28088   3.742   6.564   2.750  0.0881 -0.5700 -0.2723
 8949SOL    HW128089   3.670   6.608   2.795 -0.6398 -2.0087  0.0212
 8949SOL    HW228090   3.751   6.610   2.667  0.3274  1.0503  0.6390
 8950SOL     OW28091   5.108   6.084   1.484  0.2268  0.1022  0.7059
 8950SOL    HW128092   5.087   6.088   1.390  0.6881  1.2551  0.6385
 8950SOL    HW228093   5.104   6.175   1.513  1.9000 -0.0353  1.4035
 8951SOL     OW28094   1.805   6.752   8.207 -0.2570  0.2360  0.0736
 8951SOL    HW128095   1.835   6.834   8.168 -1.3408  1.1314  1.1029
 8951SOL    HW228096   1.801   6.769   8.301  1.7836 -1.7369  0.5667
 8952SOL     OW28097   7.685   8.062   6.084  0.2448 -0.8411  0.2778
 8952SOL    HW128098   7.773   8.024   6.081  0.5564 -0.1610  0.6666
 8952SOL    HW228099   7.678   8.098   6.173 -0.3821 -0.7961  0.2111
 8953SOL     OW28100   6.869   3.631   5.776 -0.7637  0.4666  0.1866
 8953SOL    HW128101   6.952   3.633   5.730 -1.1145 -0.6811 -0.5157
 8953SOL    HW228102   6.888   3.586   5.859 -0.4130  1.3681  0.5994
 8954SOL     OW28103   1.052   5.941   5.693  0.1474  0.8180  0.0627
 8954SOL    HW128104   1.015   5.853   5.705 -0.0731  0.7300 -1.1945
 8954SOL    HW228105   1.145   5.926   5.677  0.0523  0.7863 -0.4726
 8955SOL     OW28106   3.828   0.721   6.758  0.3497 -0.3142 -0.0559
 8955SOL    HW128107   3.821   0.806   6.802  0.2085 -0.0440 -0.6004
 8955SOL    HW228108   3.891   0.672   6.811 -1.6924 -0.9188  1.9421
 8956SOL     OW28109   6.812   7.596   7.262  0.2943 -0.1793  0.5320
 8956SOL    HW128110   6.873   7.613   7.190 -0.0847  0.0916  0.2721
 8956SOL    HW228111   6.727   7.627   7.229 -0.2845 -1.9533  0.2808
 8957SOL     OW28112   1.756   5.215   2.640  0.3558 -0.5787  0.2054
 8957SOL    HW128113   1.800   5.280   2.586  0.1873  0.0122  0.7810
 8957SOL    HW228114   1.665   5.245   2.645  0.1215 -1.2225 -0.0924
 8958SOL     OW28115   5.921   7.729   4.780  0.1149  0.0657  0.5032
 8958SOL    HW128116   5.992   7.674   4.813 -0.6253 -0.9807  0.3986
 8958SOL    HW228117   5.856   7.667   4.748  0.0010  1.0401 -1.2124
 8959SOL     OW28118   7.030   2.184   7.721  0.5483  0.0417  0.4809
 8959SOL    HW128119   6.990   2.247   7.782 -0.8216  0.1500 -0.5119
 8959SOL    HW228120   7.028   2.228   7.637 -0.7144 -1.4320 -0.2899
 8960SOL     OW28121   3.279   2.028   7.509  0.7001  0.2043 -0.3213
 8960SOL    HW128122   3.325   2.091   7.564  0.4210  0.2758 -0.1752
 8960SOL    HW228123   3.206   2.077   7.471 -1.4282 -0.8494  2.2998
 8961SOL     OW28124   2.206   4.971   5.063 -0.6618 -0.5007  0.0323
 8961SOL    HW128125   2.187   5.044   5.122  0.5630 -0.0541 -0.1106
 8961SOL    HW228126   2.285   4.930   5.099 -0.5430 -0.9036 -0.6621
 8962SOL     OW28127   6.442   4.962   2.097 -0.4783 -0.0388 -0.5860
 8962SOL    HW128128   6.408   4.998   2.179 -1.0248 -0.8036 -0.4788
 8962SOL    HW228129   6.366   4.925   2.054  0.0100 -0.6554 -0.9148
 8963SOL     OW28130   1.072   1.346   2.458  0.0309  0.6164 -0.2569
 8963SOL    HW128131   1.018   1.404   2.404 -1.5110  0.1701  0.7826
 8963SOL    HW228132   1.105   1.403   2.528 -2.0517  0.1422  1.1669
 8964SOL     OW28133   7.026   1.094   5.101  0.2381 -0.3515  1.1553
 8964SOL    HW128134   7.070   1.178   5.115  0.4612 -0.2865  0.1217
 8964SOL    HW228135   6.936   1.118   5.078 -0.1507 -0.4597  2.5050
 8965SOL     OW28136   2.578   7.265   5.925  0.2107 -0.5621  0.1045
 8965SOL    HW128137   2.576   7.344   5.871  1.8944  0.8894  2.1217
 8965SOL    HW228138   2.605   7.196   5.865  4.6642  1.4925 -0.4607
 8966SOL     OW28139   6.695   0.534   0.568  0.4729 -0.4095  0.0795
 8966SOL    HW128140   6.756   0.581   0.625  0.1321  0.9573 -0.6738
 8966SOL    HW228141   6.706   0.574   0.482  1.3792 -2.8153 -0.9897
 8967SOL     OW28142   4.883   7.095   0.177  0.1162 -0.0105 -0.0800
 8967SOL    HW128143   4.885   7.059   0.266  1.8534 -1.4166 -0.6660
 8967SOL    HW228144   4.922   7.182   0.184  0.2709 -0.1310  0.5198
 8968SOL     OW28145   1.926   1.297   8.228  0.3751 -0.0124 -0.2224
 8968SOL    HW128146   1.905   1.324   8.138  0.6239  0.5285 -0.1215
 8968SOL    HW228147   1.901   1.372   8.281 -4.7439 -2.2202  0.7553
 8969SOL     OW28148   2.976   8.257   1.268  0.2137 -0.5515  1.0431
 8969SOL    HW128149   2.992   8.290   1.179  1.3554 -1.6438  0.8281
 8969SOL    HW228150   2.975   8.162   1.259  0.2561 -0.6690  2.1833
 8970SOL     OW28151   7.844   1.236   4.578  0.0609  0.1274 -0.0704
 8970SOL    HW128152   7.753   1.237   4.549 -0.6777 -0.7760  2.1134
 8970SOL    HW228153   7.856   1.149   4.617  2.5337 -0.5988 -2.3393
 8971SOL     OW28154   2.794   0.446   3.682 -0.3836 -0.3667  0.2083
 8971SOL    HW128155   2.880   0.406   3.689  0.8735  2.0640 -0.8353
 8971SOL    HW228156   2.772   0.441   3.589 -0.3238  1.1198  0.1112
 8972SOL     OW28157   0.479   3.804   2.794  0.1730  0.6304  0.1047
 8972SOL    HW128158   0.507   3.713   2.781 -0.1334  0.1319  2.6051
 8972SOL    HW228159   0.561   3.855   2.792  0.2658  0.4385 -2.1334
 8973SOL     OW28160   2.781   7.967   0.101 -0.2812 -0.3455  0.3667
 8973SOL    HW128161   2.757   7.924   0.184 -1.3218  2.7720  1.7469
 8973SOL    HW228162   2.845   8.033   0.126 -0.4050  0.4473 -1.3585
 8974SOL     OW28163   4.380   6.802   1.252  0.6118  0.4845  0.1903
 8974SOL    HW128164   4.445   6.733   1.240  0.0879 -0.0902  0.6167
 8974SOL    HW228165   4.301   6.768   1.210  0.3622  0.8325  0.3805
 8975SOL     OW28166   4.541   7.280   2.998 -0.1638 -0.4783  0.1305
 8975SOL    HW128167   4.513   7.370   2.980 -1.6695 -1.3804 -2.2067
 8975SOL    HW228168   4.512   7.264   3.088 -0.3571  1.1878  0.3846
 8976SOL     OW28169   4.863   5.131   0.195 -0.0194  0.4220  0.6746
 8976SOL    HW128170   4.811   5.206   0.164 -1.1191 -0.1246  1.1394
 8976SOL    HW228171   4.853   5.134   0.291  1.6810  0.9196  0.8507
 8977SOL     OW28172   4.069   6.845   5.969 -0.4480 -0.6772 -0.1101
 8977SOL    HW128173   4.016   6.793   6.029 -1.9644  1.8126  0.8215
 8977SOL    HW228174   4.139   6.881   6.023  0.6308 -1.7483 -0.7597
 8978SOL     OW28175   2.449   0.585   7.320  0.4508  0.4924 -0.2675
 8978SOL    HW128176   2.540   0.600   7.294  0.3422  0.0894 -0.8852
 8978SOL    HW228177   2.456   0.543   7.406  0.8678 -0.0382 -0.5523
 8979SOL     OW28178   1.602   5.226   5.721  0.0499 -0.2078  0.1382
 8979SOL    HW128179   1.659   5.149   5.727 -1.1561 -1.1710 -0.3945
 8979SOL    HW228180   1.601   5.262   5.809  3.6551  1.4422 -0.4477
 8980SOL     OW28181   6.676   4.723   7.675 -0.0720 -0.6692  0.3994
 8980SOL    HW128182   6.768   4.744   7.692 -0.5532 -0.2243  2.5234
 8980SOL    HW228183   6.650   4.665   7.746 -1.1408 -1.6863 -0.7996
 8981SOL     OW28184   7.835   3.191   5.674 -0.7306 -0.2114  0.8378
 8981SOL    HW128185   7.799   3.117   5.625 -2.4199  0.5821  0.8631
 8981SOL    HW228186   7.786   3.267   5.644 -0.6305  0.5474  2.5059
 8982SOL     OW28187   2.989   4.440   4.164  0.4067 -0.0957  0.3512
 8982SOL    HW128188   3.077   4.466   4.191  0.8239 -0.9787 -0.1374
 8982SOL    HW228189   3.001   4.400   4.078 -0.4315 -0.4602  0.4009
 8983SOL     OW28190   1.888   0.461   5.702 -0.0727 -0.3316 -0.1776
 8983SOL    HW128191   1.924   0.474   5.615 -0.9112  0.0358 -0.4758
 8983SOL    HW228192   1.825   0.390   5.693  0.0389 -0.4798  0.1824
 8984SOL     OW28193   6.428   5.420   1.846  0.4381  0.1607 -0.0042
 8984SOL    HW128194   6.379   5.385   1.920  0.2676  1.6576  0.6058
 8984SOL    HW228195   6.495   5.354   1.829 -0.5990 -1.0269  0.3490
 8985SOL     OW28196   3.605   4.019   6.335  0.2888 -0.2650  0.0880
 8985SOL    HW128197   3.613   4.064   6.250 -0.5944 -2.4113 -1.1743
 8985SOL    HW228198   3.553   3.941   6.316 -2.7978  0.8976  3.2740
 8986SOL     OW28199   5.812   0.411   1.535  0.4891  0.8636  0.2873
 8986SOL    HW128200   5.766   0.441   1.613  1.6343  0.1250  1.2680
 8986SOL    HW228201   5.882   0.476   1.522  0.7803  0.5653  0.3449
 8987SOL     OW28202   4.952   7.899   5.700 -0.3209  0.4296  0.6953
 8987SOL    HW128203   4.907   7.875   5.780  0.8105  1.5040  1.6764
 8987SOL    HW228204   4.970   7.993   5.710 -0.0631  0.5454 -0.7545
 8988SOL     OW28205   0.919   7.453   3.431  0.0461 -0.8321 -0.1066
 8988SOL    HW128206   0.914   7.423   3.340  0.8714 -1.0196 -0.0895
 8988SOL    HW228207   0.830   7.441   3.464 -0.6640  0.7451 -1.3538
 8989SOL     OW28208   0.434   4.026   4.515  0.1696  0.1175 -0.0904
 8989SOL    HW128209   0.515   4.006   4.562  0.0491 -1.6749 -0.6225
 8989SOL    HW228210   0.422   4.120   4.528  1.5293  0.1264  1.2610
 8990SOL     OW28211   5.168   0.124   5.385  0.2996 -0.0409 -0.3934
 8990SOL    HW128212   5.126   0.208   5.408  1.5469  0.2477  0.9026
 8990SOL    HW228213   5.215   0.099   5.464 -0.6665 -2.3676 -0.5082
 8991SOL     OW28214   1.732   2.889   3.397  0.0869 -0.2080  0.1525
 8991SOL    HW128215   1.671   2.950   3.438  0.3180  0.1460 -0.0287
 8991SOL    HW228216   1.717   2.899   3.303  1.4402  0.9622  0.0361
 8992SOL     OW28217   5.343   0.417   5.403 -0.2775 -0.3451 -0.1079
 8992SOL    HW128218   5.337   0.388   5.312 -1.2041  0.4816 -0.3169
 8992SOL    HW228219   5.357   0.511   5.397  1.9719 -0.6209  0.5766
 8993SOL     OW28220   1.753   5.570   4.138  0.2232 -0.4977  0.4489
 8993SOL    HW128221   1.827   5.548   4.195  1.4459 -0.9183 -1.2577
 8993SOL    HW228222   1.745   5.496   4.078 -0.7570  0.1206 -0.2084
 8994SOL     OW28223   4.375   6.374   0.482 -0.0113  0.3918 -0.2704
 8994SOL    HW128224   4.456   6.358   0.435 -0.0614 -0.2092 -0.1618
 8994SOL    HW228225   4.306   6.355   0.418 -0.0673  1.7003 -0.6153
 8995SOL     OW28226   1.687   4.606   3.760 -0.0740  0.2503  0.5721
 8995SOL    HW128227   1.719   4.641   3.844  1.9730  1.3666 -0.6205
 8995SOL    HW228228   1.762   4.557   3.725 -0.4713  0.8601 -1.1766
 8996SOL     OW28229   6.833   8.138   1.554 -0.1659 -0.2581 -0.2280
 8996SOL    HW128230   6.878   8.060   1.587 -1.8975 -0.8784  0.7282
 8996SOL    HW228231   6.765   8.156   1.619 -0.9626  0.9686 -1.3728
 8997SOL     OW28232   0.175   2.231   4.929  0.0571 -0.3883  0.0944
 8997SOL    HW128233   0.247   2.242   4.866 -0.1312  0.4321  0.0206
 8997SOL    HW228234   0.149   2.320   4.952 -1.8852 -0.6622 -0.9661
 8998SOL     OW28235   5.453   4.402   0.688 -0.4960 -0.2572 -0.0047
 8998SOL    HW128236   5.364   4.386   0.658 -1.3210  0.4027  1.9775
 8998SOL    HW228237   5.444   4.416   0.782  1.7678 -0.6706  0.3060
 8999SOL     OW28238   1.646   6.824   1.305 -0.0104  0.3647 -0.2615
 8999SOL    HW128239   1.734   6.788   1.314  0.4096  0.9682 -1.8175
 8999SOL    HW228240   1.640   6.889   1.375  0.6196 -0.0182  0.1521
 9000SOL     OW28241   1.679   1.679   0.454 -0.4147  0.6051 -0.4122
 9000SOL    HW128242   1.583   1.672   0.447 -0.1521 -1.5680 -2.1918
 9000SOL    HW228243   1.702   1.620   0.526 -0.6074  3.1695  1.8548
 9001SOL     OW28244   6.375   4.792   3.791 -0.0911 -0.6944  0.5305
 9001SOL    HW128245   6.417   4.867   3.751 -0.5876 -0.6690  0.0504
 9001SOL    HW228246   6.332   4.746   3.718  0.2491 -1.4696  0.8077
 9002SOL     OW28247   2.066   7.524   3.340 -0.1611 -0.0466 -0.4471
 9002SOL    HW128248   1.987   7.551   3.294  0.0749 -0.7174 -1.2677
 9002SOL    HW228249   2.085   7.436   3.306 -0.3708 -0.8512  1.4500
 9003SOL     OW28250   4.783   4.339   6.399  0.4694 -0.4158 -0.0002
 9003SOL    HW128251   4.714   4.276   6.420 -0.6917  0.3589 -1.3917
 9003SOL    HW228252   4.800   4.325   6.306  2.2373 -0.6378  0.3520
 9004SOL     OW28253   1.773   6.178   7.571  0.3300  0.5037  0.0369
 9004SOL    HW128254   1.734   6.181   7.484  1.2403 -3.0133 -0.5329
 9004SOL    HW228255   1.745   6.095   7.608  0.8200  1.4685  2.7366
 9005SOL     OW28256   7.913   4.235   6.034 -0.5350 -0.2874  0.6119
 9005SOL    HW128257   7.898   4.223   5.941 -1.1556  0.8726  0.5633
 9005SOL    HW228258   7.903   4.329   6.049  0.7955 -0.2840  1.6244
 9006SOL     OW28259   4.308   6.245   4.041  0.1592  0.2319  0.2925
 9006SOL    HW128260   4.368   6.174   4.015  0.0498  0.5079 -0.7100
 9006SOL    HW228261   4.303   6.237   4.137 -0.2514 -1.4428  0.1476
 9007SOL     OW28262   8.122   1.222   4.901 -0.2390 -0.1213  0.4016
 9007SOL    HW128263   8.035   1.258   4.888  0.2492  0.5269 -1.1371
 9007SOL    HW228264   8.181   1.297   4.889  0.6331 -0.9163 -0.3502
 9008SOL     OW28265   4.360   0.659   8.119  0.0239 -0.2991  0.6759
 9008SOL    HW128266   4.336   0.700   8.036 -1.0098 -2.9314 -0.3511
 9008SOL    HW228267   4.447   0.621   8.103  0.2857  0.0989  1.1325
 9009SOL     OW28268   3.298   2.429   0.454 -0.1191  0.3828  0.6291
 9009SOL    HW128269   3.203   2.435   0.457 -0.0810  1.1187  0.6215
 9009SOL    HW228270   3.321   2.366   0.522 -0.6243 -0.0122  0.4396
 9010SOL     OW28271   2.528   5.392   2.066 -0.2163 -0.3419 -0.2005
 9010SOL    HW128272   2.619   5.368   2.082 -0.2143 -0.4842 -0.4259
 9010SOL    HW228273   2.490   5.315   2.023 -0.4723 -0.3282 -0.0029
 9011SOL     OW28274   6.277   7.555   6.978  0.0637 -0.8515 -0.2615
 9011SOL    HW128275   6.352   7.503   7.008  0.2367 -1.6766 -2.0903
 9011SOL    HW228276   6.281   7.551   6.883 -1.2496  0.6362 -0.3938
 9012SOL     OW28277   6.403   4.048   8.111 -0.3978 -0.0765  0.1510
 9012SOL    HW128278   6.365   3.980   8.054 -0.3614 -2.1864  2.5587
 9012SOL    HW228279   6.342   4.056   8.184 -0.5480  2.7480 -0.2268
 9013SOL     OW28280   0.315   2.904   1.266  0.2291  0.2251 -0.2001
 9013SOL    HW128281   0.343   2.827   1.216  0.9189  0.3124  0.0532
 9013SOL    HW228282   0.268   2.867   1.341 -1.4859  0.1131 -1.3087
 9014SOL     OW28283   4.832   7.656   7.706 -0.3444  1.0486  0.3616
 9014SOL    HW128284   4.880   7.575   7.724 -1.0530  0.2294 -1.3485
 9014SOL    HW228285   4.901   7.719   7.683  0.0866  0.4908  0.0997
 9015SOL     OW28286   6.335   3.989   0.287  0.5830  0.1206  0.0920
 9015SOL    HW128287   6.275   3.979   0.361  1.3695 -0.1839  0.6880
 9015SOL    HW228288   6.403   4.049   0.318  1.1775 -0.3860 -0.2125
 9016SOL     OW28289   2.514   2.108   6.902 -0.6786  0.9201 -0.3519
 9016SOL    HW128290   2.471   2.026   6.874  0.9515  0.0353 -0.3079
 9016SOL    HW228291   2.466   2.134   6.981  0.2102 -1.2069  0.9325
 9017SOL     OW28292   0.963   0.027   0.792  0.7962  0.2918 -0.1491
 9017SOL    HW128293   1.056   0.048   0.787  1.0016 -1.1803 -3.4330
 9017SOL    HW228294   0.949  -0.041   0.726 -2.3205 -0.6631  1.3614
 9018SOL     OW28295   3.383   6.446   4.315 -0.1443  0.3105  0.3208
 9018SOL    HW128296   3.467   6.449   4.268 -0.0929  0.3905  0.4182
 9018SOL    HW228297   3.317   6.453   4.247 -0.1128 -1.9647  0.0055
 9019SOL     OW28298   5.960   2.564   2.265 -0.0071  0.4327 -0.5967
 9019SOL    HW128299   5.932   2.545   2.176  1.0787  0.3788 -0.9300
 9019SOL    HW228300   5.980   2.479   2.303  0.9182  0.5735 -0.7673
 9020SOL     OW28301   1.638   4.440   4.695  0.2105 -0.2822  0.2301
 9020SOL    HW128302   1.700   4.479   4.633 -0.4801 -1.6630 -1.3719
 9020SOL    HW228303   1.654   4.346   4.690 -1.8290 -0.6535 -0.0488
 9021SOL     OW28304   6.962   5.353   4.261  0.2513 -0.3790 -0.6837
 9021SOL    HW128305   7.017   5.290   4.216  0.5207 -1.1807  0.7324
 9021SOL    HW228306   6.989   5.438   4.227  1.4920 -0.8656 -0.9043
 9022SOL     OW28307   3.192   5.190   5.380  0.2608 -0.5085 -0.1243
 9022SOL    HW128308   3.264   5.237   5.422 -0.5958 -0.3090  1.1499
 9022SOL    HW228309   3.189   5.106   5.425  1.3662 -1.5580 -1.9557
 9023SOL     OW28310   1.549   1.435   1.841  0.5114 -0.5571 -0.1838
 9023SOL    HW128311   1.478   1.372   1.851 -0.0477  0.4529  2.5725
 9023SOL    HW228312   1.627   1.390   1.875  0.4621 -0.3999  0.1419
 9024SOL     OW28313   1.464   4.260   0.009 -0.5069  0.1570  0.3412
 9024SOL    HW128314   1.388   4.280  -0.046  1.1729  2.5619 -1.1916
 9024SOL    HW228315   1.478   4.340   0.060  0.2562 -0.7015  1.4810
 9025SOL     OW28316   5.962   0.021   5.291  0.3439  0.0388  0.5643
 9025SOL    HW128317   5.873   0.039   5.262  0.5177  0.2129  0.1233
 9025SOL    HW228318   5.972   0.070   5.373 -0.0279 -0.1393  0.7128
 9026SOL     OW28319   4.137   6.862   3.918 -0.1935 -0.4366 -0.4699
 9026SOL    HW128320   4.079   6.905   3.981  1.5408  3.2413 -1.2186
 9026SOL    HW228321   4.088   6.861   3.836  0.4786  2.0872 -0.9454
 9027SOL     OW28322   2.887   8.072   6.046 -0.1358  0.0903 -0.0186
 9027SOL    HW128323   2.798   8.074   6.081 -0.4585  1.1808 -0.8499
 9027SOL    HW228324   2.921   8.160   6.064 -0.0233  0.4069 -1.6731
 9028SOL     OW28325   6.468   5.419   2.194 -0.1057  0.6900 -0.0068
 9028SOL    HW128326   6.383   5.401   2.155 -0.4460  0.3981  0.8552
 9028SOL    HW228327   6.512   5.333   2.197  0.4681  0.9373 -1.0131
 9029SOL     OW28328   3.314   7.816   0.758  0.4993 -0.0012  0.5054
 9029SOL    HW128329   3.248   7.849   0.697  1.0875  0.0953 -0.0801
 9029SOL    HW228330   3.382   7.779   0.703  0.1205 -1.7009  1.1555
 9030SOL     OW28331   6.700   5.748   6.541 -0.3617  0.7603  0.3541
 9030SOL    HW128332   6.631   5.693   6.503 -0.0099  0.6937 -0.1845
 9030SOL    HW228333   6.722   5.811   6.472  1.6571 -0.5933 -0.2891
 9031SOL     OW28334   3.610   7.271   1.001  0.0379  0.0966 -0.3835
 9031SOL    HW128335   3.569   7.291   0.918  1.2589  1.8741 -0.5918
 9031SOL    HW228336   3.538   7.269   1.064 -0.5002  2.3905 -0.8700
 9032SOL     OW28337   4.537   2.217   4.698  0.4234  0.0124  0.1452
 9032SOL    HW128338   4.579   2.139   4.663 -0.7497 -0.5298 -0.0671
 9032SOL    HW228339   4.536   2.279   4.625 -1.0803 -0.7480 -0.5025
 9033SOL     OW28340   7.768   3.479   4.316  0.2592  0.2318  0.2604
 9033SOL    HW128341   7.716   3.434   4.249  1.4299 -1.1365  0.2636
 9033SOL    HW228342   7.710   3.549   4.347 -1.8202 -1.6453  0.7200
 9034SOL     OW28343   5.159   0.562   3.367  0.4145  0.5616  0.3607
 9034SOL    HW128344   5.140   0.469   3.356  0.6755  0.6915 -1.2928
 9034SOL    HW228345   5.076   0.600   3.395  0.4696 -0.2582  1.7126
 9035SOL     OW28346   5.598   0.940   7.387  0.2817  0.4250  0.1896
 9035SOL    HW128347   5.547   1.020   7.372  1.9572  1.5594  0.2501
 9035SOL    HW228348   5.566   0.878   7.323  0.0394  1.6956 -0.9416
 9036SOL     OW28349   2.372   0.538   6.757  0.4932 -0.2722  0.1814
 9036SOL    HW128350   2.464   0.555   6.777  0.6292  0.2483 -0.8259
 9036SOL    HW228351   2.374   0.470   6.689  0.1201 -0.6041  0.5035
 9037SOL     OW28352   3.338   5.469   3.829 -0.2865  0.0849 -0.0891
 9037SOL    HW128353   3.245   5.482   3.811 -0.7126 -0.4666  1.6340
 9037SOL    HW228354   3.365   5.549   3.874  0.6431  1.2157 -2.5501
 9038SOL     OW28355   0.498   7.847   5.232 -0.2589 -0.0249  0.5004
 9038SOL    HW128356   0.439   7.909   5.190  0.1097  0.0357  0.0778
 9038SOL    HW228357   0.582   7.860   5.190 -0.7339 -2.5155 -1.3535
 9039SOL     OW28358   7.753   7.766   8.253  0.0833 -0.2392  0.2413
 9039SOL    HW128359   7.787   7.700   8.192  0.9028  0.2278  0.1915
 9039SOL    HW228360   7.708   7.829   8.198 -0.1150 -0.3922  0.2267
 9040SOL     OW28361   4.998   2.317   6.535 -0.5176  0.7625 -0.6442
 9040SOL    HW128362   4.934   2.388   6.538 -0.4086  0.8353  0.1103
 9040SOL    HW228363   5.011   2.293   6.627 -0.8206 -0.4741 -0.9279
 9041SOL     OW28364   0.803   6.305   5.390  0.6939 -0.2167  0.5305
 9041SOL    HW128365   0.808   6.365   5.464  0.2664  0.9391 -0.3593
 9041SOL    HW228366   0.737   6.241   5.415  1.2536 -0.4160  1.5454
 9042SOL     OW28367   7.219   1.136   6.941 -0.0643  0.4491  0.3782
 9042SOL    HW128368   7.178   1.079   6.875  2.1248 -0.6054 -0.1391
 9042SOL    HW228369   7.188   1.103   7.025  1.3335 -1.6990  0.0900
 9043SOL     OW28370   1.177   0.774   2.585 -0.8333  0.2941  0.0622
 9043SOL    HW128371   1.115   0.703   2.601 -0.5346  0.0296  0.0374
 9043SOL    HW228372   1.150   0.844   2.645 -0.7718 -0.0517  0.4907
 9044SOL     OW28373   3.650   4.695   6.456 -0.2911  0.1147  0.1316
 9044SOL    HW128374   3.675   4.696   6.363  0.0930  0.5205  0.2346
 9044SOL    HW228375   3.729   4.666   6.502 -0.2574  0.5909  0.3869
 9045SOL     OW28376   5.700   1.523   2.754 -0.1953  0.3046  0.1692
 9045SOL    HW128377   5.606   1.527   2.769 -0.6442 -1.3411 -1.9518
 9045SOL    HW228378   5.739   1.518   2.841 -2.1189  0.0266  1.0292
 9046SOL     OW28379   5.269   5.544   5.937 -0.1296  0.4187  0.0414
 9046SOL    HW128380   5.260   5.479   5.867 -0.1405 -0.2597  0.6667
 9046SOL    HW228381   5.363   5.548   5.954 -0.3120 -1.3189  1.7350
 9047SOL     OW28382   7.887   0.666   1.012  0.9440 -0.0799  0.1418
 9047SOL    HW128383   7.910   0.758   1.001  0.0922  0.0372 -0.7634
 9047SOL    HW228384   7.862   0.637   0.924  2.3447 -1.4984  0.1787
 9048SOL     OW28385   5.258   6.526   7.465  0.1119  0.5720 -0.1373
 9048SOL    HW128386   5.216   6.536   7.550 -0.3332  1.6935 -0.4801
 9048SOL    HW228387   5.315   6.602   7.457 -1.2190  1.4317 -1.6107
 9049SOL     OW28388   2.190   6.290   0.318  0.6678 -0.6068  0.0319
 9049SOL    HW128389   2.266   6.324   0.367 -0.1337 -0.6926  1.3372
 9049SOL    HW228390   2.227   6.263   0.234  2.0238 -0.2670  0.4990
 9050SOL     OW28391   2.832   2.969   3.404  0.2650 -0.1395 -0.4962
 9050SOL    HW128392   2.799   3.034   3.341  0.1921  0.4678  0.1555
 9050SOL    HW228393   2.916   3.005   3.433  0.6803 -0.8209 -0.8566
 9051SOL     OW28394   4.510   0.227   2.876 -0.1317 -0.2457 -0.3003
 9051SOL    HW128395   4.538   0.155   2.932  0.6559 -0.5498 -1.0780
 9051SOL    HW228396   4.443   0.189   2.819 -0.6016 -0.0480  0.1088
 9052SOL     OW28397   5.876   3.348   3.081 -0.3334 -0.6471 -0.2134
 9052SOL    HW128398   5.789   3.320   3.111 -0.0680 -0.1388  1.0777
 9052SOL    HW228399   5.865   3.363   2.987 -1.3455 -1.7183 -0.2846
 9053SOL     OW28400   2.861   5.939   5.886  0.4333  0.1781 -0.0646
 9053SOL    HW128401   2.833   5.854   5.920 -1.6919  0.7522 -0.2898
 9053SOL    HW228402   2.883   5.923   5.795 -1.9978  0.2305 -0.7005
 9054SOL     OW28403   3.840   1.006   4.877  0.8199 -0.4639 -0.0912
 9054SOL    HW128404   3.924   1.049   4.861  1.3681 -1.2700  0.5766
 9054SOL    HW228405   3.857   0.945   4.949 -0.5013 -0.1425  0.5206
 9055SOL     OW28406   3.599   1.744   2.446 -0.1798  0.1054 -0.2830
 9055SOL    HW128407   3.688   1.744   2.411 -0.3791  0.5439 -0.8056
 9055SOL    HW228408   3.598   1.672   2.509  1.2183  1.6256  1.5209
 9056SOL     OW28409   7.437   2.455   1.340  0.4341 -0.1619  0.1917
 9056SOL    HW128410   7.407   2.390   1.276  2.0848  1.8261 -2.7050
 9056SOL    HW228411   7.363   2.516   1.349  0.3580 -0.2067 -0.1439
 9057SOL     OW28412   5.200   4.193   4.355  0.0183 -0.2282 -0.5323
 9057SOL    HW128413   5.229   4.284   4.359 -4.0792  1.2486 -2.0910
 9057SOL    HW228414   5.241   4.152   4.431 -0.8433  3.7843  2.2489
 9058SOL     OW28415   8.285   0.595   0.556 -0.7221 -0.3237  0.3537
 9058SOL    HW128416   8.212   0.558   0.505 -0.4119 -0.4844  0.0249
 9058SOL    HW228417   8.243   0.656   0.617 -0.9709  1.0047 -1.1015
 9059SOL     OW28418   0.095   2.789   2.931  0.0663 -0.3303 -0.9217
 9059SOL    HW128419   0.093   2.757   3.021 -3.5914  1.6072 -0.1895
 9059SOL    HW228420   0.089   2.710   2.877 -0.4507 -1.3471  0.5926
 9060SOL     OW28421   3.144   2.819   1.134 -0.0566  0.1886 -0.0731
 9060SOL    HW128422   3.058   2.850   1.162  0.1768  1.9061 -1.1673
 9060SOL    HW228423   3.125   2.758   1.062 -0.3670  0.7116 -0.4423
 9061SOL     OW28424   1.753   6.551   5.286 -0.0428  0.0901  0.0631
 9061SOL    HW128425   1.729   6.640   5.262 -0.9697  0.7204  3.1330
 9061SOL    HW228426   1.680   6.497   5.254  0.1830  0.5041 -1.1601
 9062SOL     OW28427   0.696   5.392   0.293 -0.3152 -0.3600  0.0171
 9062SOL    HW128428   0.739   5.346   0.364 -0.5480 -1.4911 -0.5600
 9062SOL    HW228429   0.753   5.467   0.274 -1.1098  0.9330  2.5043
 9063SOL     OW28430   6.219   0.191   6.560  0.1265 -0.3191  0.5502
 9063SOL    HW128431   6.190   0.204   6.650  0.3939  1.6728  0.3785
 9063SOL    HW228432   6.204   0.276   6.517  1.7283 -0.6714 -0.7841
 9064SOL     OW28433   2.053   0.115   0.843 -0.6689 -0.4253 -0.8262
 9064SOL    HW128434   2.145   0.090   0.835 -0.7277 -0.6560 -0.7911
 9064SOL    HW228435   2.051   0.208   0.823 -0.2178 -0.0921  0.6978
 9065SOL     OW28436   5.721   6.661   0.402 -0.5510 -0.2308  0.0292
 9065SOL    HW128437   5.628   6.665   0.381 -0.1950  2.5859 -1.3056
 9065SOL    HW228438   5.762   6.718   0.337  1.8241  0.5313  2.1230
 9066SOL     OW28439   6.159   3.437   4.801  0.3305 -0.2202  0.1181
 9066SOL    HW128440   6.128   3.349   4.776  2.0225 -1.1001  1.0271
 9066SOL    HW228441   6.171   3.482   4.717 -2.9328  0.0255 -0.2910
 9067SOL     OW28442   5.234   4.106   5.164 -0.0179  0.3448 -0.1075
 9067SOL    HW128443   5.263   4.046   5.095  0.0700  0.8596 -0.5229
 9067SOL    HW228444   5.189   4.050   5.227  1.2540 -0.3614  0.1944
 9068SOL     OW28445   5.916   5.815   5.145  0.5197  0.7387  0.7411
 9068SOL    HW128446   5.970   5.884   5.107 -0.1625  0.5240 -0.6716
 9068SOL    HW228447   5.938   5.737   5.093  0.7692  0.0659  1.8546
 9069SOL     OW28448   2.088   0.798   4.393 -0.0348 -0.5843  0.3789
 9069SOL    HW128449   2.119   0.860   4.327 -0.6117 -3.2631 -2.5360
 9069SOL    HW228450   2.167   0.767   4.436  0.4353  0.4894  0.3022
 9070SOL     OW28451   7.562   6.380   6.843 -0.0733 -0.2334 -0.0342
 9070SOL    HW128452   7.498   6.452   6.837 -0.1663 -0.1862  1.3894
 9070SOL    HW228453   7.642   6.422   6.874  0.8470 -0.1896 -2.3932
 9071SOL     OW28454   6.322   8.219   4.952  0.0634 -0.2994 -0.2319
 9071SOL    HW128455   6.253   8.283   4.971 -1.2892 -1.7588 -0.1077
 9071SOL    HW228456   6.391   8.239   5.015 -0.4428  0.9007 -0.0416
 9072SOL     OW28457   1.345   6.469   5.305 -0.3030  0.4506 -0.6865
 9072SOL    HW128458   1.386   6.490   5.389 -1.6776  1.6717 -0.3216
 9072SOL    HW228459   1.267   6.523   5.301 -0.4821  0.0998 -2.5804
 9073SOL     OW28460   0.261   6.997   8.083  0.4231 -0.4720 -0.3849
 9073SOL    HW128461   0.318   6.991   8.007 -1.4341  0.5634 -1.9176
 9073SOL    HW228462   0.173   6.978   8.049 -0.5462  0.6730  1.3608
 9074SOL     OW28463   6.744   3.421   2.581 -0.9493  0.5698 -0.2768
 9074SOL    HW128464   6.797   3.476   2.639 -1.4351  0.1864  0.5400
 9074SOL    HW228465   6.686   3.482   2.537  1.0062  1.1596 -2.1320
 9075SOL     OW28466   5.778   4.056   5.249  0.0283 -0.6051 -0.0364
 9075SOL    HW128467   5.694   4.067   5.294 -0.5323 -1.8925 -0.7299
 9075SOL    HW228468   5.837   4.021   5.316  0.4634  1.7665  0.8626
 9076SOL     OW28469   2.070   4.089   2.705 -0.3341  0.2803  0.1682
 9076SOL    HW128470   2.033   4.175   2.683 -1.2042 -0.5203 -1.6669
 9076SOL    HW228471   2.165   4.104   2.707 -0.3231  0.8839 -2.2330
 9077SOL     OW28472   3.029   3.767   1.382 -0.4851  0.1797 -0.0383
 9077SOL    HW128473   3.065   3.849   1.416 -2.6541  0.6455  1.2418
 9077SOL    HW228474   3.030   3.778   1.287  0.3401  1.2055  0.0773
 9078SOL     OW28475   6.912   7.429   4.736  0.1982  0.1874 -0.2486
 9078SOL    HW128476   6.825   7.465   4.751 -0.2350 -0.6722 -0.6757
 9078SOL    HW228477   6.954   7.491   4.677 -0.2634  0.3991 -0.3570
 9079SOL     OW28478   7.481   8.113   0.210 -0.0668 -0.1597 -0.1748
 9079SOL    HW128479   7.558   8.058   0.212  0.6774  0.8722 -0.1081
 9079SOL    HW228480   7.428   8.083   0.285  0.9191  0.0616  0.6232
 9080SOL     OW28481   6.312   3.583   6.327  0.2181 -0.1777 -0.0761
 9080SOL    HW128482   6.343   3.663   6.370  2.5430 -0.8604 -0.3670
 9080SOL    HW228483   6.376   3.568   6.257 -0.5412 -1.9432 -0.4179
 9081SOL     OW28484   0.905   1.779   0.812  0.1364  0.0375  0.1138
 9081SOL    HW128485   0.883   1.687   0.823  1.6640 -0.3150  0.2885
 9081SOL    HW228486   0.992   1.779   0.771 -0.6971  1.3795 -1.7563
 9082SOL     OW28487   5.460   6.560   1.896 -0.3474  0.1226 -0.0209
 9082SOL    HW128488   5.398   6.524   1.833 -0.9876  0.5091  0.3907
 9082SOL    HW228489   5.487   6.485   1.950 -0.3316 -0.0713 -0.2983
 9083SOL     OW28490   7.550   5.873   0.274  0.0485 -0.2579  0.0468
 9083SOL    HW128491   7.620   5.928   0.309 -0.0848 -0.2834  0.3555
 9083SOL    HW228492   7.483   5.873   0.342 -0.1543 -0.4203 -0.1508
 9084SOL     OW28493   1.539   2.257   2.326 -0.0199  0.1807  0.0793
 9084SOL    HW128494   1.491   2.193   2.274  1.2135 -0.4880 -0.2549
 9084SOL    HW228495   1.543   2.335   2.271 -0.3629  0.1060 -0.0536
 9085SOL     OW28496   6.688   1.597   2.676  0.3241  0.0033 -0.6394
 9085SOL    HW128497   6.782   1.610   2.688  0.2289  1.0567 -0.9998
 9085SOL    HW228498   6.648   1.671   2.720 -0.3267 -0.1726 -0.9295
 9086SOL     OW28499   6.951   5.793   4.871 -0.1020  0.1312 -0.5212
 9086SOL    HW128500   7.029   5.756   4.830 -0.8858  0.1873 -2.1345
 9086SOL    HW228501   6.904   5.718   4.906  0.2374  0.0052 -0.3350
 9087SOL     OW28502   1.371   1.766   5.392  0.1193  0.5870 -0.5415
 9087SOL    HW128503   1.286   1.758   5.349 -0.4444  0.8858  0.5073
 9087SOL    HW228504   1.352   1.755   5.485  1.2150  0.7305 -0.2963
 9088SOL     OW28505   0.426   7.098   4.018  0.5106 -0.2591  0.1329
 9088SOL    HW128506   0.451   7.006   4.017  0.3242 -0.3084 -0.5506
 9088SOL    HW228507   0.499   7.143   3.975  0.0912 -0.2324 -0.5729
 9089SOL     OW28508   0.687   6.523   7.837  0.4332  0.2607  0.2846
 9089SOL    HW128509   0.597   6.509   7.807  0.6175 -2.7763  0.9914
 9089SOL    HW228510   0.731   6.564   7.762 -0.8360 -0.9069 -1.1430
 9090SOL     OW28511   1.324   1.210   1.045  0.7486  0.6304  0.8148
 9090SOL    HW128512   1.375   1.130   1.039 -0.0239  0.0749  1.5424
 9090SOL    HW228513   1.235   1.181   1.063 -0.0001  1.5577 -1.2343
 9091SOL     OW28514   7.386   3.318   0.546 -0.2737  0.3924  0.0054
 9091SOL    HW128515   7.414   3.253   0.482  0.0026  0.8979 -0.4011
 9091SOL    HW228516   7.468   3.357   0.577 -0.3541 -0.4930  1.3638
 9092SOL     OW28517   2.529   1.745   7.863 -0.0688  0.5614 -0.2910
 9092SOL    HW128518   2.576   1.727   7.782  0.2468  2.0610 -0.4415
 9092SOL    HW228519   2.464   1.674   7.868  1.7415 -1.1555 -0.3913
 9093SOL     OW28520   0.207   7.012   3.310 -0.0477 -0.7032  0.2407
 9093SOL    HW128521   0.137   7.077   3.305 -0.3725 -0.9087  1.8517
 9093SOL    HW228522   0.224   6.989   3.219 -0.3755  1.1560 -0.3153
 9094SOL     OW28523   7.668   6.765   4.943 -0.3492  0.0104 -0.0978
 9094SOL    HW128524   7.584   6.790   4.980 -0.3460 -1.3730  0.8724
 9094SOL    HW228525   7.658   6.777   4.849 -1.0675  1.4852  0.1664
 9095SOL     OW28526   3.466   2.750   1.720  0.1575 -0.0951 -0.8538
 9095SOL    HW128527   3.402   2.817   1.697  0.7931  1.7057  2.2916
 9095SOL    HW228528   3.414   2.675   1.749 -0.5422  0.4201 -0.7764
 9096SOL     OW28529   0.277   2.599   6.889  0.7735  0.3705 -0.0478
 9096SOL    HW128530   0.365   2.636   6.885  1.4393 -0.6882  3.1443
 9096SOL    HW228531   0.291   2.504   6.885 -0.2519  0.2063  0.0961
 9097SOL     OW28532   4.258   0.101   5.920  0.2603  0.1183  0.0512
 9097SOL    HW128533   4.216   0.097   6.006  2.4623 -0.0884  1.1524
 9097SOL    HW228534   4.228   0.022   5.875 -0.8133  0.1639  0.6741
 9098SOL     OW28535   1.713   3.204   8.094 -0.3241 -0.4357 -0.4241
 9098SOL    HW128536   1.641   3.225   8.153  0.6118 -1.5936  1.1625
 9098SOL    HW228537   1.686   3.123   8.051 -1.3015  0.7527 -2.1457
 9099SOL     OW28538   5.646   6.747   3.141 -0.7355 -0.4520 -0.2607
 9099SOL    HW128539   5.655   6.756   3.047  2.4738 -1.1426 -0.0670
 9099SOL    HW228540   5.642   6.836   3.174  5.0955  0.1068 -0.5424
 9100SOL     OW28541   3.700   5.713   6.959  0.3226  0.0560  0.4796
 9100SOL    HW128542   3.639   5.767   7.009  0.3728 -0.5406  1.1954
 9100SOL    HW228543   3.693   5.626   6.999  1.4320 -0.0820  0.3916
 9101SOL     OW28544   6.808   2.506   7.090  0.1606  0.3250  0.0765
 9101SOL    HW128545   6.852   2.492   7.174 -0.3341 -1.1415  0.1025
 9101SOL    HW228546   6.725   2.547   7.114 -0.6333 -1.4476  0.4552
 9102SOL     OW28547   4.412   7.768   6.822  0.5760  0.2813  0.1238
 9102SOL    HW128548   4.497   7.811   6.815  0.1493  2.0981  4.2913
 9102SOL    HW228549   4.349   7.835   6.795  0.2406  0.4605  1.3217
 9103SOL     OW28550   2.752   1.809   3.278  0.2400 -0.1326  0.0861
 9103SOL    HW128551   2.793   1.791   3.363  0.5542 -2.1909 -0.4730
 9103SOL    HW228552   2.783   1.739   3.221 -3.4230 -1.3442 -0.5610
 9104SOL     OW28553   4.356   0.198   1.223 -0.3569 -0.2311 -0.1074
 9104SOL    HW128554   4.283   0.139   1.208  1.2704 -2.1799 -0.6719
 9104SOL    HW228555   4.419   0.145   1.274  0.8672  1.2133 -0.0797
 9105SOL     OW28556   4.249   3.774   1.383 -0.0478 -0.7919 -0.3350
 9105SOL    HW128557   4.309   3.754   1.311 -0.3201 -0.2689 -0.7108
 9105SOL    HW228558   4.162   3.774   1.343 -0.2761 -1.3218  0.1616
 9106SOL     OW28559   1.174   7.498   8.099  0.1249 -0.3746  0.0644
 9106SOL    HW128560   1.169   7.585   8.138 -0.3513 -0.2646 -0.2369
 9106SOL    HW228561   1.265   7.489   8.072  0.4359 -0.4121  1.1097
 9107SOL     OW28562   1.028   7.042   2.577  0.2498  0.8091 -0.2640
 9107SOL    HW128563   1.033   7.055   2.482  1.4149 -3.0945 -0.8423
 9107SOL    HW228564   0.936   7.023   2.595  0.6019 -2.0541 -1.2368
 9108SOL     OW28565   1.321   2.293   1.466 -0.0352  0.0549  0.2211
 9108SOL    HW128566   1.305   2.293   1.561  2.8122  1.9178  0.7630
 9108SOL    HW228567   1.312   2.201   1.441  1.0488 -0.7946  2.6974
 9109SOL     OW28568   1.463   6.396   1.141 -0.0596 -0.8721 -0.3424
 9109SOL    HW128569   1.487   6.305   1.160 -3.6157 -1.5521  1.4911
 9109SOL    HW228570   1.410   6.390   1.061 -1.8593 -0.7124  0.8100
 9110SOL     OW28571   0.139   7.505   6.548 -0.2242 -0.0231  0.1335
 9110SOL    HW128572   0.092   7.494   6.466  1.4374  0.9937 -0.9960
 9110SOL    HW228573   0.176   7.419   6.567  1.0129  0.1923 -1.2339
 9111SOL     OW28574   2.651   6.765   4.340  0.1811 -0.1153  0.2435
 9111SOL    HW128575   2.681   6.682   4.303 -0.8279 -0.0477 -0.7383
 9111SOL    HW228576   2.732   6.815   4.354  0.7478 -1.0439  0.3223
 9112SOL     OW28577   3.438   6.806   6.947 -0.3059  0.0318 -0.0545
 9112SOL    HW128578   3.415   6.753   6.870 -0.3846  2.1304 -1.5311
 9112SOL    HW228579   3.529   6.781   6.966  1.1785  2.4380 -3.4561
 9113SOL     OW28580   2.788   8.093   1.045 -0.4872  0.1588 -0.8017
 9113SOL    HW128581   2.835   8.021   1.088  0.9323  1.6383  0.1718
 9113SOL    HW228582   2.775   8.062   0.955  0.4817 -1.1366 -0.5177
 9114SOL     OW28583   2.751   1.452   1.806  0.2770 -0.2487 -0.2294
 9114SOL    HW128584   2.747   1.426   1.714 -2.5200  3.6982 -1.3682
 9114SOL    HW228585   2.667   1.424   1.843  0.2286  0.6657  0.3771
 9115SOL     OW28586   2.073   0.438   7.412 -0.2681 -0.4782  0.0469
 9115SOL    HW128587   2.094   0.353   7.450 -0.3576 -0.0622  1.0411
 9115SOL    HW228588   1.982   0.454   7.436 -0.0868  0.1468  0.3259
 9116SOL     OW28589   5.018   3.837   2.630 -0.2754 -0.4262  0.0427
 9116SOL    HW128590   4.980   3.846   2.718 -1.7694 -1.6030 -0.4683
 9116SOL    HW228591   5.097   3.891   2.633 -0.6091  0.0019  1.9371
 9117SOL     OW28592   2.487   3.928   5.440  0.2115 -0.6411  0.1361
 9117SOL    HW128593   2.409   3.874   5.455 -0.3102 -0.2421 -1.1227
 9117SOL    HW228594   2.486   3.947   5.346  2.2672 -1.3200 -0.0621
 9118SOL     OW28595   1.820   6.733   7.210  0.5207 -0.6447  0.4019
 9118SOL    HW128596   1.793   6.648   7.174  0.1165 -0.6899  0.8124
 9118SOL    HW228597   1.830   6.717   7.304  0.2754 -0.1923  0.5049
 9119SOL     OW28598   3.924   3.580   2.406  0.0827 -0.7060 -0.0880
 9119SOL    HW128599   3.885   3.578   2.319 -0.5686 -1.8968  0.2147
 9119SOL    HW228600   4.015   3.604   2.392  0.1387 -1.5320 -1.1611
 9120SOL     OW28601   0.994   6.870   5.869  0.1814 -0.1529 -0.5826
 9120SOL    HW128602   1.013   6.875   5.963  0.5245 -1.0691 -0.5969
 9120SOL    HW228603   1.066   6.918   5.827  0.5362 -0.5426 -0.4261
 9121SOL     OW28604   2.531   1.449   8.182 -0.1156  0.2991  0.1527
 9121SOL    HW128605   2.441   1.480   8.189 -0.3647 -0.3903  0.0924
 9121SOL    HW228606   2.550   1.411   8.268 -0.3996 -0.8986 -0.3055
 9122SOL     OW28607   4.077   4.407   6.629  0.4007  0.4702 -0.5544
 9122SOL    HW128608   4.053   4.454   6.549  3.3689  2.2517 -0.5090
 9122SOL    HW228609   4.140   4.466   6.673 -0.1977 -1.0219  2.4489
 9123SOL     OW28610   6.371   6.225   0.981  0.3000 -0.2403  0.1667
 9123SOL    HW128611   6.287   6.212   0.937 -0.1697  0.1008  0.9529
 9123SOL    HW228612   6.436   6.194   0.918 -0.1798  2.6048 -1.8006
 9124SOL     OW28613   5.444   0.682   5.609  0.4939 -0.3609  0.0822
 9124SOL    HW128614   5.522   0.717   5.566  0.7774 -0.4635  0.5137
 9124SOL    HW228615   5.475   0.654   5.695 -0.1907  0.3497  0.5572
 9125SOL     OW28616   6.911   3.282   7.520 -0.1465 -0.0904  0.0111
 9125SOL    HW128617   6.982   3.253   7.578 -1.1198 -0.0864  1.2347
 9125SOL    HW228618   6.886   3.204   7.472  0.6823 -0.0951 -0.4194
 9126SOL     OW28619   4.193   0.572   3.515 -0.2829 -0.6930 -0.0431
 9126SOL    HW128620   4.186   0.645   3.453  0.5067 -0.7164 -0.1621
 9126SOL    HW228621   4.133   0.595   3.586 -0.1299  0.0085 -0.1423
 9127SOL     OW28622   0.259   7.060   4.767  0.6606  0.1776  0.0152
 9127SOL    HW128623   0.312   7.119   4.712  0.5041  0.5991  0.3186
 9127SOL    HW228624   0.294   6.973   4.748  0.6177  0.3184 -0.7493
 9128SOL     OW28625   1.929   5.607   7.273  0.7246 -0.2982 -0.6626
 9128SOL    HW128626   1.912   5.573   7.185  1.3299 -0.7950 -0.5932
 9128SOL    HW228627   1.866   5.561   7.329  0.5193 -0.1806 -0.7971
 9129SOL     OW28628   3.678   7.823   7.288 -0.4237 -0.2593 -0.5938
 9129SOL    HW128629   3.731   7.770   7.228  2.0523 -0.7099  1.9176
 9129SOL    HW228630   3.724   7.906   7.293  0.7703 -1.0517  2.5214
 9130SOL     OW28631   2.637   2.131   2.742 -0.3960  0.5573 -0.1672
 9130SOL    HW128632   2.726   2.115   2.709 -0.8795  0.4997 -1.4948
 9130SOL    HW228633   2.639   2.099   2.832  0.3387 -1.4677 -0.8603
 9131SOL     OW28634   5.984   8.141   6.314  0.4649 -0.1355  0.2069
 9131SOL    HW128635   6.023   8.203   6.375 -0.1989  0.7578 -0.2625
 9131SOL    HW228636   6.013   8.170   6.228  0.6414 -0.8402  0.0227
 9132SOL     OW28637   4.811   4.708   1.592  0.2406 -0.3094 -0.0745
 9132SOL    HW128638   4.761   4.748   1.662 -1.3463 -0.9487 -0.8092
 9132SOL    HW228639   4.781   4.753   1.513  0.2908 -1.1876 -0.6019
 9133SOL     OW28640   3.635   4.452   4.025 -0.3600 -0.0053 -0.1744
 9133SOL    HW128641   3.546   4.440   3.992 -0.0140  0.0900 -1.1495
 9133SOL    HW228642   3.650   4.547   4.020 -0.2865  0.0082  0.2307
 9134SOL     OW28643   6.039   6.222   3.255 -0.3520 -0.2648 -0.1901
 9134SOL    HW128644   5.984   6.162   3.204  0.7031 -1.1013 -0.3527
 9134SOL    HW228645   6.029   6.307   3.210  0.2881 -0.9181 -1.5959
 9135SOL     OW28646   2.717   0.472   3.402  0.1717  0.1930  0.2907
 9135SOL    HW128647   2.689   0.432   3.320  0.2878  1.3011 -0.3053
 9135SOL    HW228648   2.661   0.550   3.411  1.7613  1.3946  0.0337
 9136SOL     OW28649   5.995   4.985   7.019 -0.3561  0.0032  0.2325
 9136SOL    HW128650   6.015   4.920   6.952  0.2763  0.1157  0.3122
 9136SOL    HW228651   6.078   5.030   7.034 -0.5815  0.2150  0.8332
 9137SOL     OW28652   4.123   4.058   7.332  0.2990 -0.2488 -0.0553
 9137SOL    HW128653   4.096   4.015   7.413  0.8297 -0.4779 -0.0036
 9137SOL    HW228654   4.191   4.120   7.359  2.1374 -1.9681 -0.6547
 9138SOL     OW28655   5.930   5.406   1.059 -0.4766  0.9602  0.4835
 9138SOL    HW128656   5.894   5.445   0.979 -0.6291  0.9206  0.5330
 9138SOL    HW228657   5.911   5.312   1.050  2.1722  0.5012 -0.8712
 9139SOL     OW28658   1.237   4.440   6.126 -0.2205 -0.2835  0.1486
 9139SOL    HW128659   1.221   4.371   6.062  2.4975  0.6110 -1.5943
 9139SOL    HW228660   1.296   4.401   6.190  0.0609 -0.0369  0.0383
 9140SOL     OW28661   6.071   6.984   5.186  0.3528  0.4357 -0.0283
 9140SOL    HW128662   5.983   6.975   5.220  1.1416 -0.9061  1.7092
 9140SOL    HW228663   6.078   7.076   5.159 -1.8081  0.3529 -0.9420
 9141SOL     OW28664   8.243   0.840   8.001  0.0613 -0.0629 -0.2948
 9141SOL    HW128665   8.265   0.755   7.964 -0.5270 -1.0532  1.5408
 9141SOL    HW228666   8.327   0.880   8.022  0.3240 -0.7143 -0.0854
 9142SOL     OW28667   6.406   3.708   5.918 -0.3606 -0.0350 -0.9393
 9142SOL    HW128668   6.468   3.640   5.890  0.0303 -0.1014  0.0695
 9142SOL    HW228669   6.385   3.685   6.008 -0.2361  1.1739 -0.5983
 9143SOL     OW28670   7.107   2.222   5.558 -0.4662 -0.1456  0.3114
 9143SOL    HW128671   7.089   2.225   5.652  0.3553  0.7814  0.4551
 9143SOL    HW228672   7.082   2.309   5.526  3.3219  1.1000  0.4764
 9144SOL     OW28673   2.326   0.036   5.999 -0.1168 -0.1365  0.5719
 9144SOL    HW128674   2.253  -0.026   5.988  0.1736 -0.7005  1.7476
 9144SOL    HW228675   2.284   0.118   6.023 -0.3649 -0.4876  1.3522
 9145SOL     OW28676   2.158   6.668   5.145 -0.2820  0.0622  0.1612
 9145SOL    HW128677   2.130   6.708   5.063  0.0573 -0.0097  0.0068
 9145SOL    HW228678   2.084   6.679   5.204 -1.9913 -3.1302 -1.2574
 9146SOL     OW28679   5.146   7.982   1.492 -0.5986  0.2740 -0.6683
 9146SOL    HW128680   5.128   7.892   1.467 -1.3133  0.2806 -0.1770
 9146SOL    HW228681   5.241   7.985   1.505 -0.6125 -0.4860 -0.3626
 9147SOL     OW28682   3.237   4.168   5.353 -0.0513  0.4948 -0.3011
 9147SOL    HW128683   3.175   4.099   5.377  1.5116 -0.9348 -0.2333
 9147SOL    HW228684   3.321   4.136   5.386  0.5843  2.7884  0.3668
 9148SOL     OW28685   1.253   0.745   6.447  0.3724  0.0770 -0.0310
 9148SOL    HW128686   1.262   0.738   6.542 -1.9397 -1.2202  0.1376
 9148SOL    HW228687   1.196   0.821   6.433  2.4603  1.6010 -0.5192
 9149SOL     OW28688   0.808   6.695   7.648  0.2858  0.1263 -0.3925
 9149SOL    HW128689   0.858   6.751   7.708 -0.1210 -1.2134  1.2600
 9149SOL    HW228690   0.875   6.655   7.592  0.7010  1.2223 -0.6971
 9150SOL     OW28691   7.358   0.134   4.331  0.3147  0.7277 -0.3281
 9150SOL    HW128692   7.331   0.182   4.253  0.3413 -1.9868 -2.0774
 9150SOL    HW228693   7.277   0.124   4.381  0.1811  1.9744 -0.2869
 9151SOL     OW28694   7.156   1.781   1.158 -0.0439 -0.1696 -0.3678
 9151SOL    HW128695   7.224   1.844   1.135 -1.1086  0.6758 -1.2472
 9151SOL    HW228696   7.108   1.767   1.076 -0.9147 -0.7762  0.2404
 9152SOL     OW28697   3.310   1.041   3.333 -0.0929  0.2460  0.1123
 9152SOL    HW128698   3.368   1.117   3.345  0.5822 -0.4599  1.3358
 9152SOL    HW228699   3.235   1.060   3.389  1.4467 -1.3834  2.7982
 9153SOL     OW28700   3.869   5.391   6.735  0.4567 -0.0156  0.7857
 9153SOL    HW128701   3.804   5.338   6.779 -1.1566  1.2213 -0.0407
 9153SOL    HW228702   3.936   5.408   6.802 -0.4488 -0.6507  1.8633
 9154SOL     OW28703   1.654   3.492   5.941 -0.3351  0.1694  0.7621
 9154SOL    HW128704   1.733   3.452   5.977  0.5757 -0.8815 -2.2435
 9154SOL    HW228705   1.683   3.577   5.909 -1.1883  1.1922  2.6053
 9155SOL     OW28706   7.405   7.013   1.240 -0.3110 -0.2894 -0.2466
 9155SOL    HW128707   7.479   6.958   1.213 -0.1355  0.5872 -1.5996
 9155SOL    HW228708   7.352   6.956   1.295  1.1061 -1.0878  0.3279
 9156SOL     OW28709   1.587   4.765   0.501  0.0674  0.1166  0.1782
 9156SOL    HW128710   1.636   4.765   0.419  1.8550 -0.2891  1.2308
 9156SOL    HW228711   1.522   4.696   0.490  0.3742 -0.0144 -0.8556
 9157SOL     OW28712   3.717   0.306   1.177 -0.4375  1.0185 -0.7598
 9157SOL    HW128713   3.800   0.277   1.213 -2.1728 -1.7488  1.1406
 9157SOL    HW228714   3.709   0.257   1.095 -0.8434  0.1995 -0.2361
 9158SOL     OW28715   1.212   4.906   1.838  0.9078  0.1083  0.2964
 9158SOL    HW128716   1.208   4.895   1.744  1.5971 -0.1445  0.2924
 9158SOL    HW228717   1.290   4.960   1.853 -0.9566  2.8783  0.4900
 9159SOL     OW28718   5.636   6.811   4.239  0.3144 -0.4134 -0.1792
 9159SOL    HW128719   5.657   6.796   4.331  0.5622  0.8803 -0.0273
 9159SOL    HW228720   5.566   6.876   4.240  0.6709 -0.0097 -0.9276
 9160SOL     OW28721   7.774   0.354   5.010 -0.6400 -0.3253  0.3764
 9160SOL    HW128722   7.853   0.396   5.045 -1.4651  0.0721  1.8114
 9160SOL    HW228723   7.718   0.427   4.984 -0.7843 -0.5895 -0.0464
 9161SOL     OW28724   2.084   0.896   1.244  0.2623  0.0817  0.5537
 9161SOL    HW128725   2.096   0.837   1.170 -1.4005  0.1030  0.2393
 9161SOL    HW228726   2.162   0.883   1.298  1.5475  0.1417 -1.2289
 9162SOL     OW28727   5.860   5.293   6.672  0.3619 -0.1840  0.8916
 9162SOL    HW128728   5.927   5.358   6.694  1.4757 -1.1328  0.3020
 9162SOL    HW228729   5.906   5.210   6.670 -0.6807 -0.7579 -0.2244
 9163SOL     OW28730   3.225   1.920   2.770 -0.0761 -0.2370  0.1817
 9163SOL    HW128731   3.208   1.938   2.862  0.2992  0.2975  0.1440
 9163SOL    HW228732   3.141   1.888   2.736 -0.0471 -1.0450  0.8529
 9164SOL     OW28733   0.929   5.885   1.064  0.0554  0.0641 -0.1047
 9164SOL    HW128734   0.885   5.862   0.983  0.8508  0.4333 -0.6502
 9164SOL    HW228735   1.020   5.859   1.050  0.0498 -0.5685  0.9562
 9165SOL     OW28736   0.638   7.905   7.396  0.3176  0.8746  0.0038
 9165SOL    HW128737   0.692   7.844   7.446 -0.6337 -1.0827 -1.2785
 9165SOL    HW228738   0.700   7.967   7.359  1.4140  0.1348  0.5607
 9166SOL     OW28739   0.546   5.266   0.098 -0.4405  0.1209 -0.2176
 9166SOL    HW128740   0.597   5.313   0.163 -0.4607  1.2276 -0.9913
 9166SOL    HW228741   0.611   5.230   0.037 -0.5231  0.6785 -0.6381
 9167SOL     OW28742   5.191   0.133   2.480 -0.0590  0.6906  0.2338
 9167SOL    HW128743   5.140   0.148   2.560 -2.4958  2.5519 -1.5854
 9167SOL    HW228744   5.258   0.202   2.482 -1.5718  2.2328 -0.4193
 9168SOL     OW28745   0.938   2.348   1.881 -0.0360 -0.0273 -0.6096
 9168SOL    HW128746   0.976   2.287   1.817 -0.2287  0.4929 -1.2210
 9168SOL    HW228747   1.012   2.400   1.911  0.1051 -0.4586 -0.1873
 9169SOL     OW28748   6.196   2.947   6.475  0.6421  0.0202  0.2073
 9169SOL    HW128749   6.132   3.010   6.509  1.1271  0.3886  0.4445
 9169SOL    HW228750   6.169   2.863   6.513 -0.9778 -0.2181 -1.4210
 9170SOL     OW28751   6.522   1.134   5.066  0.1757  0.2540  0.0410
 9170SOL    HW128752   6.444   1.161   5.018 -0.0350 -1.6215 -0.7063
 9170SOL    HW228753   6.506   1.043   5.090  1.1684  0.5451  1.8909
 9171SOL     OW28754   4.993   1.863   0.923  0.1747 -0.0916  0.1337
 9171SOL    HW128755   5.032   1.864   0.836  0.7859  1.3452  0.4044
 9171SOL    HW228756   5.027   1.942   0.965  0.8415 -1.3571  2.0778
 9172SOL     OW28757   3.323   0.881   2.019 -0.3470  0.3113 -0.2616
 9172SOL    HW128758   3.382   0.955   2.029 -0.2506  0.1430  0.4385
 9172SOL    HW228759   3.250   0.899   2.077 -0.5830  0.1181 -0.4954
 9173SOL     OW28760   7.780   3.925   2.603 -0.0283 -0.3873 -0.0872
 9173SOL    HW128761   7.873   3.927   2.582  0.2941 -2.2926  1.0389
 9173SOL    HW228762   7.748   3.844   2.564 -0.7682 -0.7462  1.2231
 9174SOL     OW28763   1.420   6.558   5.829 -0.5046 -0.1996  0.7894
 9174SOL    HW128764   1.325   6.554   5.841 -0.6865  1.1703 -0.1003
 9174SOL    HW228765   1.432   6.593   5.741  0.8291  1.3433  1.5552
 9175SOL     OW28766   5.146   5.596   1.460 -0.1823  0.2230 -0.3288
 9175SOL    HW128767   5.080   5.646   1.508 -0.3089  1.8681 -2.1648
 9175SOL    HW228768   5.229   5.634   1.487  0.0521 -1.7168  1.8307
 9176SOL     OW28769   5.600   0.492   6.857 -0.5408  0.1485  0.0440
 9176SOL    HW128770   5.652   0.565   6.891 -0.3770  0.6847 -1.3167
 9176SOL    HW228771   5.656   0.415   6.870  0.4409  0.6552 -0.9987
 9177SOL     OW28772   0.260   5.224   0.116 -0.5194 -0.2724 -0.2671
 9177SOL    HW128773   0.350   5.243   0.141 -1.0803  0.4281  1.2258
 9177SOL    HW228774   0.252   5.262   0.028  0.7120 -0.6012 -0.5419
 9178SOL     OW28775   7.879   8.257   5.828 -0.0237  0.0631  0.2639
 9178SOL    HW128776   7.850   8.314   5.900 -0.5721 -1.5701  1.3541
 9178SOL    HW228777   7.826   8.178   5.837 -0.3864 -0.0128 -2.2009
 9179SOL     OW28778   7.377   1.511   6.605  0.1651 -0.6150  0.0384
 9179SOL    HW128779   7.398   1.430   6.652 -1.0783 -0.6041  0.6427
 9179SOL    HW228780   7.364   1.576   6.675  2.6561  0.4944 -0.4874
 9180SOL     OW28781   0.410   0.070   6.236 -0.2515 -0.3352  0.5067
 9180SOL    HW128782   0.477   0.139   6.237 -1.0436  0.4216  1.4444
 9180SOL    HW228783   0.372   0.072   6.324 -1.4080 -0.8682  0.0224
 9181SOL     OW28784   1.396   5.712   5.998 -0.1619 -0.1199 -0.2641
 9181SOL    HW128785   1.472   5.654   6.003  0.6609  1.0054  0.3647
 9181SOL    HW228786   1.423   5.782   5.939  0.6189  2.2029  2.7340
 9182SOL     OW28787   6.101   4.285   6.043 -0.2121 -0.2800 -0.1711
 9182SOL    HW128788   6.020   4.241   6.067 -0.5825  0.2850 -0.3624
 9182SOL    HW228789   6.111   4.267   5.949  0.5969 -1.4755  0.1371
 9183SOL     OW28790   7.732   5.227   1.896  0.2782 -0.0303 -0.5776
 9183SOL    HW128791   7.661   5.166   1.917  0.7421 -1.1292 -2.1149
 9183SOL    HW228792   7.788   5.227   1.973 -1.2834  0.7130  0.5886
 9184SOL     OW28793   2.163   6.237   2.655 -0.5804  0.0648 -0.0614
 9184SOL    HW128794   2.212   6.192   2.586 -0.8018  0.0170 -0.1854
 9184SOL    HW228795   2.109   6.169   2.695  1.8064 -0.5738  2.1813
 9185SOL     OW28796   3.020   0.480   6.346  0.1584 -0.2833  0.3210
 9185SOL    HW128797   3.089   0.453   6.285 -0.0929 -1.2977  0.4785
 9185SOL    HW228798   3.030   0.421   6.421 -1.2821 -0.8439  0.0810
 9186SOL     OW28799   0.905   4.381   6.002  0.6308 -0.4027 -0.0953
 9186SOL    HW128800   0.865   4.448   6.058  1.3007 -1.0855  1.2082
 9186SOL    HW228801   0.839   4.364   5.935  0.0314  0.8074  0.1607
 9187SOL     OW28802   5.708   5.983   7.649  0.0907 -0.3194  0.3411
 9187SOL    HW128803   5.795   5.951   7.625 -0.5538 -1.8521  0.0390
 9187SOL    HW228804   5.649   5.912   7.626 -1.3817  1.1730 -0.5182
 9188SOL     OW28805   2.623   5.224   7.640 -0.0192  0.0684 -0.1098
 9188SOL    HW128806   2.573   5.173   7.576 -0.4614  1.8703 -1.2140
 9188SOL    HW228807   2.703   5.173   7.654 -1.1219 -1.6971 -0.0309
 9189SOL     OW28808   7.855   7.702   5.366  0.2520  0.2640 -0.1986
 9189SOL    HW128809   7.886   7.631   5.310  1.6731  1.1006 -0.4910
 9189SOL    HW228810   7.846   7.777   5.307 -1.0604  0.4040  0.1446
 9190SOL     OW28811   2.719   0.525   7.310  0.4441  0.1899  0.2740
 9190SOL    HW128812   2.718   0.555   7.401 -0.9271  0.9007  0.0315
 9190SOL    HW228813   2.725   0.429   7.317 -2.7369  0.0099  1.1978
 9191SOL     OW28814   7.757   5.248   6.287  0.2511 -0.8062 -0.4379
 9191SOL    HW128815   7.663   5.256   6.301  0.2417 -1.2502 -0.2470
 9191SOL    HW228816   7.795   5.318   6.340  0.0432 -0.7839 -0.3162
 9192SOL     OW28817   1.428   2.159   2.564 -0.3513  0.0603 -0.3502
 9192SOL    HW128818   1.357   2.097   2.549  1.8942 -2.3658 -1.2358
 9192SOL    HW228819   1.441   2.201   2.478 -0.5325  0.3256 -0.2491
 9193SOL     OW28820   3.060   4.073   0.162 -0.6918 -0.3285 -0.3765
 9193SOL    HW128821   3.043   4.134   0.233  0.9430  0.9560 -1.0543
 9193SOL    HW228822   3.056   3.987   0.202  1.3938  0.4172  1.5447
 9194SOL     OW28823   7.528   1.478   4.349  0.4108  0.6827  0.4374
 9194SOL    HW128824   7.607   1.532   4.350 -0.1985  1.6360 -0.8638
 9194SOL    HW228825   7.528   1.436   4.263 -0.6245  0.8874  0.3270
 9195SOL     OW28826   7.998   3.962   6.060 -0.2043  0.3644 -0.9466
 9195SOL    HW128827   8.087   3.988   6.036 -0.0923  0.6518 -0.2313
 9195SOL    HW228828   7.955   4.044   6.085  0.1055 -0.0772  1.1666
 9196SOL     OW28829   3.520   2.436   3.219 -0.0131  0.3759 -0.1192
 9196SOL    HW128830   3.562   2.350   3.225  2.0708  1.4341  0.8521
 9196SOL    HW228831   3.450   2.424   3.154 -0.3910 -2.2905  0.6968
 9197SOL     OW28832   5.583   7.712   5.331  0.6560  0.8274  0.3634
 9197SOL    HW128833   5.607   7.804   5.318  1.9774  0.4820  0.2997
 9197SOL    HW228834   5.613   7.692   5.420 -0.9794  0.8671  0.9415
 9198SOL     OW28835   2.131   7.858   1.919  0.3257  0.1294  0.2490
 9198SOL    HW128836   2.109   7.802   1.993  0.9394  0.1387  0.4393
 9198SOL    HW228837   2.188   7.805   1.864  1.6788  0.8776  0.9049
 9199SOL     OW28838   6.095   0.642   0.096 -0.4523  0.2620  0.0932
 9199SOL    HW128839   6.058   0.591   0.168 -2.0861 -0.8724 -1.4970
 9199SOL    HW228840   6.043   0.618   0.020  0.7927  1.9503 -1.3560
 9200SOL     OW28841   7.934   4.239   7.173 -0.1210  0.8793 -0.0210
 9200SOL    HW128842   7.914   4.328   7.144  0.1114  0.9495  0.0285
 9200SOL    HW228843   7.919   4.240   7.267 -0.5923  0.7312 -0.0930
 9201SOL     OW28844   4.625   7.849   7.667 -0.2757 -0.2636 -0.3095
 9201SOL    HW128845   4.695   7.785   7.652  0.3920  0.6418 -1.0523
 9201SOL    HW228846   4.643   7.920   7.606 -0.9448  0.7099  0.6038
 9202SOL     OW28847   6.373   5.530   0.198 -0.2799  0.1330  0.0804
 9202SOL    HW128848   6.358   5.485   0.115  0.6211 -0.3896  0.1974
 9202SOL    HW228849   6.426   5.469   0.249  2.4718  2.0187 -0.4096
 9203SOL     OW28850   3.316   4.588   0.808 -0.3919  0.0486 -0.3081
 9203SOL    HW128851   3.246   4.539   0.851 -2.4222  1.3513 -2.0617
 9203SOL    HW228852   3.336   4.537   0.730 -1.1068  0.9459 -1.0847
 9204SOL     OW28853   8.121   6.778   5.823  0.3600  0.5137  0.3961
 9204SOL    HW128854   8.090   6.846   5.764  0.8545  0.6829  0.3316
 9204SOL    HW228855   8.216   6.775   5.809  0.1358 -1.3909 -0.8780
 9205SOL     OW28856   0.209   7.800   4.480  0.4872 -0.1781  0.1975
 9205SOL    HW128857   0.142   7.864   4.505 -3.0168 -3.3013 -0.5979
 9205SOL    HW228858   0.227   7.752   4.561 -1.0538 -1.7307 -0.3487
 9206SOL     OW28859   1.178   5.720   1.104  0.4603 -0.5437 -0.1689
 9206SOL    HW128860   1.213   5.639   1.142  1.1173 -1.5158 -2.7618
 9206SOL    HW228861   1.251   5.781   1.106 -0.3441  0.3872  2.8064
 9207SOL     OW28862   4.046   8.164   5.073  0.2062 -0.3357  0.0719
 9207SOL    HW128863   3.951   8.164   5.089 -0.0284  1.0408 -1.1535
 9207SOL    HW228864   4.083   8.211   5.148 -0.0570 -1.0227  0.6380
 9208SOL     OW28865   0.018   6.185   6.727  0.2479  0.2688 -0.4602
 9208SOL    HW128866   0.039   6.266   6.774  0.5206  0.6700 -1.2673
 9208SOL    HW228867   0.059   6.196   6.641 -0.9108 -0.1384 -1.0728
 9209SOL     OW28868   7.876   3.655   4.079 -0.1811 -0.0891 -0.5856
 9209SOL    HW128869   7.917   3.623   3.998  2.0621 -2.1460  1.2705
 9209SOL    HW228870   7.848   3.575   4.125 -2.7574  1.1135  0.0271
 9210SOL     OW28871   1.987   7.028   4.540 -0.0247 -0.0821  0.6108
 9210SOL    HW128872   1.950   7.085   4.473  1.4208  2.3130  1.7847
 9210SOL    HW228873   1.923   6.958   4.550 -0.4998 -0.2356 -2.9053
 9211SOL     OW28874   3.290   3.929   4.627  0.2372 -0.2160  0.2383
 9211SOL    HW128875   3.379   3.934   4.661 -0.4225  1.6514  1.8338
 9211SOL    HW228876   3.269   3.836   4.628  1.5502 -0.5151  1.5468
 9212SOL     OW28877   7.708   5.923   1.514 -0.3154  0.4073  0.4521
 9212SOL    HW128878   7.693   5.868   1.591  0.0367  0.7813  0.7900
 9212SOL    HW228879   7.753   6.001   1.548  0.4009  0.2944 -0.2148
 9213SOL     OW28880   0.929   8.291   7.462  0.4501 -0.0255 -0.3092
 9213SOL    HW128881   0.977   8.374   7.466 -0.9807  0.8180 -0.3333
 9213SOL    HW228882   0.848   8.308   7.509  0.2269 -1.4802 -0.1551
 9214SOL     OW28883   7.917   5.963   5.559  0.2506 -0.4020  0.4852
 9214SOL    HW128884   7.867   5.935   5.636 -0.9571  0.4097  0.0035
 9214SOL    HW228885   7.967   6.039   5.589  0.6027 -0.7391  0.7562
 9215SOL     OW28886   2.989   8.132   7.583 -0.3565 -0.1788 -0.0317
 9215SOL    HW128887   2.985   8.040   7.559 -1.6643 -0.4724  1.2022
 9215SOL    HW228888   2.903   8.150   7.622  0.3811  1.1731  1.0214
 9216SOL     OW28889   7.166   7.111   6.399 -0.1184  0.1151 -0.6508
 9216SOL    HW128890   7.195   7.068   6.319  1.7310 -1.1026  0.6411
 9216SOL    HW228891   7.087   7.063   6.425 -0.3846  0.1366 -1.4017
 9217SOL     OW28892   1.762   0.799   0.884  0.1423 -0.2132 -0.1277
 9217SOL    HW128893   1.791   0.725   0.936  1.1735  1.3313  1.5742
 9217SOL    HW228894   1.843   0.842   0.856 -0.4428  0.4507 -0.8190
 9218SOL     OW28895   5.317   2.438   0.824  0.4463 -0.0388  0.0008
 9218SOL    HW128896   5.329   2.502   0.894  1.3583  0.3379 -0.4836
 9218SOL    HW228897   5.365   2.360   0.854  1.1172  0.2352 -0.3376
 9219SOL     OW28898   0.725   3.268   0.819 -0.1224 -0.3100  0.0337
 9219SOL    HW128899   0.707   3.283   0.912  0.8827  0.2845  0.1435
 9219SOL    HW228900   0.772   3.184   0.817 -3.3338 -2.1867 -0.3145
 9220SOL     OW28901   4.462   5.141   6.543 -0.0227  0.8615  0.1430
 9220SOL    HW128902   4.378   5.156   6.588  0.5678  2.1847  0.8185
 9220SOL    HW228903   4.466   5.046   6.532 -1.4783  0.7545  0.3617
 9221SOL     OW28904   2.824   6.481   2.993  0.3489 -0.2346 -0.2007
 9221SOL    HW128905   2.868   6.429   3.059  0.4266 -0.1782 -0.2076
 9221SOL    HW228906   2.836   6.432   2.912  1.7257  0.5298 -0.4853
 9222SOL     OW28907   0.651   6.109   7.713  0.3468 -0.0950  0.1285
 9222SOL    HW128908   0.651   6.014   7.719  0.0727 -0.0218  1.2686
 9222SOL    HW228909   0.577   6.137   7.767  0.9286  0.8155  0.4657
 9223SOL     OW28910   1.470   1.322   7.992 -0.0255 -0.0358 -0.3801
 9223SOL    HW128911   1.513   1.347   8.074  1.6533 -1.1490 -0.8904
 9223SOL    HW228912   1.386   1.368   7.994  1.6713  3.2065  0.0946
 9224SOL     OW28913   1.173   6.419   3.455 -0.2615 -0.0899 -0.5247
 9224SOL    HW128914   1.112   6.488   3.430  1.9724  1.6044 -1.4252
 9224SOL    HW228915   1.183   6.365   3.377 -1.1506 -0.8139 -0.1519
 9225SOL     OW28916   7.430   1.046   4.433 -0.5353  0.0852 -0.4701
 9225SOL    HW128917   7.504   1.018   4.380 -0.6212  0.2434 -0.6700
 9225SOL    HW228918   7.353   1.035   4.377 -0.6944 -0.3238 -0.1780
 9226SOL     OW28919   5.568   5.905   1.697 -0.0281  0.7610  0.0566
 9226SOL    HW128920   5.473   5.898   1.700  0.1341 -0.8089  1.9005
 9226SOL    HW228921   5.596   5.901   1.788  1.7445  2.3753 -0.3788
 9227SOL     OW28922   2.414   6.659   0.089 -0.0754 -0.1463  0.3971
 9227SOL    HW128923   2.411   6.739   0.142  0.2886  0.0292  0.1524
 9227SOL    HW228924   2.463   6.684   0.010 -0.1580 -0.5493  0.2173
 9228SOL     OW28925   5.701   4.253   5.780  0.8226  0.3168  0.0041
 9228SOL    HW128926   5.723   4.278   5.691  1.0804 -1.6187 -0.5024
 9228SOL    HW228927   5.638   4.319   5.809  1.9288  1.8640 -1.0239
 9229SOL     OW28928   0.501   5.433   4.029 -0.3729 -0.5710 -0.2180
 9229SOL    HW128929   0.501   5.408   4.122 -1.0510 -1.1933 -0.3904
 9229SOL    HW228930   0.416   5.475   4.016  0.2231  0.6557 -0.2551
 9230SOL     OW28931   0.672   4.781   1.484  0.1027  0.5897 -0.0076
 9230SOL    HW128932   0.601   4.738   1.531 -1.4610  2.0385 -0.9939
 9230SOL    HW228933   0.634   4.802   1.398  2.1949  0.0110 -1.1160
 9231SOL     OW28934   1.471   2.107   0.897 -0.7690  0.3711 -0.1393
 9231SOL    HW128935   1.476   2.184   0.954 -0.4804 -1.4903  2.4658
 9231SOL    HW228936   1.562   2.079   0.887 -0.9211  0.0419 -0.6019
 9232SOL     OW28937   5.313   3.948   2.410 -0.0249 -0.3008 -0.6466
 9232SOL    HW128938   5.305   3.920   2.502 -1.2617  1.5836 -0.1462
 9232SOL    HW228939   5.349   3.872   2.365 -0.8314 -1.7757  1.1289
 9233SOL     OW28940   7.922   1.371   3.129  0.3844  0.4384 -0.2708
 9233SOL    HW128941   7.974   1.328   3.061 -1.1234 -1.4110 -0.2756
 9233SOL    HW228942   7.891   1.451   3.089  1.5824  0.5821 -0.9260
 9234SOL     OW28943   4.238   8.210   8.083  0.8669  0.2334 -0.4088
 9234SOL    HW128944   4.258   8.210   7.989  2.1729  0.2973 -0.1459
 9234SOL    HW228945   4.143   8.199   8.088  0.8909 -0.6737 -1.7228
 9235SOL     OW28946   3.876   5.919   4.615 -0.0495 -0.0745  0.4032
 9235SOL    HW128947   3.832   5.834   4.620  0.1080 -0.0746  2.0815
 9235SOL    HW228948   3.806   5.983   4.632 -0.0472  0.1150 -0.2629
 9236SOL     OW28949   3.455   6.657   7.899  0.3853 -0.5072 -0.0210
 9236SOL    HW128950   3.385   6.702   7.945 -0.0993 -1.0064 -0.2596
 9236SOL    HW228951   3.533   6.672   7.952  0.3473  1.0766 -0.3874
 9237SOL     OW28952   4.792   2.919   3.518 -0.7688  0.1861 -0.4042
 9237SOL    HW128953   4.749   2.867   3.450 -0.7101  1.4464 -1.4240
 9237SOL    HW228954   4.789   3.009   3.485  0.9595  0.5552  0.3861
 9238SOL     OW28955   3.020   2.582   1.288  0.7789  0.1276 -0.3718
 9238SOL    HW128956   3.113   2.563   1.300  0.9103  0.9621  0.0176
 9238SOL    HW228957   3.012   2.676   1.308 -0.0528  0.1821 -0.9097
 9239SOL     OW28958   7.667   4.129   7.037 -0.1960  0.4923 -0.2458
 9239SOL    HW128959   7.729   4.075   7.086  0.1814 -0.4598 -1.7270
 9239SOL    HW228960   7.716   4.207   7.014  0.7880 -0.6830 -2.2457
 9240SOL     OW28961   6.106   3.353   2.087  0.6498  0.0050  0.3643
 9240SOL    HW128962   6.201   3.345   2.096  0.6444  0.6992  1.1216
 9240SOL    HW228963   6.076   3.378   2.174 -0.1253  0.7357 -0.0997
 9241SOL     OW28964   1.168   3.024   5.522  0.2147  0.3428 -0.5932
 9241SOL    HW128965   1.191   3.014   5.430 -0.7561  1.6968 -0.9911
 9241SOL    HW228966   1.113   2.948   5.541  0.9334 -0.2737 -0.9618
 9242SOL     OW28967   5.197   2.418   6.357 -0.2010  0.3853 -0.1382
 9242SOL    HW128968   5.134   2.465   6.303 -0.2027 -1.7541 -2.0520
 9242SOL    HW228969   5.144   2.375   6.424 -0.3761  1.6857  0.5581
 9243SOL     OW28970   2.392   2.117   2.604  0.1618  0.0982 -0.3822
 9243SOL    HW128971   2.309   2.139   2.646 -0.1132 -1.1454 -0.2598
 9243SOL    HW228972   2.455   2.113   2.676  0.1257  0.0654 -0.3526
 9244SOL     OW28973   0.781   2.461   3.315 -0.5048 -0.1208 -0.0997
 9244SOL    HW128974   0.701   2.507   3.341 -0.8979 -0.3104 -0.9654
 9244SOL    HW228975   0.850   2.527   3.321 -0.9000  0.3182 -0.3811
 9245SOL     OW28976   6.612   1.765   6.617 -0.3004 -0.1094  0.1934
 9245SOL    HW128977   6.614   1.712   6.537 -2.5045  1.9922 -1.3340
 9245SOL    HW228978   6.535   1.733   6.664  0.1753 -0.3908  0.7699
 9246SOL     OW28979   1.963   4.123   1.102 -0.1134  0.1760  0.5017
 9246SOL    HW128980   1.950   4.138   1.196 -1.1533 -0.2991  0.4411
 9246SOL    HW228981   1.895   4.175   1.060  1.8312  2.3099 -0.1247
 9247SOL     OW28982   5.279   7.928   5.703 -0.1480 -0.4126 -0.2593
 9247SOL    HW128983   5.372   7.953   5.695  0.0128 -0.7366  0.5541
 9247SOL    HW228984   5.231   8.007   5.679  0.3419 -0.0407 -0.0146
 9248SOL     OW28985   3.761   5.656   4.611 -0.3416 -0.3211 -0.1463
 9248SOL    HW128986   3.693   5.671   4.676  0.4188  0.6754  0.4316
 9248SOL    HW228987   3.841   5.643   4.662  0.4505  1.4622 -0.8679
 9249SOL     OW28988   7.305   5.061   3.147 -0.4009  0.2750  0.0175
 9249SOL    HW128989   7.366   5.031   3.079  0.5476 -1.1445  1.4359
 9249SOL    HW228990   7.348   5.137   3.186 -0.6977  0.7688 -0.6119
 9250SOL     OW28991   7.987   5.374   3.488  0.5142 -0.0984 -0.0919
 9250SOL    HW128992   7.912   5.406   3.436 -0.9618 -1.0727  1.3923
 9250SOL    HW228993   8.002   5.444   3.552 -0.3006 -0.7027  0.7645
 9251SOL     OW28994   1.591   2.653   1.429  0.2569  0.1578 -0.2090
 9251SOL    HW128995   1.658   2.713   1.461  0.0433  0.8212 -0.9820
 9251SOL    HW228996   1.518   2.666   1.489 -0.6855  2.4733 -1.7510
 9252SOL     OW28997   8.255   6.325   1.473 -0.3464 -0.8229 -0.1470
 9252SOL    HW128998   8.302   6.296   1.395 -0.9665  0.0549 -0.8588
 9252SOL    HW228999   8.309   6.296   1.546  1.3652  0.2848 -0.9360
 9253SOL     OW29000   8.198   0.029   0.149  0.2354  0.5416 -0.3123
 9253SOL    HW129001   8.262  -0.009   0.090 -0.5414 -0.1370 -0.7289
 9253SOL    HW229002   8.248   0.055   0.226  0.8740 -0.7986 -0.2636
 9254SOL     OW29003   4.174   5.087   7.018 -0.0099 -0.1092 -0.0108
 9254SOL    HW129004   4.261   5.099   6.980  0.1008 -0.0403  0.2651
 9254SOL    HW229005   4.189   5.040   7.099 -0.3446 -1.2116 -0.5784
 9255SOL     OW29006   3.075   7.887   4.979 -0.2338  0.0050 -0.1213
 9255SOL    HW129007   2.988   7.863   5.011 -0.5659 -0.8890 -1.6305
 9255SOL    HW229008   3.063   7.972   4.937  0.1729  1.1102  1.9497
 9256SOL     OW29009   0.474   0.902   4.302  0.0062  0.2400  0.9922
 9256SOL    HW129010   0.383   0.896   4.272  0.0001  1.2433  0.8099
 9256SOL    HW229011   0.467   0.899   4.398  0.0229 -2.8661  0.9500
 9257SOL     OW29012   0.081   5.835   3.931  0.0777  0.0860 -0.5108
 9257SOL    HW129013   0.049   5.755   3.888  0.1452 -1.7794  2.7512
 9257SOL    HW229014   0.176   5.826   3.928  0.0763 -0.4562  0.6764
 9258SOL     OW29015   7.999   3.298   0.308  1.2386 -0.3639  0.0077
 9258SOL    HW129016   7.954   3.366   0.358  3.5017  0.9626  0.3000
 9258SOL    HW229017   7.957   3.217   0.336 -0.1690  0.7103  1.1345
 9259SOL     OW29018   7.365   3.749   0.594  0.1463  0.1909 -0.0443
 9259SOL    HW129019   7.405   3.829   0.628 -1.3629  1.6245 -1.5717
 9259SOL    HW229020   7.306   3.779   0.525 -1.0402 -2.1781 -0.1035
 9260SOL     OW29021   3.240   2.915   7.874 -0.1948  0.0202  0.0435
 9260SOL    HW129022   3.222   3.009   7.869  1.5356  0.3982  0.5401
 9260SOL    HW229023   3.256   2.888   7.784  1.0133  0.5669  0.0880
 9261SOL     OW29024   4.011   1.320   3.025  0.0414 -0.0490  0.2709
 9261SOL    HW129025   3.928   1.283   2.994  0.7150 -1.8689  0.5903
 9261SOL    HW229026   4.075   1.293   2.959  0.7949 -0.6846  1.2400
 9262SOL     OW29027   2.075   1.721   5.347  0.2716 -0.5131 -0.1838
 9262SOL    HW129028   2.153   1.744   5.397 -1.2431  1.3032  1.4371
 9262SOL    HW229029   2.057   1.798   5.294 -0.5678 -0.8205 -0.3516
 9263SOL     OW29030   7.753   1.812   5.181  0.3026 -0.0084 -0.3312
 9263SOL    HW129031   7.824   1.787   5.123 -0.3019 -3.1852  0.2114
 9263SOL    HW229032   7.675   1.816   5.125 -0.0327 -1.7500 -0.0145
 9264SOL     OW29033   4.504   1.412   0.674  0.4819 -0.2379  0.0252
 9264SOL    HW129034   4.497   1.504   0.647  0.3887  0.1910  1.4516
 9264SOL    HW229035   4.490   1.414   0.769 -1.0183 -1.9037 -0.1343
 9265SOL     OW29036   4.559   4.653   5.847 -0.2882  0.0461 -0.3792
 9265SOL    HW129037   4.601   4.647   5.761  0.3600  0.3355 -0.0846
 9265SOL    HW229038   4.466   4.662   5.827  0.0418  2.1811 -1.1167
 9266SOL     OW29039   4.295   5.488   2.150  0.3811 -1.1034 -0.4913
 9266SOL    HW129040   4.382   5.496   2.110  0.5255 -1.1673 -0.1976
 9266SOL    HW229041   4.291   5.397   2.180  1.0019 -0.5760  1.2639
 9267SOL     OW29042   6.009   3.364   0.549  0.0226  0.0005 -0.4910
 9267SOL    HW129043   6.079   3.392   0.607  0.3168  0.2669 -0.9661
 9267SOL    HW229044   5.973   3.285   0.589  2.6637 -1.9659 -1.8447
 9268SOL     OW29045   4.526   2.168   7.299 -0.0408 -0.0734  0.5188
 9268SOL    HW129046   4.604   2.126   7.334  0.3930 -0.0896 -0.4508
 9268SOL    HW229047   4.527   2.146   7.206 -0.7258  0.6656  0.3356
 9269SOL     OW29048   2.708   1.166   5.962 -0.8469  0.1353  1.1583
 9269SOL    HW129049   2.720   1.108   6.038 -2.6884 -1.5472  0.2184
 9269SOL    HW229050   2.644   1.231   5.991  0.3106  0.9882  1.8278
 9270SOL     OW29051   3.360   5.596   4.906  0.2109 -0.9522 -0.3958
 9270SOL    HW129052   3.384   5.526   4.845  2.2201 -0.1464 -0.5822
 9270SOL    HW229053   3.266   5.587   4.918  0.2278 -2.8018 -1.5235
 9271SOL     OW29054   5.166   3.728   6.619  1.0088  0.0416  0.0741
 9271SOL    HW129055   5.081   3.772   6.615  0.9148 -0.1902 -0.5022
 9271SOL    HW229056   5.229   3.799   6.632  0.9959  0.5163 -2.1709
 9272SOL     OW29057   2.327   7.739   7.421  0.4185  0.0671  0.1071
 9272SOL    HW129058   2.305   7.831   7.436 -0.9377 -0.2029 -0.2307
 9272SOL    HW229059   2.251   7.690   7.452  0.6932 -0.8932 -0.7257
 9273SOL     OW29060   1.351   4.701   2.382  0.5272 -0.2861  0.9488
 9273SOL    HW129061   1.342   4.743   2.296 -0.0407 -0.8269  0.7321
 9273SOL    HW229062   1.290   4.627   2.378  1.0155 -0.7253  1.5649
 9274SOL     OW29063   7.692   0.845   4.534  0.4031 -0.5045  0.1861
 9274SOL    HW129064   7.680   0.855   4.439 -1.3254  0.1500  0.4484
 9274SOL    HW229065   7.615   0.794   4.561 -1.5886  3.2480  1.9133
 9275SOL     OW29066   3.151   0.604   5.961  0.0196 -0.2792  0.3506
 9275SOL    HW129067   3.059   0.582   5.975  0.2259 -1.2800  0.1802
 9275SOL    HW229068   3.172   0.668   6.030 -0.8656  0.1391  0.2299
 9276SOL     OW29069   5.009   7.489   3.074 -0.0670  0.5666  0.4665
 9276SOL    HW129070   5.030   7.536   3.154  1.0802 -2.1715  1.8434
 9276SOL    HW229071   4.947   7.421   3.101 -0.5775  0.3353 -1.1842
 9277SOL     OW29072   2.460   1.441   1.776  0.1656 -0.8267  0.4709
 9277SOL    HW129073   2.377   1.413   1.739 -0.2713  0.2440  0.6110
 9277SOL    HW229074   2.438   1.518   1.829  1.0759 -1.2064  1.4172
 9278SOL     OW29075   7.973   5.588   4.627 -0.3319 -0.2074  0.4001
 9278SOL    HW129076   8.053   5.629   4.659 -0.3617  1.0322 -1.0759
 9278SOL    HW229077   8.002   5.511   4.579  0.0083  0.4903 -0.5166
 9279SOL     OW29078   3.734   1.114   2.348 -0.0356 -0.1598  0.5583
 9279SOL    HW129079   3.686   1.150   2.423 -0.9867 -2.3591  1.0731
 9279SOL    HW229080   3.724   1.019   2.358  0.2721 -0.4957 -2.0717
 9280SOL     OW29081   1.144   3.887   3.614  0.3682  0.1017 -0.6756
 9280SOL    HW129082   1.058   3.855   3.585 -0.5271 -0.1202  2.0437
 9280SOL    HW229083   1.200   3.878   3.537 -0.9941 -3.7245 -1.3085
 9281SOL     OW29084   2.266   0.132   8.172 -0.9893  0.0193  0.4953
 9281SOL    HW129085   2.195   0.072   8.148 -0.9009  0.5423 -1.0985
 9281SOL    HW229086   2.346   0.082   8.157 -0.9312  0.3769 -0.4202
 9282SOL     OW29087   5.424   4.689   5.116 -0.0808 -0.1338 -0.3228
 9282SOL    HW129088   5.355   4.625   5.133 -0.3629 -0.4224 -2.4406
 9282SOL    HW229089   5.379   4.762   5.074  0.5214  0.7417  0.5256
 9283SOL     OW29090   0.371   7.943   7.424 -0.4327  0.0125 -0.3031
 9283SOL    HW129091   0.355   7.849   7.431 -1.2246  0.1507 -0.2523
 9283SOL    HW229092   0.466   7.951   7.433 -0.0997 -0.9916 -2.4931
 9284SOL     OW29093   2.039   6.785   4.888  0.4992 -0.5044  0.3670
 9284SOL    HW129094   2.028   6.880   4.893  1.8004 -0.3001 -0.4849
 9284SOL    HW229095   2.003   6.762   4.802  0.5019 -0.7434  0.4309
 9285SOL     OW29096   7.328   4.811   6.700 -0.1964  0.0632 -0.4791
 9285SOL    HW129097   7.390   4.807   6.772 -1.4129 -0.6716  0.5627
 9285SOL    HW229098   7.331   4.724   6.660 -2.4982 -0.9229  1.3104
 9286SOL     OW29099   1.557   0.015   4.679 -0.0077  0.6819  0.4604
 9286SOL    HW129100   1.610   0.057   4.611  0.3593  0.4059  0.5746
 9286SOL    HW229101   1.540   0.085   4.743  0.4109  0.7118  0.5380
 9287SOL     OW29102   8.291   7.938   5.455 -0.9244 -0.1427  0.1818
 9287SOL    HW129103   8.362   7.992   5.489 -0.2429 -1.0658  0.2712
 9287SOL    HW229104   8.237   7.918   5.532 -0.6153 -0.4094  0.3332
 9288SOL     OW29105   7.239   3.914   5.977 -0.2333 -0.0539  0.3067
 9288SOL    HW129106   7.282   3.830   5.992  0.0068  0.0281  0.0880
 9288SOL    HW229107   7.307   3.968   5.936 -0.2022  0.4361  1.0033
 9289SOL     OW29108   0.756   1.724   7.793  0.0172 -0.4014 -0.4534
 9289SOL    HW129109   0.788   1.751   7.706 -2.1277  2.5075 -0.4321
 9289SOL    HW229110   0.751   1.806   7.842 -0.0491 -1.8611  2.0126
 9290SOL     OW29111   6.705   3.746   5.488  0.2064 -0.0333  0.0672
 9290SOL    HW129112   6.768   3.738   5.561  1.3032  0.1332 -0.8466
 9290SOL    HW229113   6.726   3.831   5.448 -0.8888  0.2162  0.0046
 9291SOL     OW29114   3.893   1.001   1.889 -0.2225 -0.2119 -0.0860
 9291SOL    HW129115   3.878   1.092   1.863  0.7691  0.0941  0.3826
 9291SOL    HW229116   3.939   0.962   1.814  0.3822 -0.0108  0.1764
 9292SOL     OW29117   3.504   2.422   2.201 -0.3133 -0.6514 -0.3307
 9292SOL    HW129118   3.506   2.508   2.158  2.4973 -0.0572  0.8569
 9292SOL    HW229119   3.540   2.362   2.135  1.0801 -0.2782  0.0779
 9293SOL     OW29120   6.529   3.358   5.148  0.0344  0.3960 -0.0423
 9293SOL    HW129121   6.549   3.433   5.204 -0.5093  0.4280  0.1064
 9293SOL    HW229122   6.611   3.309   5.144  0.2276  0.6860  0.3362
 9294SOL     OW29123   2.386   2.596   5.908 -0.4732 -0.0084  0.0113
 9294SOL    HW129124   2.409   2.511   5.872 -0.5134  0.6400 -1.6177
 9294SOL    HW229125   2.454   2.615   5.972 -0.1267 -0.9974 -0.0635
 9295SOL     OW29126   7.588   5.124   0.059 -0.0653  0.4333  0.0428
 9295SOL    HW129127   7.631   5.046   0.095  2.7003  1.4151 -1.0017
 9295SOL    HW229128   7.638   5.197   0.094 -0.1671  1.5744 -2.0941
 9296SOL     OW29129   2.288   7.863   1.040  0.4801  0.2874  0.5780
 9296SOL    HW129130   2.230   7.939   1.031 -0.1024 -0.0305  1.5556
 9296SOL    HW229131   2.231   7.793   1.071  1.1624 -0.3487  0.4060
 9297SOL     OW29132   5.189   1.676   3.574 -0.5387  0.0313  0.3201
 9297SOL    HW129133   5.224   1.589   3.554 -0.1604  0.0920  0.7079
 9297SOL    HW229134   5.224   1.732   3.505 -0.3920 -0.0326  0.3423
 9298SOL     OW29135   0.477   5.768   4.823  0.0899 -0.5082  0.6694
 9298SOL    HW129136   0.430   5.713   4.760  0.6139  0.4959 -0.6251
 9298SOL    HW229137   0.561   5.725   4.834  1.0786  0.7598 -1.4804
 9299SOL     OW29138   1.769   5.302   7.799  0.0306  0.3138 -0.0800
 9299SOL    HW129139   1.831   5.261   7.860  0.6324 -0.6892 -1.3531
 9299SOL    HW229140   1.683   5.279   7.834  0.3641  0.6868  1.0119
 9300SOL     OW29141   7.125   1.954   6.769 -0.3710  0.9617 -0.5578
 9300SOL    HW129142   7.063   1.977   6.839  1.2928 -1.0969  1.6873
 9300SOL    HW229143   7.070   1.922   6.698 -1.9227 -1.3165  1.5853
 9301SOL     OW29144   1.737   7.466   5.811  0.2023 -0.2250  0.0735
 9301SOL    HW129145   1.727   7.541   5.752 -1.3188  0.9030  1.6947
 9301SOL    HW229146   1.819   7.483   5.858 -0.1363  0.4398  0.4321
 9302SOL     OW29147   4.907   6.033   5.403 -0.0709 -0.2676 -0.5289
 9302SOL    HW129148   4.884   5.978   5.328 -0.4660 -1.2630  0.3138
 9302SOL    HW229149   4.823   6.051   5.447  0.5276 -2.7159  1.7326
 9303SOL     OW29150   5.120   6.652   4.102 -0.4627  0.7703 -0.1617
 9303SOL    HW129151   5.139   6.576   4.048 -0.4887 -0.3688  1.3961
 9303SOL    HW229152   5.026   6.666   4.092 -0.4086  0.7569 -0.6688
 9304SOL     OW29153   2.453   1.839   3.568 -0.0001 -0.0629 -0.1116
 9304SOL    HW129154   2.477   1.867   3.480  1.3410 -1.1352 -0.0965
 9304SOL    HW229155   2.365   1.875   3.582  1.0005  2.7391 -0.7071
 9305SOL     OW29156   2.807   4.233   4.157  0.6721  0.0993 -0.2739
 9305SOL    HW129157   2.873   4.299   4.177 -1.9040  2.0448  2.3017
 9305SOL    HW229158   2.836   4.155   4.205  1.0694  0.9503  0.9026
 9306SOL     OW29159   1.241   0.906   8.109  0.0686 -0.4034 -0.8789
 9306SOL    HW129160   1.152   0.894   8.074  0.0633 -2.0750 -0.3105
 9306SOL    HW229161   1.232   0.887   8.203  0.7827  0.6777 -0.5860
 9307SOL     OW29162   5.082   5.261   5.373  0.2883  0.4864 -0.0285
 9307SOL    HW129163   4.994   5.278   5.406 -0.4092 -0.8330 -1.1370
 9307SOL    HW229164   5.074   5.179   5.324  1.9206  0.8354 -0.9399
 9308SOL     OW29165   7.961   4.639   0.201  0.1896 -0.7229 -0.9143
 9308SOL    HW129166   8.013   4.664   0.277  0.1662 -0.9083 -0.8368
 9308SOL    HW229167   8.004   4.682   0.127  0.4650 -0.8974 -0.8554
 9309SOL     OW29168   0.641   1.408   5.344  0.4397 -0.3941  0.1592
 9309SOL    HW129169   0.664   1.335   5.286 -0.3139  0.0009 -0.6427
 9309SOL    HW229170   0.566   1.376   5.393 -1.6522  0.8061 -2.1511
 9310SOL     OW29171   8.128   2.807   3.875  0.0898 -0.4439 -0.2928
 9310SOL    HW129172   8.037   2.794   3.847 -1.9572  1.1242  5.0810
 9310SOL    HW229173   8.152   2.892   3.837 -1.7448  0.5403  0.7169
 9311SOL     OW29174   5.167   6.039   4.851  0.3818 -0.5840 -0.0696
 9311SOL    HW129175   5.253   6.081   4.854  0.0603 -0.0098  1.9567
 9311SOL    HW229176   5.105   6.112   4.859 -0.2571 -1.1483  0.1421
 9312SOL     OW29177   3.425   2.010   2.193  1.0931 -0.5222 -0.0188
 9312SOL    HW129178   3.477   2.015   2.113  0.2431  1.5495 -0.4888
 9312SOL    HW229179   3.486   2.034   2.263  0.8956  1.6815 -0.5433
 9313SOL     OW29180   5.104   1.649   4.345 -0.2056 -0.2412  0.0388
 9313SOL    HW129181   5.063   1.699   4.275  0.8849  1.0822  0.3225
 9313SOL    HW229182   5.097   1.705   4.422  1.2904 -0.3731  0.3016
 9314SOL     OW29183   0.446   2.349   7.741 -0.3116  0.2549 -0.1372
 9314SOL    HW129184   0.392   2.388   7.672  0.8147  1.8673 -0.1307
 9314SOL    HW229185   0.531   2.391   7.732  0.6760 -1.5263  0.4967
 9315SOL     OW29186   7.557   0.096   2.719 -0.0271  0.6708 -0.2057
 9315SOL    HW129187   7.502   0.018   2.723 -1.5268  1.7632  2.4013
 9315SOL    HW229188   7.615   0.089   2.794  1.0087  1.2408 -0.9394
 9316SOL     OW29189   5.018   0.888   3.580  0.3654  0.4572 -0.1922
 9316SOL    HW129190   5.093   0.895   3.521 -0.0050  1.4349 -0.5462
 9316SOL    HW229191   5.055   0.855   3.662  1.4841  2.6463  0.2179
 9317SOL     OW29192   2.993   7.244   6.122  0.3209 -0.1401  0.4514
 9317SOL    HW129193   2.914   7.240   6.176  0.4442  1.9629  0.7998
 9317SOL    HW229194   2.973   7.309   6.055  1.9072  0.6909  0.7711
 9318SOL     OW29195   3.946   6.599   6.753 -0.9876 -0.0721  0.1765
 9318SOL    HW129196   3.963   6.598   6.659  2.4773 -0.1077  0.7420
 9318SOL    HW229197   3.968   6.688   6.781 -1.4843 -0.2107  1.0494
 9319SOL     OW29198   4.891   4.922   6.852  0.2571 -0.3329  0.0385
 9319SOL    HW129199   4.827   4.972   6.802 -0.0752 -1.0500 -0.2702
 9319SOL    HW229200   4.909   4.975   6.929  0.0288  0.3267 -0.3590
 9320SOL     OW29201   1.249   7.972   7.095  0.3818 -0.2654 -0.2236
 9320SOL    HW129202   1.293   7.893   7.062  2.9576  1.4999 -1.1943
 9320SOL    HW229203   1.316   8.041   7.089 -2.1139  2.2211 -0.3770
 9321SOL     OW29204   8.052   4.347   2.703  0.0621 -0.2124  0.1356
 9321SOL    HW129205   8.097   4.293   2.767  0.7966  0.0547 -0.1557
 9321SOL    HW229206   7.970   4.372   2.746  0.4805 -0.1596  0.9071
 9322SOL     OW29207   1.724   7.097   4.162 -0.0758  0.0231 -0.2150
 9322SOL    HW129208   1.791   7.120   4.097 -1.2258  2.1607 -0.6802
 9322SOL    HW229209   1.669   7.033   4.118 -1.4549  2.2160 -1.7786
 9323SOL     OW29210   4.858   4.357   5.244  0.0155 -0.5057  0.2483
 9323SOL    HW129211   4.905   4.313   5.173 -0.3336 -0.9888  0.3138
 9323SOL    HW229212   4.916   4.349   5.320  0.0747 -0.6079  0.1918
 9324SOL     OW29213   4.149   7.191   2.984 -0.4526 -0.2733  0.6666
 9324SOL    HW129214   4.209   7.181   3.059  1.7390  1.0057 -0.8558
 9324SOL    HW229215   4.178   7.125   2.921  0.0989  1.1136 -0.5465
 9325SOL     OW29216   0.453   5.664   2.656 -0.4881 -0.3767  0.1782
 9325SOL    HW129217   0.358   5.661   2.670 -0.2906 -0.6683  1.6047
 9325SOL    HW229218   0.472   5.587   2.604 -0.8335 -1.2541  1.3212
 9326SOL     OW29219   1.163   2.057   3.801  0.2538  0.5298 -0.4522
 9326SOL    HW129220   1.153   2.104   3.719 -2.0727  0.9592  0.0639
 9326SOL    HW229221   1.102   2.099   3.862  1.8687  0.1713  1.4932
 9327SOL     OW29222   8.202   0.325   1.662 -0.4669  0.0696 -0.4860
 9327SOL    HW129223   8.186   0.235   1.635 -0.4910  0.3382 -1.3720
 9327SOL    HW229224   8.116   0.366   1.662 -0.2261  0.5732 -1.8305
 9328SOL     OW29225   5.744   5.857   5.407 -0.0136  0.0115  0.2984
 9328SOL    HW129226   5.753   5.800   5.330  1.4362 -0.7813  1.0478
 9328SOL    HW229227   5.706   5.801   5.474  1.4733 -0.0909  1.0561
 9329SOL     OW29228   2.891   6.243   1.182 -0.4230  0.9018  0.0636
 9329SOL    HW129229   2.809   6.289   1.165 -0.8410 -0.6468 -2.3335
 9329SOL    HW229230   2.864   6.153   1.201  0.7622  0.0228 -2.2034
 9330SOL     OW29231   6.895   5.637   2.378 -0.2708 -0.5562 -0.2849
 9330SOL    HW129232   6.919   5.546   2.392  0.4571 -0.0581  1.9572
 9330SOL    HW229233   6.804   5.634   2.348 -0.8661 -1.9504  1.5834
 9331SOL     OW29234   6.496   3.842   0.099 -0.1725  0.5369 -0.2212
 9331SOL    HW129235   6.539   3.921   0.066  0.9581  0.4884  1.0916
 9331SOL    HW229236   6.445   3.871   0.174  0.9122 -0.1025  0.7818
 9332SOL     OW29237   5.575   2.955   2.459 -0.2346  0.6666  0.3561
 9332SOL    HW129238   5.524   3.020   2.411 -0.7745  2.7967  3.6758
 9332SOL    HW229239   5.510   2.906   2.509  0.4466 -0.6867 -0.0479
 9333SOL     OW29240   3.094   3.400   7.876  0.2709 -0.1777 -0.3171
 9333SOL    HW129241   3.068   3.312   7.903  0.1576 -0.5247 -1.5253
 9333SOL    HW229242   3.066   3.406   7.785 -1.2151  1.7187  0.2366
 9334SOL     OW29243   6.256   3.548   4.569  0.1474 -0.2589  0.6836
 9334SOL    HW129244   6.339   3.500   4.573 -0.7290 -1.8867 -0.0693
 9334SOL    HW229245   6.281   3.637   4.546  1.6884 -0.7583  0.3667
 9335SOL     OW29246   4.952   7.321   2.704  0.6602  0.0134 -0.5696
 9335SOL    HW129247   4.952   7.416   2.717  2.5144  0.1773 -1.5456
 9335SOL    HW229248   4.890   7.288   2.768 -0.5528  1.9583 -0.7048
 9336SOL     OW29249   8.086   0.874   5.664  0.5607 -0.7108 -0.2042
 9336SOL    HW129250   8.157   0.810   5.668 -0.3463 -1.7611 -0.7437
 9336SOL    HW229251   8.113   0.934   5.595  1.1792 -0.7897 -0.0382
 9337SOL     OW29252   5.061   4.065   0.795  0.5139 -0.1098  0.2906
 9337SOL    HW129253   5.006   4.028   0.864  1.4751  1.3083  1.8571
 9337SOL    HW229254   5.023   4.151   0.777  2.1119  0.8162  1.2798
 9338SOL     OW29255   1.596   7.480   6.380  0.0127  0.0010  0.8715
 9338SOL    HW129256   1.662   7.499   6.447  0.5659 -0.9349  0.6007
 9338SOL    HW229257   1.602   7.386   6.367  0.6232  0.3171 -1.2555
 9339SOL     OW29258   7.368   7.939   5.223 -0.1854 -0.0704 -0.2174
 9339SOL    HW129259   7.422   7.892   5.287 -2.0355 -1.3971  0.3949
 9339SOL    HW229260   7.370   8.030   5.254  0.9409 -0.2584  0.3114
 9340SOL     OW29261   5.491   2.353   6.940 -0.4372  0.0611 -0.2142
 9340SOL    HW129262   5.568   2.396   6.978 -0.7751 -1.1055  1.8888
 9340SOL    HW229263   5.527   2.277   6.893 -0.2067  0.1847 -0.2392
 9341SOL     OW29264   3.799   4.123   5.943 -0.2144  0.4555  0.6349
 9341SOL    HW129265   3.891   4.097   5.951  0.2687  0.9983 -2.7732
 9341SOL    HW229266   3.769   4.083   5.862 -2.2331  2.4668  0.3389
 9342SOL     OW29267   0.840   3.215   2.035 -0.1347 -0.0827  0.0229
 9342SOL    HW129268   0.779   3.230   2.108 -0.6530 -0.8850 -0.2289
 9342SOL    HW229269   0.789   3.238   1.957  1.6403  4.5275  0.0706
 9343SOL     OW29270   4.055   7.405   1.541  0.4814  0.2699  0.4332
 9343SOL    HW129271   4.092   7.335   1.596  0.7444  0.2961  0.2903
 9343SOL    HW229272   3.963   7.410   1.567  0.4258 -0.2320  0.3445
 9344SOL     OW29273   3.678   7.949   1.367  0.4334  0.4572  0.1690
 9344SOL    HW129274   3.744   7.992   1.422 -1.5460  3.7468  0.1166
 9344SOL    HW229275   3.632   8.021   1.325 -1.3918 -1.8655 -1.9578
 9345SOL     OW29276   7.478   3.897   0.292  0.0757  0.4061 -0.0256
 9345SOL    HW129277   7.502   3.864   0.379  1.2918  2.5481  0.4762
 9345SOL    HW229278   7.531   3.844   0.232  1.3062  0.7827  0.7101
 9346SOL     OW29279   1.744   7.384   7.710  0.0133 -0.5763  0.1115
 9346SOL    HW129280   1.748   7.298   7.668 -0.5721  0.7361 -2.7146
 9346SOL    HW229281   1.653   7.393   7.736 -0.0868 -0.5148 -0.2526
 9347SOL     OW29282   5.807   7.581   2.937 -0.0056 -0.6690 -0.7567
 9347SOL    HW129283   5.788   7.594   3.029  2.6238 -1.6905 -0.0180
 9347SOL    HW229284   5.736   7.525   2.905 -0.8993 -0.3583  0.6308
 9348SOL     OW29285   0.026   3.790   1.329 -0.4882  0.4447  0.2097
 9348SOL    HW129286   0.013   3.789   1.424  0.9606  0.8231  0.4304
 9348SOL    HW229287   0.113   3.753   1.316 -0.6199  0.5174 -0.9661
 9349SOL     OW29288   1.440   4.039   2.050  0.0959  0.1420 -0.2887
 9349SOL    HW129289   1.433   3.953   2.010  0.8433  0.2539 -0.6680
 9349SOL    HW229290   1.533   4.047   2.074  0.3798  1.5074 -1.7638
 9350SOL     OW29291   6.687   5.603   0.072  0.0539 -0.5046  1.2286
 9350SOL    HW129292   6.748   5.565   0.135  2.8156 -1.0708 -1.6600
 9350SOL    HW229293   6.656   5.528   0.021 -1.5999  0.0332  1.4125
 9351SOL     OW29294   2.591   7.451   7.969  0.6558  1.0096  0.0320
 9351SOL    HW129295   2.679   7.489   7.972  0.8756  0.5236 -0.3126
 9351SOL    HW229296   2.603   7.366   7.927  0.1214  0.6715  0.5590
 9352SOL     OW29297   3.202   6.093   1.216 -0.5627 -0.2295  0.4350
 9352SOL    HW129298   3.184   5.999   1.205  0.5512 -0.2477 -1.7374
 9352SOL    HW229299   3.277   6.109   1.157 -1.2442  2.1761  0.1732
 9353SOL     OW29300   3.507   0.699   5.992 -0.6418 -0.5231 -0.3134
 9353SOL    HW129301   3.579   0.635   5.996 -2.5760 -2.7496  0.1764
 9353SOL    HW229302   3.538   0.773   6.044  1.0878 -1.7010  0.3905
 9354SOL     OW29303   4.248   1.877   8.109 -0.4145  0.4561  0.1668
 9354SOL    HW129304   4.267   1.906   8.020  0.1014  0.6896  0.3500
 9354SOL    HW229305   4.325   1.904   8.160 -0.1291 -0.8113  0.4363
 9355SOL     OW29306   5.041   2.249   0.328 -0.2738 -0.6941 -0.4245
 9355SOL    HW129307   5.093   2.187   0.379  0.1780  0.2306  0.2491
 9355SOL    HW229308   4.988   2.194   0.270 -1.1763 -1.7899  1.4013
 9356SOL     OW29309   7.115   2.066   5.270  0.2647 -0.6884  0.2389
 9356SOL    HW129310   7.091   2.069   5.362 -2.4170 -0.3773 -0.3950
 9356SOL    HW229311   7.151   2.153   5.251  1.1499 -0.8739  1.0584
 9357SOL     OW29312   2.809   2.520   3.930 -0.4964 -0.4527  0.0504
 9357SOL    HW129313   2.745   2.578   3.890 -0.7259 -0.6069  0.1919
 9357SOL    HW229314   2.800   2.437   3.882  1.3564  0.2710 -1.6397
 9358SOL     OW29315   1.701   4.117   1.510 -0.8069 -0.4925  0.0383
 9358SOL    HW129316   1.614   4.078   1.497 -0.1651 -1.8433 -0.3333
 9358SOL    HW229317   1.732   4.137   1.422 -0.2263 -1.1754  0.0872
 9359SOL     OW29318   2.888   1.469   4.020 -0.1909  0.4683 -0.1606
 9359SOL    HW129319   2.892   1.472   3.924  1.3822  1.9940 -0.0645
 9359SOL    HW229320   2.878   1.561   4.047  0.5794  0.1728  1.1788
 9360SOL     OW29321   6.777   2.271   6.470 -0.5556 -0.1731 -0.0400
 9360SOL    HW129322   6.774   2.242   6.379  0.5853 -0.9624  0.1699
 9360SOL    HW229323   6.865   2.307   6.481 -0.4099 -0.8299  0.9779
 9361SOL     OW29324   2.366   7.346   1.841 -0.3968  0.0810  0.5374
 9361SOL    HW129325   2.313   7.287   1.787 -1.0309  1.5788 -0.4943
 9361SOL    HW229326   2.413   7.401   1.778  1.5467 -0.4597  1.4495
 9362SOL     OW29327   3.205   0.780   5.479 -0.5886  0.5129 -0.3710
 9362SOL    HW129328   3.293   0.754   5.505 -1.6901 -3.3237 -0.1964
 9362SOL    HW229329   3.153   0.774   5.559 -1.4773  0.5771 -0.9306
 9363SOL     OW29330   4.390   3.480   5.034  0.5086  0.2047  1.1136
 9363SOL    HW129331   4.470   3.443   4.997  1.2882  1.6208  1.3603
 9363SOL    HW229332   4.414   3.506   5.123  0.0181  1.4426  0.8841
 9364SOL     OW29333   1.938   0.856   8.163 -0.4735  0.1155 -0.0285
 9364SOL    HW129334   1.935   0.782   8.223 -2.6945 -0.0324 -0.2670
 9364SOL    HW229335   1.846   0.871   8.139  0.3053  0.5828 -2.8824
 9365SOL     OW29336   3.519   6.375   6.128  0.4689 -0.0749 -0.4352
 9365SOL    HW129337   3.513   6.404   6.037 -1.2685  0.5573 -0.1462
 9365SOL    HW229338   3.592   6.426   6.165  1.4033 -0.5861 -1.5519
 9366SOL     OW29339   1.605   8.164   0.758  0.2711  0.1948  0.1971
 9366SOL    HW129340   1.631   8.108   0.685 -2.3159 -1.0657  0.1728
 9366SOL    HW229341   1.556   8.236   0.718 -0.9802 -0.3940  0.6362
 9367SOL     OW29342   1.904   5.741   1.153 -0.4027  0.7566 -0.7168
 9367SOL    HW129343   1.846   5.710   1.084  0.1041  1.7513 -1.6086
 9367SOL    HW229344   1.858   5.720   1.234 -0.5552 -1.3181 -1.3185
 9368SOL     OW29345   5.556   4.248   0.486 -0.1477 -0.1497  0.3204
 9368SOL    HW129346   5.513   4.328   0.517 -1.5145 -0.1846 -1.4042
 9368SOL    HW229347   5.618   4.225   0.555  1.4548  3.3172  0.0940
 9369SOL     OW29348   3.075   1.323   7.607 -0.4625 -0.5850 -0.4571
 9369SOL    HW129349   3.153   1.273   7.632  0.0173 -1.1638 -2.9587
 9369SOL    HW229350   3.026   1.333   7.688  0.3496 -3.5461  0.4677
 9370SOL     OW29351   3.044   6.535   0.371 -0.3169  0.2629 -0.2896
 9370SOL    HW129352   3.128   6.570   0.400  0.5239 -0.3138 -1.9236
 9370SOL    HW229353   3.003   6.501   0.450  0.8402  0.8677  0.5818
 9371SOL     OW29354   0.033   8.304   3.735 -0.4125 -0.3691 -0.1502
 9371SOL    HW129355   0.005   8.358   3.661  2.8782  1.1936 -0.3330
 9371SOL    HW229356   0.082   8.232   3.696  0.2461 -0.2522  0.4532
 9372SOL     OW29357   5.417   2.789   1.560 -0.1499 -0.0819  0.6305
 9372SOL    HW129358   5.441   2.810   1.470 -1.3323  0.7103  0.4937
 9372SOL    HW229359   5.469   2.849   1.614  1.6454 -1.5326  0.5644
 9373SOL     OW29360   7.902   6.954   0.635 -0.5333 -0.4993  0.2002
 9373SOL    HW129361   7.984   6.959   0.586 -0.0726 -1.5380  0.8622
 9373SOL    HW229362   7.927   6.924   0.722 -1.5663 -0.4232  0.5301
 9374SOL     OW29363   1.657   5.625   4.589  1.4828 -0.5762 -0.3459
 9374SOL    HW129364   1.579   5.570   4.591  0.7607  0.4669  2.1762
 9374SOL    HW229365   1.654   5.667   4.503  0.0492 -1.6550 -0.8378
 9375SOL     OW29366   6.037   7.496   5.544  0.6319  0.1492 -0.0266
 9375SOL    HW129367   6.067   7.505   5.635 -1.1912  0.2655  0.5698
 9375SOL    HW229368   6.065   7.577   5.502  1.2626  0.2084  0.4918
 9376SOL     OW29369   2.506   6.135   2.242  0.3726  0.5292  0.0889
 9376SOL    HW129370   2.468   6.070   2.184 -0.9691 -0.3111  1.8816
 9376SOL    HW229371   2.522   6.211   2.186 -0.8262 -0.2838 -1.3809
 9377SOL     OW29372   2.756   4.174   3.509 -0.3841  0.1841 -0.0829
 9377SOL    HW129373   2.797   4.126   3.581 -1.5203 -0.6970 -0.0044
 9377SOL    HW229374   2.779   4.265   3.525  0.1564 -0.1114  0.8774
 9378SOL     OW29375   5.617   0.114   2.252 -0.7401 -0.4420  0.3335
 9378SOL    HW129376   5.591   0.029   2.215 -2.6062  0.0702  0.4116
 9378SOL    HW229377   5.584   0.178   2.190 -1.3454  0.3155  1.4223
 9379SOL     OW29378   5.316   2.601   1.049 -0.3852 -0.2480  0.6300
 9379SOL    HW129379   5.309   2.624   1.142 -0.6959 -1.1015  0.8270
 9379SOL    HW229380   5.350   2.680   1.007 -0.2703  0.1566  1.4671
 9380SOL     OW29381   1.859   8.143   6.407 -0.4507 -0.4701  0.0370
 9380SOL    HW129382   1.794   8.182   6.348  2.3554  2.6722 -1.0839
 9380SOL    HW229383   1.934   8.202   6.404  3.3560 -4.9876 -0.2979
 9381SOL     OW29384   5.738   2.963   2.947 -0.1353 -0.0268 -0.1633
 9381SOL    HW129385   5.755   2.929   3.035 -0.5078 -0.9456 -0.4390
 9381SOL    HW229386   5.663   2.912   2.916  0.4176 -0.1767 -1.2750
 9382SOL     OW29387   1.593   4.337   4.169  0.3355 -0.1010  0.3689
 9382SOL    HW129388   1.670   4.367   4.121  0.3998  0.8858  1.0656
 9382SOL    HW229389   1.582   4.401   4.240 -0.8618 -0.4675  0.5381
 9383SOL     OW29390   7.964   5.768   1.843  0.6606 -0.5522  0.7332
 9383SOL    HW129391   7.953   5.815   1.925  2.4051  2.6441 -0.7714
 9383SOL    HW229392   8.041   5.809   1.802  0.1087 -2.3756 -2.2672
 9384SOL     OW29393   5.134   4.400   8.263  0.1044  0.3959  0.2564
 9384SOL    HW129394   5.057   4.361   8.304 -1.1002  1.7583 -0.6775
 9384SOL    HW229395   5.100   4.447   8.187  2.0383 -0.2746 -1.0702
 9385SOL     OW29396   7.601   1.595   6.140  0.1237 -0.1352  0.3489
 9385SOL    HW129397   7.604   1.654   6.065  0.0883 -2.1297 -1.2521
 9385SOL    HW229398   7.692   1.567   6.153  0.0162 -0.3859  0.5716
 9386SOL     OW29399   7.101   1.917   7.123 -0.1008 -0.0082 -0.4077
 9386SOL    HW129400   7.089   1.966   7.042  1.9368  1.0345 -0.1207
 9386SOL    HW229401   7.060   1.832   7.107 -1.3190  0.8413 -1.8608
 9387SOL     OW29402   0.937   3.428   3.614  0.5072 -0.1065  0.2502
 9387SOL    HW129403   0.923   3.490   3.685 -1.2660 -1.1246  0.8117
 9387SOL    HW229404   0.895   3.468   3.538 -0.7626 -0.6481  0.6455
 9388SOL     OW29405   6.851   4.501   2.860 -0.0962 -0.0019 -0.4253
 9388SOL    HW129406   6.808   4.453   2.789  0.6564 -1.3182 -0.0026
 9388SOL    HW229407   6.794   4.576   2.876 -0.6831 -0.1098 -1.8947
 9389SOL     OW29408   3.554   7.542   2.134 -0.3507  0.4522 -0.0725
 9389SOL    HW129409   3.577   7.630   2.163 -1.6876  1.2146 -1.2713
 9389SOL    HW229410   3.562   7.544   2.039 -1.3910 -0.4196 -0.1928
 9390SOL     OW29411   4.900   1.635   3.877  0.0947  0.6458  0.0013
 9390SOL    HW129412   4.806   1.635   3.858 -0.0824 -0.9908  0.8100
 9390SOL    HW229413   4.919   1.545   3.905  1.8065  1.0836  0.2925
 9391SOL     OW29414   7.324   6.229   1.149 -0.4970 -0.8608 -0.3246
 9391SOL    HW129415   7.342   6.250   1.058 -0.1610  1.1434  0.1839
 9391SOL    HW229416   7.241   6.180   1.146 -1.5269  0.8786 -1.5501
 9392SOL     OW29417   3.395   3.349   4.894  0.0194 -0.2427  0.3765
 9392SOL    HW129418   3.321   3.303   4.854 -0.4216 -0.1434  1.0737
 9392SOL    HW229419   3.399   3.315   4.983  1.0015 -0.4615  0.2485
 9393SOL     OW29420   2.890   2.710   5.707 -0.0117 -0.3450 -0.4161
 9393SOL    HW129421   2.982   2.686   5.716 -0.1180 -0.0351  1.8105
 9393SOL    HW229422   2.889   2.777   5.639  1.1644 -1.6824 -1.7620
 9394SOL     OW29423   5.786   0.406   0.818  0.9659  0.1165 -0.3811
 9394SOL    HW129424   5.787   0.381   0.910 -0.2931 -1.7964 -0.8458
 9394SOL    HW229425   5.844   0.342   0.775 -0.0287 -0.2633 -1.1892
 9395SOL     OW29426   6.899   3.827   6.115  0.1209 -0.2266  0.4606
 9395SOL    HW129427   6.976   3.773   6.136 -1.4209 -2.4025  0.7173
 9395SOL    HW229428   6.862   3.787   6.036 -2.2297 -0.8748  1.8268
 9396SOL     OW29429   0.150   4.584   7.616  0.0420  0.2500  0.4836
 9396SOL    HW129430   0.057   4.590   7.598  0.5070  0.7324 -1.8683
 9396SOL    HW229431   0.165   4.649   7.685 -1.0835  1.3246 -0.2700
 9397SOL     OW29432   6.323   0.772   0.156 -0.2849  0.0615  0.4820
 9397SOL    HW129433   6.267   0.849   0.164 -0.6605 -0.1712  0.1119
 9397SOL    HW229434   6.263   0.699   0.143 -0.0129 -0.5314  2.3391
 9398SOL     OW29435   7.428   2.163   1.245 -0.5538  0.3000 -0.3306
 9398SOL    HW129436   7.399   2.102   1.312  0.4058 -0.0725 -0.2526
 9398SOL    HW229437   7.522   2.148   1.237  0.0144  3.0148  0.9515
 9399SOL     OW29438   2.433   2.324   8.186  0.0849 -0.3217  0.2012
 9399SOL    HW129439   2.445   2.404   8.238  0.0908 -0.3384  0.2266
 9399SOL    HW229440   2.372   2.349   8.117 -0.3142 -0.4295  0.5098
 9400SOL     OW29441   8.047   0.585   5.868 -0.6596  0.4705  0.0334
 9400SOL    HW129442   7.988   0.510   5.858 -0.8774  0.5411  0.7322
 9400SOL    HW229443   8.041   0.607   5.961  1.1485 -0.0898  0.3050
 9401SOL     OW29444   5.999   0.054   6.498  0.0727 -0.1879  0.5676
 9401SOL    HW129445   6.077   0.107   6.515  0.2268 -0.1979 -0.0847
 9401SOL    HW229446   5.926   0.116   6.506  0.0920 -0.3183  1.8211
 9402SOL     OW29447   6.496   0.085   8.131  0.1021 -0.0876 -0.0866
 9402SOL    HW129448   6.497   0.056   8.040 -0.8848 -1.8043  0.4347
 9402SOL    HW229449   6.573   0.043   8.170  1.0427  1.3811 -0.3384
 9403SOL     OW29450   0.059   1.533   4.160 -0.1752  0.0201  0.0782
 9403SOL    HW129451   0.033   1.513   4.250 -2.7880  0.0241 -0.6313
 9403SOL    HW229452   0.080   1.626   4.161  0.7819 -0.1954  0.8918
 9404SOL     OW29453   1.876   7.349   6.348 -0.4127 -0.6907  0.2869
 9404SOL    HW129454   1.789   7.318   6.323 -0.4333  0.0993 -0.6436
 9404SOL    HW229455   1.930   7.333   6.270  0.1896 -0.8370  0.7339
 9405SOL     OW29456   4.047   0.421   0.501 -0.0121  0.2228  0.0701
 9405SOL    HW129457   4.119   0.358   0.504 -0.3543 -0.2852 -1.7410
 9405SOL    HW229458   4.028   0.431   0.408  0.2428  3.2422  0.2807
 9406SOL     OW29459   1.287   0.098   6.773  0.5723 -0.0938  0.2674
 9406SOL    HW129460   1.333   0.091   6.857  1.2100  0.1710 -0.0594
 9406SOL    HW229461   1.352   0.133   6.713 -0.4942  1.7556  0.1488
 9407SOL     OW29462   6.719   6.479   6.599  0.3347 -0.5272 -0.5552
 9407SOL    HW129463   6.768   6.544   6.550 -0.5578 -1.0537 -2.1764
 9407SOL    HW229464   6.778   6.453   6.670  1.1429  1.1663 -0.5880
 9408SOL     OW29465   1.032   3.534   2.988  0.2991 -0.4613  0.5200
 9408SOL    HW129466   1.033   3.439   2.995  0.9077 -0.3076  2.9815
 9408SOL    HW229467   0.952   3.561   3.034 -2.1273  0.0428 -3.7259
 9409SOL     OW29468   4.972   0.294   0.003  0.3376  0.2905  0.4018
 9409SOL    HW129469   5.052   0.283  -0.048 -0.5891 -0.9150 -0.8333
 9409SOL    HW229470   4.934   0.206   0.006 -0.6975  0.7636  1.3776
 9410SOL     OW29471   7.397   0.371   4.579 -0.2376  0.1199 -0.3339
 9410SOL    HW129472   7.431   0.313   4.647  0.2984 -0.1750 -0.8518
 9410SOL    HW229473   7.405   0.320   4.498 -1.4683  0.2242 -0.5295
 9411SOL     OW29474   4.576   7.198   8.163 -0.2079  0.6505 -0.3232
 9411SOL    HW129475   4.540   7.286   8.177 -1.2702  0.2541 -0.5092
 9411SOL    HW229476   4.508   7.152   8.115  0.0617 -0.4917  0.3758
 9412SOL     OW29477   5.634   7.725   0.144  0.0061  0.0304  0.1804
 9412SOL    HW129478   5.586   7.801   0.176  0.1624 -0.6871  2.2586
 9412SOL    HW229479   5.568   7.672   0.099 -0.0626  1.4662 -1.4154
 9413SOL     OW29480   0.247   4.977   2.281  0.4349 -0.0055 -0.0987
 9413SOL    HW129481   0.162   5.005   2.247  1.7183  3.0119 -1.0389
 9413SOL    HW229482   0.271   4.902   2.226 -0.8646  0.1386 -0.9059
 9414SOL     OW29483   5.960   4.916   1.668 -0.7848  0.1346  0.0593
 9414SOL    HW129484   5.907   4.969   1.609 -0.8624 -0.1398 -0.1201
 9414SOL    HW229485   5.920   4.829   1.665  1.1605 -0.7478 -2.0167
 9415SOL     OW29486   7.380   3.368   7.278 -0.5485  0.2799 -0.0627
 9415SOL    HW129487   7.394   3.428   7.351 -0.7801  0.7036 -0.3647
 9415SOL    HW229488   7.432   3.291   7.300  1.5460  1.4720 -0.7397
 9416SOL     OW29489   3.530   3.615   4.589  0.1880 -0.3101  0.5289
 9416SOL    HW129490   3.439   3.600   4.614  0.3008 -1.8378  0.0823
 9416SOL    HW229491   3.527   3.692   4.533 -0.8975 -0.6586  0.0974
 9417SOL     OW29492   4.271   0.606   2.490 -0.2680 -0.2314  0.1964
 9417SOL    HW129493   4.248   0.596   2.397 -1.9998  0.9565  0.4752
 9417SOL    HW229494   4.334   0.678   2.491  0.4358 -0.8307 -0.1384
 9418SOL     OW29495   7.611   2.574   5.366 -0.2833  0.6166  1.0051
 9418SOL    HW129496   7.695   2.531   5.383 -0.9253 -0.8189  0.5850
 9418SOL    HW229497   7.614   2.653   5.420  0.7253 -0.1856  2.1551
 9419SOL     OW29498   3.062   1.568   4.472  0.1928  0.3157 -0.3847
 9419SOL    HW129499   2.978   1.608   4.493  0.9511  1.4150  0.5978
 9419SOL    HW229500   3.072   1.581   4.378 -0.6053  0.4064 -0.4645
 9420SOL     OW29501   3.065   4.717   5.670 -0.2824 -0.5964  0.2529
 9420SOL    HW129502   3.124   4.642   5.679 -1.1763 -1.5624 -1.8132
 9420SOL    HW229503   3.014   4.717   5.750  0.9813 -1.0827  1.0794
 9421SOL     OW29504   3.229   4.503   1.799 -0.0764 -0.8405  0.1336
 9421SOL    HW129505   3.291   4.451   1.746 -1.4171 -0.7751 -1.5367
 9421SOL    HW229506   3.227   4.588   1.756  0.1478 -0.2194  1.3494
 9422SOL     OW29507   2.679   0.265   2.321 -0.2412  0.4661 -0.2764
 9422SOL    HW129508   2.662   0.334   2.385 -0.0851 -0.5279  0.8645
 9422SOL    HW229509   2.620   0.285   2.249 -1.1371  1.0703  0.5961
 9423SOL     OW29510   5.131   2.044   3.853  0.1607  0.1134 -0.5175
 9423SOL    HW129511   5.106   1.957   3.823 -1.6968  0.4442 -0.0099
 9423SOL    HW229512   5.152   2.032   3.946  0.6975  0.0544 -0.6478
 9424SOL     OW29513   5.847   2.119   0.260  0.1226  0.3114  0.1754
 9424SOL    HW129514   5.779   2.163   0.209 -1.3711 -1.3016  0.7247
 9424SOL    HW229515   5.913   2.094   0.195 -1.9750 -2.1395 -1.1054
 9425SOL     OW29516   8.120   0.104   1.556 -0.1137  0.0864 -0.2167
 9425SOL    HW129517   8.150   0.110   1.465  1.0643 -1.9091  0.0150
 9425SOL    HW229518   8.105   0.011   1.570  0.9151  0.2230  2.0016
 9426SOL     OW29519   3.857   3.303   2.917 -0.5346  0.4738 -0.4550
 9426SOL    HW129520   3.782   3.257   2.878  1.5677 -4.0602  0.5238
 9426SOL    HW229521   3.836   3.307   3.011  0.2151 -0.4509 -0.2371
 9427SOL     OW29522   4.990   3.669   1.553  0.5016 -0.8148 -0.6067
 9427SOL    HW129523   5.073   3.680   1.599 -0.4302  0.2274  0.8648
 9427SOL    HW229524   4.945   3.600   1.602 -0.5357  0.3664  0.1158
 9428SOL     OW29525   7.880   5.070   8.086  0.3332 -0.2732  0.8045
 9428SOL    HW129526   7.823   5.127   8.034 -2.2867 -0.9770  2.7736
 9428SOL    HW229527   7.930   5.131   8.141  0.4963  0.3013  0.0312
 9429SOL     OW29528   0.826   1.879   1.462  0.2098 -0.3117 -0.3854
 9429SOL    HW129529   0.913   1.908   1.487  0.1792 -1.4718  1.1400
 9429SOL    HW229530   0.841   1.800   1.410  0.0631 -0.8621  0.3914
 9430SOL     OW29531   7.450   4.993   2.632  0.2619 -0.2939  0.2842
 9430SOL    HW129532   7.541   4.968   2.616  0.4923  0.9775 -0.4693
 9430SOL    HW229533   7.455   5.084   2.663 -0.8200  0.1338 -0.7682
 9431SOL     OW29534   5.296   3.568   2.585  0.3217 -0.1948  0.2091
 9431SOL    HW129535   5.226   3.519   2.542  0.9279 -0.6265 -0.3132
 9431SOL    HW229536   5.364   3.576   2.518 -0.1309  2.1615  0.0091
 9432SOL     OW29537   0.208   3.600   8.214 -0.6505  0.2319  0.2379
 9432SOL    HW129538   0.173   3.668   8.271  1.5081  0.9575  0.7339
 9432SOL    HW229539   0.240   3.647   8.137  1.5753 -0.0811  0.9284
 9433SOL     OW29540   3.727   0.682   4.267 -0.0998  0.5676 -0.4137
 9433SOL    HW129541   3.791   0.749   4.291  0.3916  0.6334 -1.9060
 9433SOL    HW229542   3.761   0.601   4.304  0.9277  0.5750 -1.3202
 9434SOL     OW29543   5.621   3.851   5.517  0.8274  0.2788 -0.0346
 9434SOL    HW129544   5.700   3.828   5.467 -0.1500  0.3312 -1.6432
 9434SOL    HW229545   5.588   3.930   5.475  0.2223  0.5766  0.9833
 9435SOL     OW29546   6.428   5.327   1.145  0.5611  0.3115  0.1412
 9435SOL    HW129547   6.367   5.332   1.219 -0.7745 -0.0232 -0.9065
 9435SOL    HW229548   6.435   5.234   1.127 -0.4135  0.4758 -1.1770
 9436SOL     OW29549   4.483   3.941   4.233 -0.0238 -0.1156  0.5052
 9436SOL    HW129550   4.540   3.867   4.209  0.9475 -0.1034  2.6443
 9436SOL    HW229551   4.530   4.018   4.201 -1.1761 -0.4061 -1.9903
 9437SOL     OW29552   3.619   2.123   7.901  0.2951 -0.5760 -0.3264
 9437SOL    HW129553   3.638   2.083   7.816 -2.3511 -0.2618 -1.1290
 9437SOL    HW229554   3.576   2.206   7.879  0.3106 -0.1207  1.3203
 9438SOL     OW29555   2.485   2.759   6.231  0.1753  0.3060 -0.3391
 9438SOL    HW129556   2.558   2.712   6.191 -0.2740 -1.0604  0.4283
 9438SOL    HW229557   2.463   2.827   6.167  1.2109 -0.1491 -1.1973
 9439SOL     OW29558   0.052   7.464   5.291 -0.2197 -0.4629  0.7200
 9439SOL    HW129559   0.032   7.555   5.314 -0.6800 -0.5289  0.5944
 9439SOL    HW229560   0.100   7.430   5.367 -0.6746 -0.3231  1.0723
 9440SOL     OW29561   1.486   5.218   3.563  1.1117  0.3991  0.4162
 9440SOL    HW129562   1.494   5.254   3.651  3.0334 -0.3756  0.5842
 9440SOL    HW229563   1.392   5.206   3.550  0.8929 -0.9670  2.9832
 9441SOL     OW29564   3.696   8.085   4.348  0.4427 -0.3532  0.5504
 9441SOL    HW129565   3.772   8.036   4.382  0.9720 -0.3708 -0.6280
 9441SOL    HW229566   3.624   8.023   4.353  0.5655 -0.4411  1.3965
 9442SOL     OW29567   5.345   0.177   6.531  0.5371  0.4060 -0.5035
 9442SOL    HW129568   5.295   0.144   6.456 -0.0534  0.3397 -0.0827
 9442SOL    HW229569   5.287   0.241   6.573  1.5950  1.8702 -1.2066
 9443SOL     OW29570   0.972   4.546   4.546  0.2650 -0.2932 -0.4602
 9443SOL    HW129571   1.049   4.587   4.585 -0.6010 -0.5016  1.5392
 9443SOL    HW229572   0.990   4.452   4.550 -1.2698 -0.5233  2.7234
 9444SOL     OW29573   4.947   4.829   2.628 -0.4278 -0.2658  0.6353
 9444SOL    HW129574   4.919   4.901   2.572 -1.9834 -1.0009  0.4535
 9444SOL    HW229575   5.039   4.848   2.647 -0.0907  0.4036 -1.5217
 9445SOL     OW29576   0.343   8.186   5.948 -0.9106  0.0327 -0.2443
 9445SOL    HW129577   0.408   8.255   5.938 -1.2881  0.4989  0.4864
 9445SOL    HW229578   0.322   8.159   5.859  1.5678 -1.3405 -0.4723
 9446SOL     OW29579   0.271   3.693   1.293 -0.2555 -0.1834  0.3548
 9446SOL    HW129580   0.305   3.638   1.364  1.5806  0.7428  0.2212
 9446SOL    HW229581   0.314   3.660   1.214 -2.2426 -1.1634 -0.3476
 9447SOL     OW29582   4.633   4.824   1.807 -0.1160 -0.3526  0.2659
 9447SOL    HW129583   4.650   4.767   1.882 -0.7214 -0.5864  0.2225
 9447SOL    HW229584   4.538   4.835   1.805 -0.0190  0.5418  0.1879
 9448SOL     OW29585   0.589   0.611   3.769 -0.6999  0.2180  0.2983
 9448SOL    HW129586   0.530   0.535   3.770 -1.1570  0.5412 -0.9859
 9448SOL    HW229587   0.660   0.585   3.711 -0.8980  0.7950 -0.2047
 9449SOL     OW29588   1.424   6.331   1.729  0.1889  0.0866 -0.0190
 9449SOL    HW129589   1.335   6.361   1.749  0.4179 -0.1497  1.4083
 9449SOL    HW229590   1.455   6.293   1.811  0.7019 -2.1059 -1.2105
 9450SOL     OW29591   0.690   2.891   6.606 -0.8088 -0.5319  0.2001
 9450SOL    HW129592   0.725   2.830   6.541 -1.0243  0.8616 -1.2445
 9450SOL    HW229593   0.767   2.933   6.644 -0.7511 -0.0410 -0.4492
 9451SOL     OW29594   3.623   5.122   5.711  0.2855 -0.1344  0.4889
 9451SOL    HW129595   3.529   5.131   5.697  0.3138 -0.1387  0.2873
 9451SOL    HW229596   3.631   5.059   5.783  0.1280  0.1279  0.7343
 9452SOL     OW29597   6.136   6.430   2.512  0.3150 -0.3931 -0.2384
 9452SOL    HW129598   6.124   6.504   2.451  0.0536  0.1149  0.4232
 9452SOL    HW229599   6.221   6.392   2.487 -0.4144 -1.0215 -1.7938
 9453SOL     OW29600   6.467   6.980   7.887 -0.8468 -0.3870 -0.4791
 9453SOL    HW129601   6.407   7.018   7.822 -0.2744  2.1747  0.4352
 9453SOL    HW229602   6.511   7.056   7.926  0.8748 -2.0642  0.9155
 9454SOL     OW29603   3.704   3.515   3.731 -0.7726 -0.3743 -0.1836
 9454SOL    HW129604   3.759   3.477   3.799 -2.2734 -2.1999  0.0457
 9454SOL    HW229605   3.615   3.505   3.765 -1.6348 -2.3780 -2.8937
 9455SOL     OW29606   0.634   6.738   5.578  0.2340 -0.4670  0.3243
 9455SOL    HW129607   0.701   6.806   5.570  0.1472 -0.4868 -0.5498
 9455SOL    HW229608   0.591   6.736   5.493  0.4493 -1.8383  0.2331
 9456SOL     OW29609   0.807   6.043   6.598  0.6558 -0.5249 -0.7540
 9456SOL    HW129610   0.866   5.977   6.562  0.1098 -1.2550 -0.3212
 9456SOL    HW229611   0.825   6.043   6.692 -0.7039 -1.4316 -0.4839
 9457SOL     OW29612   4.178   1.979   3.413 -0.2652 -1.0408  0.6766
 9457SOL    HW129613   4.189   1.892   3.452 -0.7037 -0.4911  2.0635
 9457SOL    HW229614   4.096   2.011   3.449  0.2158  0.2120  0.6855
 9458SOL     OW29615   6.103   5.221   0.784  0.6779  0.4000 -0.4538
 9458SOL    HW129616   6.133   5.131   0.786 -0.9354 -0.1951 -2.2080
 9458SOL    HW229617   6.078   5.240   0.875  0.9314 -0.9341 -0.0987
 9459SOL     OW29618   2.837   4.679   0.145  0.1780  0.7767 -0.3885
 9459SOL    HW129619   2.810   4.683   0.054  0.1276  1.4189 -0.3450
 9459SOL    HW229620   2.770   4.727   0.193 -0.8373 -1.1772  0.2304
 9460SOL     OW29621   5.825   7.502   1.478 -0.5503 -0.3829  0.0366
 9460SOL    HW129622   5.880   7.428   1.503 -0.7406 -0.8488 -0.9054
 9460SOL    HW229623   5.764   7.513   1.552 -0.5232 -1.1647  0.1799
 9461SOL     OW29624   7.562   1.123   0.576 -0.2952  0.7763 -0.0800
 9461SOL    HW129625   7.481   1.172   0.566 -0.5680  0.1678 -0.9202
 9461SOL    HW229626   7.538   1.047   0.629 -0.4315  0.2420 -0.8961
 9462SOL     OW29627   4.081   3.335   6.296 -0.3516  0.7364  0.5286
 9462SOL    HW129628   4.134   3.399   6.249  0.8634  0.0216  0.9141
 9462SOL    HW229629   4.029   3.292   6.228  0.5137  0.5426 -0.0099
 9463SOL     OW29630   2.356   4.369   7.885 -0.6400  0.0965 -0.2079
 9463SOL    HW129631   2.330   4.286   7.843 -1.0962 -0.5809  1.3594
 9463SOL    HW229632   2.347   4.351   7.978 -1.5018  2.1686  0.1275
 9464SOL     OW29633   5.899   7.695   1.030 -0.1052 -0.0058  0.3256
 9464SOL    HW129634   5.894   7.726   1.121 -1.3290 -0.0183  0.2695
 9464SOL    HW229635   5.974   7.742   0.994  0.0257  0.4580  1.1703
 9465SOL     OW29636   0.819   8.172   4.888  0.0076  0.4147  0.7575
 9465SOL    HW129637   0.737   8.124   4.890 -0.1516  0.6579  0.0424
 9465SOL    HW229638   0.834   8.191   4.796  0.0841  1.7037  1.0238
 9466SOL     OW29639   4.669   3.780   6.797 -0.3484  0.6753  0.1173
 9466SOL    HW129640   4.611   3.827   6.858 -1.0084  2.3228 -1.7281
 9466SOL    HW229641   4.629   3.793   6.711  1.1192 -0.7784 -0.8231
 9467SOL     OW29642   4.358   0.994   2.180 -0.3610 -0.0590 -0.6752
 9467SOL    HW129643   4.274   1.040   2.180 -0.6634 -0.6098 -1.6481
 9467SOL    HW229644   4.405   1.030   2.105  0.9589  1.4697  0.8451
 9468SOL     OW29645   7.698   6.363   3.611  0.2972  0.5296 -0.0187
 9468SOL    HW129646   7.689   6.387   3.703  1.7279 -0.3916  0.3775
 9468SOL    HW229647   7.609   6.359   3.578 -0.4067 -1.9398  2.0678
 9469SOL     OW29648   2.878   5.417   3.878  0.5098  0.5083 -0.1327
 9469SOL    HW129649   2.841   5.500   3.907 -0.7625 -0.4043  0.9520
 9469SOL    HW229650   2.801   5.361   3.863  1.3837 -0.8136  0.2500
 9470SOL     OW29651   0.962   1.912   0.494 -0.1349 -0.1771  0.2399
 9470SOL    HW129652   0.938   1.999   0.462 -1.4873 -0.3223  0.8542
 9470SOL    HW229653   1.035   1.886   0.437 -1.2592  0.3541 -1.5110
 9471SOL     OW29654   5.919   0.634   0.550  0.0937  0.2696  0.4967
 9471SOL    HW129655   5.931   0.629   0.645 -1.9485 -3.0262  0.6459
 9471SOL    HW229656   5.840   0.686   0.538 -1.0504 -1.3920  0.7369
 9472SOL     OW29657   3.620   6.501   4.154  0.4808 -0.0931  0.1225
 9472SOL    HW129658   3.695   6.486   4.211 -1.0106 -1.2415  1.8140
 9472SOL    HW229659   3.645   6.461   4.071  1.8886 -0.1216  0.5500
 9473SOL     OW29660   1.796   7.196   1.986 -0.0426  0.2316  0.9415
 9473SOL    HW129661   1.872   7.223   1.936 -0.8497  0.3711 -0.2300
 9473SOL    HW229662   1.790   7.259   2.058 -0.7888  2.0397 -0.6718
 9474SOL     OW29663   2.832   5.650   2.779 -0.3602  0.3336  0.3350
 9474SOL    HW129664   2.827   5.745   2.786 -1.9410  0.2289  0.9362
 9474SOL    HW229665   2.885   5.634   2.701  0.0391  1.7001  0.3157
 9475SOL     OW29666   0.217   0.711   2.811 -0.2694 -0.2274  0.1361
 9475SOL    HW129667   0.143   0.662   2.847 -0.2626  0.3450  0.9234
 9475SOL    HW229668   0.254   0.652   2.745 -1.7134 -0.3305 -0.6176
 9476SOL     OW29669   0.798   7.877   2.490 -0.3574  0.3022 -0.6847
 9476SOL    HW129670   0.880   7.876   2.540 -1.0896 -0.4567  0.5382
 9476SOL    HW229671   0.730   7.879   2.557 -1.3385  2.9427 -1.7100
 9477SOL     OW29672   1.004   1.788   4.727 -0.7005 -0.2715 -0.1710
 9477SOL    HW129673   1.078   1.765   4.782 -2.1289  0.9959  2.3483
 9477SOL    HW229674   1.004   1.721   4.658  2.1688 -0.8372  0.3234
 9478SOL     OW29675   5.752   1.963   4.499  0.4202 -0.0875 -0.1819
 9478SOL    HW129676   5.712   2.044   4.468  0.9401  0.4297  0.4934
 9478SOL    HW229677   5.700   1.893   4.458 -1.8494  0.5404  1.5497
 9479SOL     OW29678   5.222   0.591   2.271 -0.0956 -0.3636 -0.0122
 9479SOL    HW129679   5.316   0.610   2.269 -0.3189  0.7261 -0.5036
 9479SOL    HW229680   5.180   0.675   2.251 -1.2583 -0.2094  2.8525
 9480SOL     OW29681   6.766   3.135   8.173  0.0280  0.2329 -0.0493
 9480SOL    HW129682   6.839   3.128   8.235 -0.3207  0.1500  0.3468
 9480SOL    HW229683   6.703   3.192   8.216 -0.5457 -0.4323 -0.0098
 9481SOL     OW29684   2.491   1.919   3.313  0.3499 -0.0684  0.3349
 9481SOL    HW129685   2.445   1.877   3.241 -0.7952  0.2846  0.8489
 9481SOL    HW229686   2.582   1.891   3.303 -0.2271 -1.9745  0.1713
 9482SOL     OW29687   1.901   7.924   5.830 -0.1863 -0.3061 -0.0602
 9482SOL    HW129688   1.845   7.851   5.801 -1.6887  1.1191 -0.8554
 9482SOL    HW229689   1.842   7.981   5.880  0.0414  2.1891 -2.4837
 9483SOL     OW29690   5.098   8.206   0.226  0.4266 -0.2488  0.3355
 9483SOL    HW129691   5.109   8.290   0.269  0.3067 -0.6296  1.1113
 9483SOL    HW229692   5.123   8.141   0.292 -1.4976 -0.9067  0.4353
 9484SOL     OW29693   3.254   1.828   8.296 -0.1652  0.3025  0.1962
 9484SOL    HW129694   3.322   1.765   8.319 -2.3139 -1.9693  0.4897
 9484SOL    HW229695   3.297   1.913   8.304  3.2260 -1.1222 -1.6222
 9485SOL     OW29696   7.671   3.724   2.488 -0.0578  0.7782  0.6457
 9485SOL    HW129697   7.583   3.751   2.465  0.1593  0.7459 -0.2470
 9485SOL    HW229698   7.668   3.628   2.490  0.1870  0.7447 -0.3475
 9486SOL     OW29699   0.841   6.226   1.737 -0.2260 -0.2445  0.4689
 9486SOL    HW129700   0.920   6.173   1.737 -0.2521 -0.2990 -0.7778
 9486SOL    HW229701   0.836   6.263   1.825  1.1982 -0.2070  0.5357
 9487SOL     OW29702   3.702   0.542   5.757 -0.1329 -0.2492  0.1930
 9487SOL    HW129703   3.725   0.502   5.841  0.0913 -1.4617 -0.4262
 9487SOL    HW229704   3.648   0.476   5.713  0.6058 -0.0546 -1.0343
 9488SOL     OW29705   2.994   5.874   1.430  0.1457  0.4270 -0.4827
 9488SOL    HW129706   3.084   5.865   1.460 -0.1155 -2.3666 -0.4499
 9488SOL    HW229707   2.941   5.844   1.504 -0.6454 -1.8604 -1.9361
 9489SOL     OW29708   2.885   2.582   2.348 -0.1828  0.3036 -0.3136
 9489SOL    HW129709   2.864   2.668   2.312  1.6979  1.3532  0.9848
 9489SOL    HW229710   2.878   2.594   2.443 -0.2010 -1.0482 -0.1433
 9490SOL     OW29711   0.987   2.914   4.203  0.2242  0.5004  0.4280
 9490SOL    HW129712   0.962   2.856   4.131 -0.3493  0.5811  0.5591
 9490SOL    HW229713   1.004   2.855   4.276 -3.0780  0.6290  1.3737
 9491SOL     OW29714   7.316   4.779   0.177  0.1178 -0.2360  0.2801
 9491SOL    HW129715   7.232   4.734   0.172  0.4219 -0.6681 -1.2626
 9491SOL    HW229716   7.301   4.852   0.236 -1.5855  0.1933 -0.6419
 9492SOL     OW29717   4.406   5.874   4.303 -0.3575 -0.6498 -0.6364
 9492SOL    HW129718   4.417   5.892   4.397  1.9734 -1.5036 -0.7121
 9492SOL    HW229719   4.313   5.855   4.293 -0.7403  0.0248  1.4075
 9493SOL     OW29720   2.359   1.220   8.006  0.2208  0.0589 -0.3187
 9493SOL    HW129721   2.290   1.286   8.000  1.3169  1.2959  0.2297
 9493SOL    HW229722   2.329   1.160   8.074 -0.0451  0.9326  0.3549
 9494SOL     OW29723   5.433   7.224   3.648 -0.4016 -0.3116 -0.0133
 9494SOL    HW129724   5.350   7.245   3.689  0.1490 -1.3170  1.6713
 9494SOL    HW229725   5.495   7.218   3.721  1.1102  0.2971 -1.2296
 9495SOL     OW29726   1.281   2.296   4.909  0.5998  0.4321 -0.6984
 9495SOL    HW129727   1.331   2.234   4.963  2.1690  0.0958 -2.4762
 9495SOL    HW229728   1.220   2.337   4.970 -0.3900 -2.7699  0.5356
 9496SOL     OW29729   1.944   7.258   3.540  0.0245  0.3723 -0.2973
 9496SOL    HW129730   1.953   7.330   3.478  0.2500  0.7835  0.2140
 9496SOL    HW229731   1.893   7.192   3.493 -1.0801  1.2899 -0.4042
 9497SOL     OW29732   3.162   1.570   1.810  0.1379 -0.3434  0.2625
 9497SOL    HW129733   3.135   1.658   1.785 -1.3592 -0.9043 -0.1726
 9497SOL    HW229734   3.257   1.569   1.798 -0.2149  0.1574 -3.0458
 9498SOL     OW29735   3.494   5.280   6.734 -0.2432  0.3174 -0.2008
 9498SOL    HW129736   3.515   5.206   6.677  1.4554  1.5442 -1.2158
 9498SOL    HW229737   3.462   5.347   6.674 -3.0936 -0.0106  0.8629
 9499SOL     OW29738   8.068   1.065   5.136  0.4429  0.3984  0.3879
 9499SOL    HW129739   8.103   1.114   5.061  0.0018  0.5928  0.3065
 9499SOL    HW229740   8.038   1.133   5.196  2.8250  0.3001  1.7437
 9500SOL     OW29741   0.624   7.077   3.764 -0.2790  0.1664 -0.1223
 9500SOL    HW129742   0.562   7.009   3.738 -0.9244  1.3421 -1.6848
 9500SOL    HW229743   0.658   7.046   3.849 -2.4671 -0.8327  0.4326
 9501SOL     OW29744   6.874   0.373   1.175  0.3102 -0.5585  0.0132
 9501SOL    HW129745   6.783   0.378   1.204 -0.3435 -1.0381 -1.8853
 9501SOL    HW229746   6.916   0.313   1.237 -0.8936 -1.1199  0.2890
 9502SOL     OW29747   0.891   5.932   4.189 -0.1556  0.2887 -0.0030
 9502SOL    HW129748   0.866   5.920   4.097  0.2652  0.9086 -0.2014
 9502SOL    HW229749   0.809   5.918   4.238 -0.2443 -0.6691 -0.4205
 9503SOL     OW29750   1.906   6.331   8.263 -0.2218 -0.6718  0.1465
 9503SOL    HW129751   1.815   6.332   8.290 -0.2558 -0.1025  0.0083
 9503SOL    HW229752   1.950   6.276   8.328 -0.9887 -2.4784 -0.8516
 9504SOL     OW29753   7.248   0.137   5.049 -0.3005 -0.0346  0.1142
 9504SOL    HW129754   7.331   0.137   5.001 -1.2470  0.7166 -1.5441
 9504SOL    HW229755   7.189   0.086   4.994 -0.4090 -2.4334  2.3161
 9505SOL     OW29756   6.135   0.954   3.494  0.2121  0.3653 -0.2825
 9505SOL    HW129757   6.150   1.030   3.438 -0.9342  0.0004 -1.1090
 9505SOL    HW229758   6.156   0.878   3.439  2.8451  0.0814  1.0068
 9506SOL     OW29759   1.776   5.744   6.320  0.1285  0.4434  0.1564
 9506SOL    HW129760   1.775   5.818   6.380 -0.5765  0.4351  0.1598
 9506SOL    HW229761   1.740   5.778   6.238 -0.9139 -0.0650  0.3799
 9507SOL     OW29762   0.024   5.240   5.180 -0.2273  0.2562  0.4918
 9507SOL    HW129763   0.072   5.209   5.103  0.1244  0.7519  0.5111
 9507SOL    HW229764   0.090   5.286   5.233 -1.0299  2.3135 -0.2351
 9508SOL     OW29765   8.028   8.212   3.587 -0.1658  0.1486  0.2948
 9508SOL    HW129766   8.040   8.167   3.671  1.2376  0.8598  0.4885
 9508SOL    HW229767   7.956   8.274   3.602 -0.2342 -0.0583  0.8255
 9509SOL     OW29768   4.318   5.714   3.038  0.6252 -0.6919  0.3769
 9509SOL    HW129769   4.344   5.763   2.960 -0.2868 -1.1933 -0.2560
 9509SOL    HW229770   4.399   5.703   3.087  0.5010  3.5040  1.7489
 9510SOL     OW29771   2.410   5.004   6.077 -0.1667  0.5359  0.1712
 9510SOL    HW129772   2.362   4.922   6.068 -1.4728  1.2793  0.1638
 9510SOL    HW229773   2.342   5.069   6.099  0.5228  1.9949 -1.8351
 9511SOL     OW29774   3.799   2.520   8.147 -0.3866 -0.0454  0.2167
 9511SOL    HW129775   3.747   2.448   8.183  0.9723 -0.9124  0.4801
 9511SOL    HW229776   3.826   2.490   8.060  0.3150  0.0748  0.3879
 9512SOL     OW29777   4.396   7.423   1.484 -0.3044  0.2218  0.4067
 9512SOL    HW129778   4.301   7.432   1.479 -0.3426 -0.5273 -0.4136
 9512SOL    HW229779   4.412   7.329   1.470  0.5804  0.4325 -0.0486
 9513SOL     OW29780   7.761   1.319   6.944 -0.1367 -0.1097  0.3093
 9513SOL    HW129781   7.819   1.324   7.020 -0.5125  0.2286  0.5759
 9513SOL    HW229782   7.789   1.240   6.898 -0.4597 -0.7914  1.2542
 9514SOL     OW29783   1.585   3.501   4.296 -0.1375  0.4067 -0.1573
 9514SOL    HW129784   1.519   3.432   4.300  0.0319  0.3187  1.2678
 9514SOL    HW229785   1.541   3.578   4.333  0.6142  0.3007  0.9630
 9515SOL     OW29786   2.828   1.706   6.694  0.1151 -0.2420 -0.9832
 9515SOL    HW129787   2.739   1.670   6.700  0.0662 -0.2102 -1.4984
 9515SOL    HW229788   2.816   1.793   6.655  0.2007  0.4664  0.5448
 9516SOL     OW29789   3.344   6.441   3.302  0.0274  0.3304 -0.2620
 9516SOL    HW129790   3.307   6.463   3.388  1.1833 -0.9619  0.5977
 9516SOL    HW229791   3.424   6.494   3.297  0.4145 -0.2404 -0.1597
 9517SOL     OW29792   6.190   4.547   8.053  0.0592 -0.2239 -0.0087
 9517SOL    HW129793   6.112   4.547   8.107  0.7450 -1.0150  0.9997
 9517SOL    HW229794   6.203   4.455   8.030  1.5494 -0.3077  1.0984
 9518SOL     OW29795   3.721   7.386   7.019 -0.0920  0.3143 -0.2907
 9518SOL    HW129796   3.701   7.297   6.989 -0.0531 -0.4526  1.9161
 9518SOL    HW229797   3.649   7.409   7.077  0.1079  1.5813 -0.5235
 9519SOL     OW29798   6.700   1.622   6.395 -0.2763  0.3557 -0.8468
 9519SOL    HW129799   6.700   1.616   6.299 -1.6934  1.1280 -0.9029
 9519SOL    HW229800   6.671   1.536   6.424 -0.8567  0.4547 -1.1342
 9520SOL     OW29801   3.697   0.089   0.633  0.1383  0.0764  0.1412
 9520SOL    HW129802   3.621   0.088   0.576 -0.1978 -0.0741  0.5848
 9520SOL    HW229803   3.748   0.166   0.605 -0.1016  0.0907 -0.2512
 9521SOL     OW29804   1.299   3.212   7.652  0.0384  0.5424 -0.1708
 9521SOL    HW129805   1.348   3.276   7.704  2.3269 -0.0310 -1.5466
 9521SOL    HW229806   1.326   3.127   7.687 -1.5909  0.2464  0.4268
 9522SOL     OW29807   0.389   3.537   4.902 -0.4041 -0.1936 -0.5465
 9522SOL    HW129808   0.388   3.479   4.979 -1.1445  0.2197 -0.2433
 9522SOL    HW229809   0.338   3.489   4.836 -0.4942 -0.1647 -0.4980
 9523SOL     OW29810   6.887   1.563   5.836 -0.2426  0.0752 -0.1497
 9523SOL    HW129811   6.834   1.552   5.757  1.4459  0.5155 -1.3609
 9523SOL    HW229812   6.878   1.655   5.858 -0.9039 -0.0982  0.3150
 9524SOL     OW29813   6.380   8.255   5.769 -0.6243  0.0985  0.9967
 9524SOL    HW129814   6.475   8.255   5.778 -0.4729  0.2518 -0.4964
 9524SOL    HW229815   6.351   8.178   5.818  0.4956 -1.4457 -0.7397
 9525SOL     OW29816   5.677   6.638   7.208  0.4963  0.2249 -0.0505
 9525SOL    HW129817   5.693   6.662   7.299 -0.5716  0.6180  0.0384
 9525SOL    HW229818   5.719   6.707   7.157  0.7523  0.2131  0.1395
 9526SOL     OW29819   6.008   4.473   6.207  0.1547 -0.3078  0.1421
 9526SOL    HW129820   6.063   4.411   6.160  0.2902  1.1488 -1.6874
 9526SOL    HW229821   6.046   4.478   6.295  1.6638 -0.8887 -0.4697
 9527SOL     OW29822   2.452   7.932   0.184  0.6965  0.5002  0.3604
 9527SOL    HW129823   2.539   7.949   0.149 -0.7225  2.4503 -2.4056
 9527SOL    HW229824   2.432   8.010   0.236  0.4430  0.2399  0.6554
 9528SOL     OW29825   0.345   0.227   6.959 -0.2503  0.1324 -0.1336
 9528SOL    HW129826   0.408   0.154   6.966 -0.5830 -0.0876  0.6544
 9528SOL    HW229827   0.399   0.306   6.967  0.4532  0.0572 -3.5425
 9529SOL     OW29828   6.410   3.906   5.370  0.2976  0.7569 -0.1416
 9529SOL    HW129829   6.471   3.851   5.321  0.1433  0.2955  0.1864
 9529SOL    HW229830   6.412   3.871   5.459  1.0072  1.9494  0.3205
 9530SOL     OW29831   5.927   3.662   0.224  0.0819  0.4650 -0.0024
 9530SOL    HW129832   5.844   3.691   0.185  0.6685 -1.2888 -2.6794
 9530SOL    HW229833   5.989   3.730   0.202 -0.4024  1.2915  1.1357
 9531SOL     OW29834   0.992   2.791   6.570 -0.3307 -0.1422 -0.0390
 9531SOL    HW129835   0.936   2.729   6.616 -1.8739  0.9860 -0.3737
 9531SOL    HW229836   1.014   2.858   6.635  1.2275 -0.9420  0.2866
 9532SOL     OW29837   4.030   1.217   6.688  0.0448 -0.1177  0.0219
 9532SOL    HW129838   4.008   1.264   6.769 -0.3156 -0.1147 -0.0786
 9532SOL    HW229839   4.126   1.218   6.685  0.0268  0.9686 -0.1870
 9533SOL     OW29840   0.438   5.163   3.911  0.2347 -0.2747 -0.1567
 9533SOL    HW129841   0.354   5.153   3.866  1.3510 -2.0170 -1.9156
 9533SOL    HW229842   0.463   5.254   3.894 -0.3727 -0.3050 -1.2837
 9534SOL     OW29843   1.272   1.509   2.609 -0.3015  0.1925  0.5577
 9534SOL    HW129844   1.257   1.474   2.697 -0.6520 -0.0701  0.3965
 9534SOL    HW229845   1.349   1.461   2.577 -1.0848 -0.8168  0.1414
 9535SOL     OW29846   2.813   2.854   7.440  0.1323  0.1513 -0.1396
 9535SOL    HW129847   2.796   2.945   7.465  1.3119  0.4489 -0.3948
 9535SOL    HW229848   2.734   2.807   7.466 -0.1015  1.0784  0.8693
 9536SOL     OW29849   1.362   7.471   5.940  0.0025  0.3896  0.4105
 9536SOL    HW129850   1.323   7.557   5.921  0.6891  0.4297 -0.8740
 9536SOL    HW229851   1.387   7.437   5.854  1.4297 -0.2933  1.0898
 9537SOL     OW29852   2.102   1.722   2.428 -0.0860  0.2307  0.1199
 9537SOL    HW129853   2.192   1.731   2.397  0.1154 -0.3813  0.5134
 9537SOL    HW229854   2.052   1.786   2.377  0.4174 -0.0479 -0.7311
 9538SOL     OW29855   5.881   0.587   2.809  0.2165  0.0009  0.3925
 9538SOL    HW129856   5.936   0.518   2.846 -0.5823 -0.0960  1.4104
 9538SOL    HW229857   5.850   0.636   2.885 -0.1074  0.8157 -0.2588
 9539SOL     OW29858   1.162   1.860   0.306  0.3641 -0.6773  0.7471
 9539SOL    HW129859   1.193   1.922   0.241 -0.5533 -0.8828  0.1037
 9539SOL    HW229860   1.236   1.801   0.320  0.0147 -1.6778 -1.4094
 9540SOL     OW29861   1.222   2.467   1.083  0.2770 -0.0867  0.0098
 9540SOL    HW129862   1.197   2.380   1.115  0.0547  0.5712  1.6774
 9540SOL    HW229863   1.276   2.503   1.152 -0.1651  1.3562 -0.3848
 9541SOL     OW29864   6.818   6.341   0.370 -0.2971  0.2386 -0.5467
 9541SOL    HW129865   6.914   6.335   0.372 -0.1421 -1.0153 -5.6498
 9541SOL    HW229866   6.800   6.434   0.377  1.1205  0.3771  2.2763
 9542SOL     OW29867   3.885   5.821   1.105 -0.4157 -0.5291 -0.3229
 9542SOL    HW129868   3.944   5.856   1.039  0.7477  0.4956  1.2155
 9542SOL    HW229869   3.923   5.736   1.128 -1.6329 -1.5508 -1.9844
 9543SOL     OW29870   7.197   4.243   0.948  0.0739 -0.2921 -0.2606
 9543SOL    HW129871   7.171   4.196   1.027  1.5772 -0.7156  0.0035
 9543SOL    HW229872   7.115   4.274   0.910 -0.6775 -0.1632  1.4187
 9544SOL     OW29873   7.375   1.915   0.797  0.0284  0.0416  0.1215
 9544SOL    HW129874   7.361   2.005   0.768  2.2956 -0.1701 -1.7829
 9544SOL    HW229875   7.452   1.886   0.749  0.2016 -2.4495  1.8067
 9545SOL     OW29876   0.599   5.866   7.324  0.0538 -0.1244  0.0388
 9545SOL    HW129877   0.550   5.927   7.378  0.5743  0.1046  0.2489
 9545SOL    HW229878   0.552   5.783   7.332 -1.2065  0.4716 -0.9996
 9546SOL     OW29879   1.551   0.680   0.782 -0.1350 -0.4631 -0.2680
 9546SOL    HW129880   1.481   0.727   0.735 -0.9651  0.5327  1.8804
 9546SOL    HW229881   1.612   0.749   0.807 -0.1554 -0.8570  0.8661
 9547SOL     OW29882   0.326   4.057   2.459  0.6909  0.1990  0.1010
 9547SOL    HW129883   0.256   4.028   2.517 -0.1305  1.1375 -0.4076
 9547SOL    HW229884   0.369   4.128   2.507  1.1550 -0.2234  0.3159
 9548SOL     OW29885   2.261   7.911   4.908 -0.3915  0.1484 -0.2025
 9548SOL    HW129886   2.260   7.965   4.987  1.6031 -0.8822  0.5420
 9548SOL    HW229887   2.186   7.852   4.919 -0.8771  0.8483  0.3038
 9549SOL     OW29888   0.138   5.749   6.800  0.1750 -0.2037  0.8357
 9549SOL    HW129889   0.133   5.843   6.783  0.6862  0.0938  2.2555
 9549SOL    HW229890   0.047   5.720   6.799  0.0151  0.3033  0.3456
 9550SOL     OW29891   5.609   4.500   3.926 -0.1336 -0.3897  0.1831
 9550SOL    HW129892   5.529   4.474   3.972 -0.7998  2.0675  0.4653
 9550SOL    HW229893   5.675   4.506   3.995 -0.3045  0.0010  0.3126
 9551SOL     OW29894   1.930   1.606   7.093  0.0578 -0.7975  0.3066
 9551SOL    HW129895   1.958   1.541   7.028  1.8605 -0.2740  0.5164
 9551SOL    HW229896   1.854   1.648   7.055  2.4512  1.1367 -2.5842
 9552SOL     OW29897   3.534   4.098   1.154 -0.0378  0.6773 -0.3881
 9552SOL    HW129898   3.501   4.067   1.239  1.4335 -0.7667 -0.3168
 9552SOL    HW229899   3.494   4.039   1.090 -0.7745  1.4683 -0.6633
 9553SOL     OW29900   3.797   4.681   7.700  0.2165  0.3214 -0.0970
 9553SOL    HW129901   3.764   4.758   7.654 -1.3434 -0.3849 -0.2026
 9553SOL    HW229902   3.740   4.609   7.670  0.0777 -0.4051  1.8503
 9554SOL     OW29903   2.680   5.204   1.615 -0.4198  0.1648  0.2834
 9554SOL    HW129904   2.648   5.144   1.683 -1.6714  2.3131  1.6300
 9554SOL    HW229905   2.693   5.287   1.660  2.8338  0.5355 -1.2202
 9555SOL     OW29906   0.018   5.750   0.602  0.4803 -0.2953  0.1569
 9555SOL    HW129907  -0.071   5.750   0.567  1.1897  2.5492 -1.7920
 9555SOL    HW229908   0.014   5.808   0.679  1.0009  1.4017 -1.0540
 9556SOL     OW29909   2.061   4.863   3.884  0.1175  0.2165 -0.2124
 9556SOL    HW129910   2.028   4.946   3.918  1.1354  1.1895 -1.5966
 9556SOL    HW229911   2.059   4.873   3.789  1.6466 -0.8014 -0.3613
 9557SOL     OW29912   6.927   4.886   4.810  0.1050  0.0852 -0.3461
 9557SOL    HW129913   6.892   4.803   4.844 -0.3038  1.2755  2.1885
 9557SOL    HW229914   6.870   4.906   4.735 -0.7156 -1.1778 -0.0814
 9558SOL     OW29915   4.169   0.017   1.196  0.0217  0.0906 -0.6240
 9558SOL    HW129916   4.155  -0.077   1.203  2.0297 -0.2302 -0.5581
 9558SOL    HW229917   4.134   0.041   1.110  0.8416 -0.9908 -1.2688
 9559SOL     OW29918   0.591   1.081   1.172  0.1604 -0.1030  0.3315
 9559SOL    HW129919   0.594   0.987   1.191  1.1886  0.0953  1.2065
 9559SOL    HW229920   0.594   1.123   1.258 -0.2452  0.7376 -0.0581
 9560SOL     OW29921   6.123   7.929   7.791  0.3718  0.5374  0.2346
 9560SOL    HW129922   6.033   7.952   7.769  0.3845  1.5688  1.1682
 9560SOL    HW229923   6.127   7.938   7.887  0.5589 -2.8684  0.5964
 9561SOL     OW29924   7.604   2.050   4.022 -0.4326 -0.2438 -0.1280
 9561SOL    HW129925   7.638   2.057   4.111 -1.4080  1.9164  0.1135
 9561SOL    HW229926   7.663   2.106   3.970 -0.1435 -1.1301 -0.7608
 9562SOL     OW29927   0.713   6.743   5.034  0.1282 -0.5290 -0.2529
 9562SOL    HW129928   0.784   6.743   4.970 -1.2156  0.3699 -1.7761
 9562SOL    HW229929   0.730   6.665   5.088  2.5420 -0.0456 -0.2477
 9563SOL     OW29930   8.031   1.259   6.557 -0.7382  0.4122 -0.3822
 9563SOL    HW129931   8.016   1.182   6.612 -1.2623  0.9417  0.2431
 9563SOL    HW229932   8.030   1.332   6.619 -1.9810  1.0850 -1.1748
 9564SOL     OW29933   5.689   6.997   1.098  0.0121  0.1899  0.3644
 9564SOL    HW129934   5.762   7.046   1.060  0.5323 -0.5483  0.4050
 9564SOL    HW229935   5.727   6.955   1.176 -0.8545  1.0996  1.2824
 9565SOL     OW29936   1.908   4.648   7.174  0.3153  0.2448 -0.2524
 9565SOL    HW129937   1.828   4.689   7.139 -0.5947 -0.4862  0.9145
 9565SOL    HW229938   1.883   4.619   7.262  1.6020 -0.8475 -0.2306
 9566SOL     OW29939   5.257   7.528   1.249 -0.0786  0.0783  0.2167
 9566SOL    HW129940   5.337   7.533   1.197 -0.4686 -0.5801 -0.4600
 9566SOL    HW229941   5.198   7.592   1.209 -0.8202 -1.3029 -0.9490
 9567SOL     OW29942   3.562   4.415   1.758  0.0887  0.2592 -0.3529
 9567SOL    HW129943   3.559   4.381   1.668 -1.0880 -0.7357  0.0452
 9567SOL    HW229944   3.625   4.359   1.803  0.1769  0.3313 -0.3871
 9568SOL     OW29945   6.006   6.819   7.609 -0.4697  0.6771  0.1969
 9568SOL    HW129946   6.060   6.775   7.674 -1.9393  0.1089  1.0626
 9568SOL    HW229947   5.987   6.751   7.544 -3.0116 -0.1110  1.7024
 9569SOL     OW29948   1.014   3.945   6.932 -0.8001  0.1891  0.2519
 9569SOL    HW129949   1.021   3.979   6.843 -0.3179 -0.2772  0.1060
 9569SOL    HW229950   1.017   3.850   6.921 -1.5450  0.1079  0.6967
 9570SOL     OW29951   2.053   3.372   2.308 -0.0430  1.2239 -0.3848
 9570SOL    HW129952   2.143   3.404   2.306  0.6070 -0.5834 -3.6888
 9570SOL    HW229953   2.025   3.376   2.216 -1.6290 -2.8425 -0.1482
 9571SOL     OW29954   5.078   3.100   2.024 -0.7084  0.1464  0.6517
 9571SOL    HW129955   5.042   3.188   2.017  0.0765  0.3937 -0.3172
 9571SOL    HW229956   5.009   3.049   2.066 -1.4196  1.0749  0.6097
 9572SOL     OW29957   0.205   4.268   0.464 -0.0264  0.3209 -0.3994
 9572SOL    HW129958   0.219   4.177   0.441 -0.2286 -0.3313  1.9270
 9572SOL    HW229959   0.280   4.292   0.519 -1.0830  0.8577  0.8556
 9573SOL     OW29960   0.443   1.725   0.635  0.4172  0.3159  0.1111
 9573SOL    HW129961   0.526   1.772   0.648  0.9707 -1.0799  1.9006
 9573SOL    HW229962   0.376   1.788   0.661  0.9488  1.2365 -0.7016
 9574SOL     OW29963   8.072   6.365   1.058 -0.0177 -0.9378  0.0980
 9574SOL    HW129964   8.021   6.340   1.135 -2.2969 -1.3411 -1.5206
 9574SOL    HW229965   8.058   6.459   1.049 -2.0771 -1.3741 -1.4727
 9575SOL     OW29966   1.332   3.256   6.126  0.1163 -0.2083  0.1641
 9575SOL    HW129967   1.366   3.186   6.181  0.4266  0.1492  0.4331
 9575SOL    HW229968   1.259   3.216   6.079  0.9199 -0.9953 -0.4398
 9576SOL     OW29969   2.525   0.467   1.946  0.4052 -0.0482 -0.5316
 9576SOL    HW129970   2.589   0.442   2.012  0.0217 -0.7405 -0.4187
 9576SOL    HW229971   2.446   0.488   1.996 -0.0161 -0.9790 -0.7849
 9577SOL     OW29972   1.052   3.167   7.998 -0.4057  0.8249 -0.4138
 9577SOL    HW129973   1.068   3.074   7.988 -0.2659  0.9359 -1.3209
 9577SOL    HW229974   0.960   3.178   7.974 -1.1464  0.5641  2.1900
 9578SOL     OW29975   6.670   7.671   1.229 -0.2682  0.2657  0.0178
 9578SOL    HW129976   6.675   7.676   1.324 -0.7199  0.8207  0.0126
 9578SOL    HW229977   6.582   7.636   1.211 -0.5534  1.0863 -0.2201
 9579SOL     OW29978   2.036   7.935   1.221  0.6056 -0.2024  0.0154
 9579SOL    HW129979   2.100   7.988   1.268  0.2973  2.0548 -2.0138
 9579SOL    HW229980   2.038   7.969   1.132 -0.4315 -2.8944 -1.0838
 9580SOL     OW29981   6.230   8.109   2.770  0.2534  0.2747  0.4885
 9580SOL    HW129982   6.303   8.140   2.824  1.5053 -1.4309 -0.1894
 9580SOL    HW229983   6.239   8.014   2.769 -1.6884  0.0790 -0.0289
 9581SOL     OW29984   1.681   2.524   7.883  0.1394 -0.4929 -0.2656
 9581SOL    HW129985   1.759   2.570   7.916 -0.4031  1.4645 -1.6381
 9581SOL    HW229986   1.643   2.484   7.961 -0.0260  2.3971  1.2210
 9582SOL     OW29987   6.586   0.765   3.150 -0.7647 -0.3052 -0.0161
 9582SOL    HW129988   6.662   0.790   3.098 -0.7812  0.8107  0.4656
 9582SOL    HW229989   6.522   0.731   3.087 -0.1426 -0.5665 -0.5058
 9583SOL     OW29990   4.653   4.091   4.761  0.5579 -0.0014  0.0543
 9583SOL    HW129991   4.571   4.095   4.713 -0.4362  0.5472  1.7488
 9583SOL    HW229992   4.669   4.181   4.790  1.4508 -0.2042  0.2104
 9584SOL     OW29993   4.978   1.310   0.534  0.1364  0.1480 -0.5561
 9584SOL    HW129994   5.003   1.402   0.528 -0.0453  0.2498  0.1975
 9584SOL    HW229995   4.955   1.285   0.444  0.0188  0.8792 -0.7291
 9585SOL     OW29996   0.587   6.588   6.634 -0.3097 -0.0944 -0.4253
 9585SOL    HW129997   0.564   6.677   6.660 -0.1830 -0.3368  0.5401
 9585SOL    HW229998   0.609   6.544   6.716 -0.0444 -0.9207 -0.9329
 9586SOL     OW29999   4.709   4.382   7.049  0.1353 -0.5937  0.0861
 9586SOL    HW130000   4.786   4.341   7.090  1.0596  1.7488  0.7565
 9586SOL    HW230001   4.746   4.439   6.981 -1.1346 -0.9185 -0.8884
 9587SOL     OW30002   5.103   7.271   4.984  0.1298 -0.3512  0.2795
 9587SOL    HW130003   5.189   7.313   4.986 -0.0021 -0.0559 -0.1425
 9587SOL    HW230004   5.121   7.178   4.995  0.7525 -0.6418 -2.7366
 9588SOL     OW30005   3.319   5.040   6.897 -0.0644  0.1174 -0.2966
 9588SOL    HW130006   3.346   5.036   6.806  1.3961  0.7737  0.0897
 9588SOL    HW230007   3.227   5.014   6.896 -0.4663  1.4796 -2.1315
 9589SOL     OW30008   5.873   2.883   3.223  0.2824  0.3072 -0.7808
 9589SOL    HW130009   5.892   2.832   3.144  1.7067  1.2173 -1.0600
 9589SOL    HW230010   5.957   2.888   3.269 -0.1955  1.0571  0.0327
 9590SOL     OW30011   2.349   0.689   3.219  0.3069 -0.2680  0.3527
 9590SOL    HW130012   2.284   0.725   3.158  3.2377  0.9606 -2.1304
 9590SOL    HW230013   2.374   0.764   3.274 -1.1272 -1.0068  2.0923
 9591SOL     OW30014   6.508   3.144   2.682 -0.3518  0.4187  0.8124
 9591SOL    HW130015   6.442   3.090   2.725  0.0475 -1.9638 -1.4627
 9591SOL    HW230016   6.458   3.203   2.625 -0.6193 -0.0319  0.5793
 9592SOL     OW30017   5.759   4.856   1.896 -0.3107  0.1912 -0.2164
 9592SOL    HW130018   5.777   4.785   1.834 -1.5352 -0.6109  0.3125
 9592SOL    HW230019   5.681   4.899   1.861 -1.1034 -0.3633  0.8245
 9593SOL     OW30020   2.494   7.488   3.492  0.3521  0.1194  0.5024
 9593SOL    HW130021   2.449   7.451   3.568 -0.7241 -0.0860 -0.2252
 9593SOL    HW230022   2.550   7.416   3.460  0.5949  0.1177  0.9312
 9594SOL     OW30023   1.311   6.343   3.924  0.2109  0.4900  0.0176
 9594SOL    HW130024   1.307   6.314   3.833 -0.7277  0.8893 -0.0745
 9594SOL    HW230025   1.258   6.280   3.972 -2.7199  2.5785 -0.3451
 9595SOL     OW30026   1.417   3.086   7.345  0.1921 -0.5793 -0.1249
 9595SOL    HW130027   1.405   3.107   7.437 -0.5150 -1.5131  0.0018
 9595SOL    HW230028   1.445   3.168   7.305 -2.4761  0.6341  0.3625
 9596SOL     OW30029   3.738   1.765   6.341 -0.2566  0.5169 -0.3803
 9596SOL    HW130030   3.773   1.676   6.335  0.6084  0.8330 -0.0955
 9596SOL    HW230031   3.787   1.814   6.274 -1.5341  0.5256 -1.3311
 9597SOL     OW30032   3.512   4.172   8.267  0.3791  0.2827 -0.7689
 9597SOL    HW130033   3.519   4.207   8.178  0.0642 -1.0838 -1.3433
 9597SOL    HW230034   3.428   4.127   8.269  1.0193 -0.9064 -0.2186
 9598SOL     OW30035   6.719   0.262   3.927 -0.0449 -0.2230  0.0227
 9598SOL    HW130036   6.642   0.212   3.953 -0.1854 -0.5429 -0.9643
 9598SOL    HW230037   6.787   0.197   3.912  0.4044  0.0535  0.8285
 9599SOL     OW30038   5.887   6.176   4.267 -0.3449  0.6015  0.2417
 9599SOL    HW130039   5.856   6.117   4.198 -0.6346  1.9806 -0.8294
 9599SOL    HW230040   5.808   6.213   4.305 -0.1270  1.3769 -0.0519
 9600SOL     OW30041   7.039   3.908   2.360 -0.4952  0.4547 -0.0952
 9600SOL    HW130042   7.018   3.994   2.397  1.1724  1.1916 -0.7832
 9600SOL    HW230043   7.126   3.888   2.394  0.2293  0.2447 -2.0103
 9601SOL     OW30044   7.706   5.944   5.371  0.1208  0.2279 -0.0282
 9601SOL    HW130045   7.641   5.996   5.417 -0.2944  0.8889 -1.3472
 9601SOL    HW230046   7.783   5.947   5.427  0.0826  2.2035 -0.0538
 9602SOL     OW30047   4.737   0.423   6.290 -0.3722 -0.4468 -0.0970
 9602SOL    HW130048   4.761   0.501   6.242 -1.3257 -1.1598 -1.7921
 9602SOL    HW230049   4.807   0.361   6.272 -0.0185 -0.2454  0.5901
 9603SOL     OW30050   1.826   6.322   4.262 -0.1689  0.4048  0.7422
 9603SOL    HW130051   1.901   6.289   4.212  1.5792  2.0938  2.1747
 9603SOL    HW230052   1.797   6.247   4.314 -1.0322 -0.9366 -1.6048
 9604SOL     OW30053   0.695   8.009   0.482 -0.0920 -0.6948  0.0844
 9604SOL    HW130054   0.732   8.097   0.492 -0.5297 -0.3322 -1.3945
 9604SOL    HW230055   0.749   7.967   0.416 -0.2150 -1.3687  0.4044
 9605SOL     OW30056   8.290   8.074   0.502 -0.1326 -0.2673 -0.6366
 9605SOL    HW130057   8.231   8.005   0.532 -1.2683  0.7165 -0.5523
 9605SOL    HW230058   8.321   8.045   0.417  0.4826 -1.5179  0.0073
 9606SOL     OW30059   6.043   6.727   0.298  0.0959  0.2547 -0.0454
 9606SOL    HW130060   5.978   6.791   0.270  0.2855  0.1784 -0.6743
 9606SOL    HW230061   6.124   6.754   0.253  0.5058  0.3774  0.7623
 9607SOL     OW30062   2.696   6.223   1.819 -0.2969  0.0284  0.1151
 9607SOL    HW130063   2.627   6.238   1.885  0.4375  0.5821  0.7714
 9607SOL    HW230064   2.715   6.129   1.826 -1.2190 -0.2026 -0.3141
 9608SOL     OW30065   2.042   6.093   0.536 -0.3488  0.4230 -0.1009
 9608SOL    HW130066   2.008   6.120   0.450 -1.3402 -0.4661 -0.0081
 9608SOL    HW230067   2.084   6.008   0.520 -0.5142  0.2656  0.2788
 9609SOL     OW30068   6.538   6.755   7.025  0.4483  0.0251  0.0809
 9609SOL    HW130069   6.564   6.722   7.111  0.1061 -1.8460 -0.5100
 9609SOL    HW230070   6.479   6.688   6.991  0.6032  0.7434 -1.6399
 9610SOL     OW30071   5.262   5.381   6.585 -0.0626  0.2544 -0.0554
 9610SOL    HW130072   5.356   5.391   6.601  0.1773 -1.7231 -0.0690
 9610SOL    HW230073   5.255   5.373   6.490  0.0880 -2.3704  0.1189
 9611SOL     OW30074   0.153   2.597   5.727  0.0386  0.1556  0.1137
 9611SOL    HW130075   0.080   2.651   5.758 -0.9541 -1.4450  0.6509
 9611SOL    HW230076   0.203   2.576   5.806 -0.8176 -1.4864  0.2364
 9612SOL     OW30077   6.897   2.990   1.305  0.4774 -0.5771 -0.5018
 9612SOL    HW130078   6.940   2.922   1.252  2.7080 -0.3697  0.9778
 9612SOL    HW230079   6.910   2.961   1.395  0.5213  1.2723  0.0972
 9613SOL     OW30080   1.895   6.164   5.472  0.5380  0.1911  0.1737
 9613SOL    HW130081   1.895   6.202   5.561  0.2682  2.2739 -0.6864
 9613SOL    HW230082   1.896   6.240   5.414  3.3373 -1.1321 -1.6309
 9614SOL     OW30083   0.778   6.704   2.737  0.0916  0.4711  0.3792
 9614SOL    HW130084   0.747   6.781   2.784  2.7287  0.8717  1.5388
 9614SOL    HW230085   0.813   6.647   2.805 -0.9359 -1.3339 -0.5773
 9615SOL     OW30086   5.803   2.940   1.278  0.0990  0.4319  0.8527
 9615SOL    HW130087   5.852   2.955   1.359 -0.4462  1.8513  0.9313
 9615SOL    HW230088   5.870   2.923   1.212  0.4941 -2.3176  1.8970
 9616SOL     OW30089   8.122   2.968   2.321 -0.0981  0.0897 -0.6438
 9616SOL    HW130090   8.063   2.990   2.249  0.1632 -0.4445 -1.0216
 9616SOL    HW230091   8.083   2.890   2.362 -0.2855  0.4324 -0.1599
 9617SOL     OW30092   3.361   6.856   5.604  0.0588 -0.0051 -0.6019
 9617SOL    HW130093   3.267   6.863   5.622 -0.5430  0.0331 -3.4254
 9617SOL    HW230094   3.389   6.778   5.652 -1.4810 -0.1492  0.0939
 9618SOL     OW30095   7.271   2.399   6.148  0.1508  0.3879  0.4584
 9618SOL    HW130096   7.187   2.437   6.124 -0.6350 -1.2173  0.5932
 9618SOL    HW230097   7.324   2.407   6.069 -0.7962 -0.3789 -0.2706
 9619SOL     OW30098   4.050   3.824   6.313  0.1689  0.0917 -0.0899
 9619SOL    HW130099   4.061   3.854   6.403 -0.3704  0.3855 -0.1175
 9619SOL    HW230100   4.135   3.786   6.289  0.6916  1.1016  0.1350
 9620SOL     OW30101   0.298   3.870   0.192 -0.8538  0.1462 -0.8075
 9620SOL    HW130102   0.352   3.792   0.207 -0.1005  1.0480  1.3597
 9620SOL    HW230103   0.322   3.898   0.104  2.0932  0.3721 -0.0066
 9621SOL     OW30104   0.481   0.485   0.114 -0.2638 -0.1413  0.1343
 9621SOL    HW130105   0.386   0.493   0.108 -0.2247  0.5884  0.5595
 9621SOL    HW230106   0.514   0.574   0.104  0.4311 -0.5005 -0.9321
 9622SOL     OW30107   3.198   6.105   3.100 -0.2199 -0.1201  0.3401
 9622SOL    HW130108   3.220   6.012   3.096 -0.4181 -0.2118  1.2397
 9622SOL    HW230109   3.158   6.124   3.015 -0.1150 -0.8425  0.1260
 9623SOL     OW30110   4.048   7.271   0.164  0.0115  0.3987 -0.5180
 9623SOL    HW130111   4.091   7.208   0.106  0.1665  1.2377 -1.3257
 9623SOL    HW230112   3.987   7.218   0.216  0.6524 -0.5191 -0.6917
 9624SOL     OW30113   0.327   4.721   2.048  0.7002  0.3179 -0.0218
 9624SOL    HW130114   0.292   4.786   1.988  1.7232  0.6622 -0.2648
 9624SOL    HW230115   0.265   4.648   2.045 -0.5524  1.3580  0.3887
 9625SOL     OW30116   6.170   1.089   1.028  0.4314  0.0286 -0.5310
 9625SOL    HW130117   6.229   1.109   1.100  1.5477  0.7310 -1.6342
 9625SOL    HW230118   6.182   0.995   1.014 -1.5369 -0.6172  1.7176
 9626SOL     OW30119   0.016   4.265   5.171  0.5741  0.0372 -0.5012
 9626SOL    HW130120   0.005   4.216   5.089  0.5149 -0.3634 -0.2518
 9626SOL    HW230121   0.040   4.354   5.142 -0.1206  0.0808 -0.9761
 9627SOL     OW30122   2.007   6.564   2.967  0.1198 -0.1448  0.0089
 9627SOL    HW130123   2.013   6.600   2.879 -1.6840 -0.7404 -0.3935
 9627SOL    HW230124   2.019   6.639   3.025  3.1744 -0.0543 -0.6921
 9628SOL     OW30125   7.492   2.929   0.040 -0.4166  0.3938 -0.2657
 9628SOL    HW130126   7.450   2.949  -0.043 -1.2994 -0.2356  0.0229
 9628SOL    HW230127   7.421   2.897   0.096  0.5294 -1.2336  0.0472
 9629SOL     OW30128   6.056   6.190   4.616  0.8560  0.4647  0.2672
 9629SOL    HW130129   6.116   6.116   4.632  0.8523  0.7296  1.6242
 9629SOL    HW230130   6.096   6.263   4.662 -1.1614  0.3254  2.3524
 9630SOL     OW30131   7.820   2.015   6.238  0.3612  0.0349 -0.1076
 9630SOL    HW130132   7.741   2.048   6.281 -0.1845  1.5303 -2.1725
 9630SOL    HW230133   7.889   2.075   6.265  0.6665 -0.8322  1.0957
 9631SOL     OW30134   5.301   1.208   2.870 -0.0198 -0.3922 -0.6111
 9631SOL    HW130135   5.251   1.268   2.815  0.9655  0.0081 -1.0902
 9631SOL    HW230136   5.259   1.213   2.956 -1.7270 -1.2057 -1.3712
 9632SOL     OW30137   4.175   4.859   3.392  0.7429 -0.0365 -0.4440
 9632SOL    HW130138   4.174   4.912   3.313 -1.3297 -1.8664 -1.6907
 9632SOL    HW230139   4.112   4.902   3.450  0.4508 -0.0755 -0.7316
 9633SOL     OW30140   1.997   2.796   0.089 -0.2910 -0.5615  0.6674
 9633SOL    HW130141   1.952   2.721   0.052 -0.9348  1.0732 -2.0295
 9633SOL    HW230142   1.929   2.846   0.134 -0.5701  0.1509 -0.5064
 9634SOL     OW30143   5.997   4.462   6.935  0.3104 -0.0878  0.0143
 9634SOL    HW130144   6.015   4.403   7.007  0.5799 -2.1671 -1.7090
 9634SOL    HW230145   6.082   4.475   6.893 -0.1174 -0.2265 -0.9087
 9635SOL     OW30146   6.120   2.592   3.411 -0.0267 -0.2620  0.3614
 9635SOL    HW130147   6.214   2.577   3.425 -0.1879  0.6273  2.4708
 9635SOL    HW230148   6.077   2.539   3.478 -0.9404  1.2266  0.9676
 9636SOL     OW30149   6.054   4.263   0.186  0.1433  0.2623  0.0370
 9636SOL    HW130150   5.979   4.261   0.246  1.0840  0.3214  1.2372
 9636SOL    HW230151   6.120   4.314   0.232  1.4608 -1.0541 -0.3411
 9637SOL     OW30152   5.854   6.219   6.022  0.3419  0.1331  0.0542
 9637SOL    HW130153   5.932   6.177   6.058  0.3229 -2.7290 -2.9922
 9637SOL    HW230154   5.811   6.150   5.971 -2.1599  2.6826 -1.4458
 9638SOL     OW30155   2.767   0.623   5.028  0.0264  0.3653 -0.6313
 9638SOL    HW130156   2.686   0.674   5.035  0.0436  0.4210 -0.8232
 9638SOL    HW230157   2.830   0.671   5.081 -0.4855 -0.5402  0.8101
 9639SOL     OW30158   3.056   0.769   4.149  0.0754 -0.0938  0.0535
 9639SOL    HW130159   3.093   0.693   4.105  1.0956  0.0906  0.5659
 9639SOL    HW230160   3.018   0.735   4.230 -0.5173 -0.2275 -0.2829
 9640SOL     OW30161   2.570   4.809   2.608  0.0693  0.2135  0.1741
 9640SOL    HW130162   2.487   4.839   2.644 -0.7201 -0.0422 -1.3886
 9640SOL    HW230163   2.636   4.841   2.669 -1.1748  0.4430  1.4148
 9641SOL     OW30164   1.014   3.589   8.204  0.3095  0.4184 -0.3668
 9641SOL    HW130165   0.931   3.564   8.163 -0.6241  0.4919  1.4091
 9641SOL    HW230166   1.000   3.680   8.231  1.0131  0.4606 -0.1317
 9642SOL     OW30167   6.118   1.004   0.728  0.0483  0.0533  0.0564
 9642SOL    HW130168   6.104   1.065   0.800 -0.7645 -0.3916  0.2739
 9642SOL    HW230169   6.208   0.973   0.741  0.7024  1.7069 -0.4443
 9643SOL     OW30170   1.615   2.417   1.847  0.5946  0.3836 -0.0016
 9643SOL    HW130171   1.650   2.358   1.780  1.1010  0.2562  0.3791
 9643SOL    HW230172   1.663   2.499   1.834 -0.8742  1.0657 -1.2419
 9644SOL     OW30173   5.325   2.390   3.239  0.1228  0.3012 -0.3825
 9644SOL    HW130174   5.329   2.300   3.206  1.7119 -0.2557  1.2377
 9644SOL    HW230175   5.240   2.395   3.283  0.5866 -0.8650  0.7009
 9645SOL     OW30176   2.390   7.190   3.301 -0.1952  0.3892  0.1672
 9645SOL    HW130177   2.472   7.150   3.272 -0.2706 -0.4423  1.1149
 9645SOL    HW230178   2.373   7.152   3.387 -2.2500 -0.4122 -0.5629
 9646SOL     OW30179   4.140   3.894   4.821 -0.2110 -0.2848 -0.0209
 9646SOL    HW130180   4.154   3.987   4.804 -0.4716 -0.5281 -1.5889
 9646SOL    HW230181   4.114   3.857   4.737 -4.6671 -0.9418  1.5256
 9647SOL     OW30182   1.635   2.508   4.309  0.2351 -0.4208 -0.0638
 9647SOL    HW130183   1.622   2.414   4.291  0.0004 -0.3789 -0.1085
 9647SOL    HW230184   1.610   2.519   4.400 -1.0301 -0.1483 -0.4354
 9648SOL     OW30185   0.772   5.716   7.146 -0.0709  0.0224 -0.5516
 9648SOL    HW130186   0.858   5.747   7.116 -0.0451  1.1962  0.6782
 9648SOL    HW230187   0.754   5.768   7.224 -0.4742 -2.4493  1.0444
 9649SOL     OW30188   3.428   1.979   5.227 -0.5059 -0.1559 -0.1160
 9649SOL    HW130189   3.421   1.901   5.282  1.7173 -0.5504 -0.3530
 9649SOL    HW230190   3.347   2.027   5.243 -1.4540 -2.0195  0.7947
 9650SOL     OW30191   1.616   8.280   1.934 -0.1163 -0.5951 -0.3419
 9650SOL    HW130192   1.582   8.363   1.901  1.3798  0.3516  0.4589
 9650SOL    HW230193   1.710   8.283   1.914  0.3130 -1.1848  1.5385
 9651SOL     OW30194   3.879   1.320   5.882 -0.4030  0.0371 -0.1001
 9651SOL    HW130195   3.905   1.246   5.936  2.2592  1.8168  1.1068
 9651SOL    HW230196   3.901   1.293   5.793 -2.1810 -1.7548 -0.0487
 9652SOL     OW30197   5.482   6.317   2.041  1.1370  0.3703 -0.6328
 9652SOL    HW130198   5.388   6.332   2.029  1.2155  0.6131 -0.9638
 9652SOL    HW230199   5.505   6.253   1.974  0.9697 -0.6090  0.2380
 9653SOL     OW30200   7.023   0.843   6.837  0.5368  0.0199  0.0199
 9653SOL    HW130201   7.071   0.791   6.772 -0.4010  0.2400 -0.8682
 9653SOL    HW230202   7.027   0.791   6.917  1.9421 -0.1270 -0.1423
 9654SOL     OW30203   0.029   1.222   6.539  0.4820 -0.2753  0.0616
 9654SOL    HW130204  -0.061   1.250   6.559 -0.1415 -2.8055  1.0287
 9654SOL    HW230205   0.017   1.143   6.486  2.1343 -1.1664  0.9864
 9655SOL     OW30206   5.203   2.864   1.892 -0.2726 -0.3809  0.0831
 9655SOL    HW130207   5.181   2.934   1.954 -0.2570  0.1593 -0.5241
 9655SOL    HW230208   5.181   2.900   1.806  1.0228 -0.6066 -0.3459
 9656SOL     OW30209   0.015   2.652   5.369  0.1438  0.4265 -0.3246
 9656SOL    HW130210  -0.019   2.735   5.338 -0.8164 -0.0301 -0.5136
 9656SOL    HW230211   0.106   2.670   5.393  0.1757  1.3314 -1.1366
 9657SOL     OW30212   1.662   6.042   4.928 -0.1407 -0.1143  0.5084
 9657SOL    HW130213   1.660   6.138   4.935  0.9039 -0.1401  1.1216
 9657SOL    HW230214   1.740   6.015   4.976  0.9463 -1.0936 -1.7209
 9658SOL     OW30215   7.295   6.669   1.556  0.5162  0.1351  0.0582
 9658SOL    HW130216   7.354   6.631   1.491 -0.2412 -2.1023  0.6439
 9658SOL    HW230217   7.267   6.595   1.609 -0.7657  1.5769  1.4365
 9659SOL     OW30218   1.601   4.262   2.899 -0.4156 -0.4957  0.2335
 9659SOL    HW130219   1.576   4.313   2.976 -0.6384  0.4122 -0.4222
 9659SOL    HW230220   1.535   4.284   2.833  1.1004  0.6254 -0.9738
 9660SOL     OW30221   3.554   4.902   2.754 -0.3771 -0.2821  0.3758
 9660SOL    HW130222   3.516   4.829   2.803  0.8202 -0.3888  1.1494
 9660SOL    HW230223   3.480   4.960   2.737 -0.9175 -0.5488  1.7768
 9661SOL     OW30224   8.273   3.570   6.932 -0.1676  0.0745  0.7000
 9661SOL    HW130225   8.336   3.507   6.968 -0.0114  0.2510  0.7306
 9661SOL    HW230226   8.248   3.533   6.848  0.1789  0.1422  0.5697
 9662SOL     OW30227   2.059   3.265   6.611 -0.0543  0.0001 -0.5026
 9662SOL    HW130228   2.002   3.298   6.680 -0.5610 -0.5117 -0.6629
 9662SOL    HW230229   2.095   3.343   6.570 -1.1500  0.3573 -0.8106
 9663SOL     OW30230   0.829   2.766   0.947 -0.0514 -0.1185  0.1563
 9663SOL    HW130231   0.782   2.833   0.997 -0.1377  0.0954 -0.2097
 9663SOL    HW230232   0.864   2.706   1.014  1.5143  1.2528  0.5975
 9664SOL     OW30233   7.590   5.150   4.781 -0.2835  0.7584  0.6121
 9664SOL    HW130234   7.645   5.188   4.851 -0.1828  0.5497  0.6474
 9664SOL    HW230235   7.504   5.138   4.822  0.2302 -0.9559  1.2224
 9665SOL     OW30236   0.904   1.681   2.021  0.0934 -0.4076 -0.3836
 9665SOL    HW130237   0.868   1.764   2.053 -0.0817 -1.4151  2.1579
 9665SOL    HW230238   0.828   1.622   2.016  0.6933 -1.2989  0.8205
 9666SOL     OW30239   7.839   5.955   2.762  0.1471 -0.2151  0.5195
 9666SOL    HW130240   7.881   6.012   2.698 -0.0671  0.9470  1.4060
 9666SOL    HW230241   7.841   6.004   2.844 -1.4009 -0.8522  0.9608
 9667SOL     OW30242   5.104   6.752   5.025  0.0548 -0.0965 -0.1631
 9667SOL    HW130243   5.144   6.768   5.111  0.3989  1.1989 -0.5583
 9667SOL    HW230244   5.027   6.808   5.024  0.5969  0.6568 -1.0824
 9668SOL     OW30245   1.992   4.863   0.968  0.1888  0.1649 -0.5011
 9668SOL    HW130246   1.989   4.921   1.044  0.4397  0.7719 -0.9553
 9668SOL    HW230247   1.937   4.789   0.993  1.5363 -0.3821  0.8775
 9669SOL     OW30248   5.426   3.162   6.415  0.3958 -0.5269 -0.3685
 9669SOL    HW130249   5.459   3.113   6.340  1.1168  1.3224 -1.2867
 9669SOL    HW230250   5.356   3.107   6.451  1.1985 -2.2136 -1.3454
 9670SOL     OW30251   7.256   3.956   3.836  0.2509 -0.5324  0.5908
 9670SOL    HW130252   7.347   3.984   3.826 -0.1471  0.5439 -0.0440
 9670SOL    HW230253   7.207   4.013   3.778 -0.7795 -1.4356  0.5662
 9671SOL     OW30254   4.649   5.681   1.797  0.3261 -0.3575  0.0796
 9671SOL    HW130255   4.592   5.669   1.721  0.7952 -0.8731 -0.1922
 9671SOL    HW230256   4.600   5.642   1.869  0.9897 -2.1860 -0.4359
 9672SOL     OW30257   4.167   2.687   8.194 -0.1100  0.3588  0.0434
 9672SOL    HW130258   4.190   2.634   8.270  1.6660 -0.1580 -0.8354
 9672SOL    HW230259   4.138   2.770   8.231 -0.8171 -0.4344  1.3357
 9673SOL     OW30260   6.263   5.828   2.081 -0.5985 -0.1588 -0.1862
 9673SOL    HW130261   6.344   5.867   2.111 -0.3904 -0.9399  0.2884
 9673SOL    HW230262   6.287   5.782   2.000 -0.2828 -1.4534  0.6254
 9674SOL     OW30263   6.124   7.407   1.661  0.7099 -0.4625 -0.2801
 9674SOL    HW130264   6.061   7.471   1.694 -0.0516 -1.5951  0.4741
 9674SOL    HW230265   6.074   7.352   1.601  1.3050 -0.5152 -0.7325
 9675SOL     OW30266   5.133   3.444   7.240  0.1414 -0.0532  0.1961
 9675SOL    HW130267   5.054   3.389   7.231  0.1516 -0.2434  1.1862
 9675SOL    HW230268   5.100   3.527   7.274  0.0730  0.7228 -1.7083
 9676SOL     OW30269   1.263   2.129   4.133 -0.0250  0.0763 -0.9242
 9676SOL    HW130270   1.266   2.220   4.105  1.2177  0.0547 -0.8875
 9676SOL    HW230271   1.181   2.122   4.182 -0.8978  0.7767 -2.2517
 9677SOL     OW30272   1.175   0.694   0.872  0.0146  0.0309  0.1648
 9677SOL    HW130273   1.120   0.767   0.901  0.8096  1.1403 -1.0528
 9677SOL    HW230274   1.256   0.735   0.843  0.3985 -1.3188 -0.7416
 9678SOL     OW30275   1.690   0.464   2.053  0.2450  0.0055 -0.7536
 9678SOL    HW130276   1.756   0.449   2.121  0.6418 -0.2962 -1.2066
 9678SOL    HW230277   1.607   0.448   2.097  0.5062 -0.2619 -0.3521
 9679SOL     OW30278   2.081   1.855   3.328  0.3065 -0.0737 -0.3130
 9679SOL    HW130279   2.136   1.875   3.404  2.3280  0.2103 -1.8313
 9679SOL    HW230280   1.991   1.864   3.361  1.1458 -0.4046  2.1524
 9680SOL     OW30281   1.027   5.067   5.195  0.0906 -0.2815 -0.0726
 9680SOL    HW130282   1.109   5.086   5.242 -0.4542 -0.9761  1.1711
 9680SOL    HW230283   1.049   5.080   5.103  1.6773 -0.6959  0.2297
 9681SOL     OW30284   4.181   8.062   2.349  0.2457  0.2059 -0.0850
 9681SOL    HW130285   4.137   8.086   2.431  0.0539  0.5403 -0.2860
 9681SOL    HW230286   4.111   8.034   2.291  0.3684  0.0855 -0.1742
 9682SOL     OW30287   4.536   3.648   7.978 -0.0736 -0.5954 -0.2979
 9682SOL    HW130288   4.493   3.606   7.904 -1.1973 -1.8192  1.0058
 9682SOL    HW230289   4.556   3.576   8.038  2.2491  0.1694 -0.0802
 9683SOL     OW30290   5.852   2.685   6.826  0.1813 -0.3874 -0.2446
 9683SOL    HW130291   5.881   2.764   6.871  1.3145 -0.4344 -0.8674
 9683SOL    HW230292   5.767   2.664   6.866  0.9630 -0.1986  1.5958
 9684SOL     OW30293   0.837   8.033   4.474  0.2878  0.3183 -0.3561
 9684SOL    HW130294   0.790   8.012   4.555  0.7261 -2.6357 -0.8177
 9684SOL    HW230295   0.930   8.031   4.499  0.3721  0.6984 -0.6366
 9685SOL     OW30296   5.939   2.194   7.726  0.6369 -0.9950  0.5431
 9685SOL    HW130297   5.977   2.215   7.642  2.6641 -1.2406  1.3799
 9685SOL    HW230298   6.004   2.222   7.790 -2.4148  2.6922  2.2393
 9686SOL     OW30299   2.878   6.942   3.415  0.2207  0.1946  0.7363
 9686SOL    HW130300   2.905   6.850   3.403 -1.6354 -0.1787 -0.9522
 9686SOL    HW230301   2.807   6.937   3.479 -1.3446  0.1620 -0.9645
 9687SOL     OW30302   4.602   2.350   3.525  0.1919  0.0372  0.0095
 9687SOL    HW130303   4.523   2.298   3.523  0.5883 -0.5552 -0.3552
 9687SOL    HW230304   4.626   2.356   3.618 -1.2368  1.6918  0.2993
 9688SOL     OW30305   4.003   2.422   1.324  0.0959  0.0373 -0.8560
 9688SOL    HW130306   4.083   2.464   1.292  0.2315 -0.7754 -1.6081
 9688SOL    HW230307   3.949   2.413   1.246  0.1974 -1.4590 -0.7552
 9689SOL     OW30308   3.123   6.971   4.993  0.0531 -0.5186  0.2632
 9689SOL    HW130309   3.112   6.983   4.898 -0.7357  0.2588  0.4538
 9689SOL    HW230310   3.206   7.014   5.013 -0.4245  0.4678  0.1459
 9690SOL     OW30311   0.138   4.930   6.028  0.1536 -0.4576 -0.1040
 9690SOL    HW130312   0.198   4.922   5.953 -2.5376  0.8295 -2.4819
 9690SOL    HW230313   0.129   5.025   6.040 -2.0366 -0.6310 -0.3222
 9691SOL     OW30314   3.554   4.635   2.835  0.0572 -0.3259 -0.2514
 9691SOL    HW130315   3.507   4.614   2.916 -0.2203 -1.1878 -0.6302
 9691SOL    HW230316   3.576   4.550   2.797  0.8804  0.0731 -0.6843
 9692SOL     OW30317   2.564   3.734   5.125 -0.1211 -0.0143 -0.2396
 9692SOL    HW130318   2.586   3.789   5.050  0.5821  0.5722  0.3812
 9692SOL    HW230319   2.474   3.756   5.146  0.1700  0.9228  0.0249
 9693SOL     OW30320   0.031   6.385   4.669  0.2378  0.0402 -0.1096
 9693SOL    HW130321   0.073   6.395   4.584  1.3658  0.7088  0.5077
 9693SOL    HW230322   0.013   6.474   4.698  0.6492 -0.1393  0.7315
 9694SOL     OW30323   4.916   6.004   3.680  0.5188  0.1629  0.0261
 9694SOL    HW130324   4.911   6.052   3.597 -0.4262 -1.2211 -0.7375
 9694SOL    HW230325   4.961   5.922   3.658  0.1262 -0.2823  0.8451
 9695SOL     OW30326   3.120   8.059   5.263 -0.1693  0.6051 -0.0793
 9695SOL    HW130327   3.155   8.130   5.318  1.0141  0.1113 -0.1806
 9695SOL    HW230328   3.124   8.094   5.174  1.9019 -0.1502 -0.3086
 9696SOL     OW30329   1.366   1.201   1.881 -0.5812 -0.4900 -0.2669
 9696SOL    HW130330   1.384   1.120   1.929 -4.2801 -0.4814  1.2926
 9696SOL    HW230331   1.297   1.177   1.819 -1.5231  1.3888  0.0271
 9697SOL     OW30332   4.869   3.506   8.221  0.5911 -0.0382  0.3965
 9697SOL    HW130333   4.957   3.515   8.257  0.4310 -0.7020  0.9685
 9697SOL    HW230334   4.874   3.429   8.164  0.9134  1.1578 -1.2386
 9698SOL     OW30335   7.691   6.546   2.150 -1.2366 -0.9186 -0.0626
 9698SOL    HW130336   7.761   6.561   2.215 -1.8129 -1.8501  0.7803
 9698SOL    HW230337   7.691   6.626   2.097  0.3236 -0.8119  0.0683
 9699SOL     OW30338   4.610   7.757   5.206  0.8303  0.5448 -0.1310
 9699SOL    HW130339   4.676   7.826   5.216  1.9369 -0.6172  0.5829
 9699SOL    HW230340   4.601   7.719   5.293  0.3035 -0.3129 -0.5550
 9700SOL     OW30341   1.017   6.123   5.478  0.0788  0.0920 -0.2876
 9700SOL    HW130342   0.941   6.095   5.427  0.4142 -0.5739 -0.4316
 9700SOL    HW230343   1.022   6.058   5.549  0.2349  0.4076 -0.0114
 9701SOL     OW30344   2.336   5.471   1.272  0.5793 -0.1111 -0.1354
 9701SOL    HW130345   2.406   5.511   1.220  0.7797 -1.1319 -0.6640
 9701SOL    HW230346   2.306   5.541   1.330  0.9972  0.7676 -0.9716
 9702SOL     OW30347   1.572   0.752   1.297  0.1391  0.5823  0.1303
 9702SOL    HW130348   1.570   0.715   1.386 -1.0747  0.6484  0.1373
 9702SOL    HW230349   1.652   0.716   1.258  0.1335 -0.2872  0.8977
 9703SOL     OW30350   1.902   4.718   4.251 -0.3473 -0.4439  0.2021
 9703SOL    HW130351   1.991   4.707   4.287 -0.4273  0.5315  0.7103
 9703SOL    HW230352   1.868   4.795   4.296 -0.8809  0.1107 -1.1413
 9704SOL     OW30353   5.702   6.457   5.228 -0.9338  0.5538  0.1910
 9704SOL    HW130354   5.653   6.384   5.266 -2.0873  2.2818  2.1090
 9704SOL    HW230355   5.642   6.498   5.167 -1.7175  2.2267  2.0051
 9705SOL     OW30356   1.053   3.635   0.260  0.6412 -0.5055 -0.0801
 9705SOL    HW130357   1.007   3.718   0.262  0.4106 -0.6396  0.1921
 9705SOL    HW230358   1.140   3.656   0.227  1.0357  0.0521  1.3282
 9706SOL     OW30359   4.790   3.401   5.812 -0.0818 -0.2600 -0.4780
 9706SOL    HW130360   4.714   3.403   5.870 -0.2013  0.0704 -0.6451
 9706SOL    HW230361   4.865   3.410   5.871 -0.1195 -1.6248 -0.2142
 9707SOL     OW30362   5.014   0.418   2.850 -0.1236 -0.3328 -0.7128
 9707SOL    HW130363   5.084   0.482   2.839 -0.8923  0.6917  0.3206
 9707SOL    HW230364   4.934   0.470   2.854 -1.0669 -1.5475 -2.7175
 9708SOL     OW30365   6.806   4.653   8.018  0.2606 -0.3831  0.8614
 9708SOL    HW130366   6.846   4.679   7.935 -0.0320 -0.6110  0.6485
 9708SOL    HW230367   6.765   4.568   8.000  1.4942 -1.1486  1.6450
 9709SOL     OW30368   4.685   1.255   2.831 -0.3428 -0.1826 -1.1641
 9709SOL    HW130369   4.700   1.305   2.751 -0.6645  0.5936 -0.7451
 9709SOL    HW230370   4.590   1.245   2.837 -0.2597 -1.2023 -1.4590
 9710SOL     OW30371   0.165   1.116   6.914  0.1962 -0.3176  0.1490
 9710SOL    HW130372   0.148   1.195   6.862  0.3183 -0.5730 -0.2879
 9710SOL    HW230373   0.166   1.146   7.004 -0.8804 -0.0140  0.0657
 9711SOL     OW30374   3.586   3.190   4.666 -0.6407 -0.2459 -0.5243
 9711SOL    HW130375   3.518   3.248   4.700  0.3387  1.1347 -0.8701
 9711SOL    HW230376   3.550   3.154   4.585 -0.0514  2.3746 -2.0108
 9712SOL     OW30377   7.437   6.531   4.734 -0.3924  0.0839  0.2101
 9712SOL    HW130378   7.517   6.514   4.784 -0.4708  0.3661  0.4287
 9712SOL    HW230379   7.434   6.460   4.670 -0.1815 -0.1598  0.4686
 9713SOL     OW30380   4.710   4.539   6.066 -0.5854 -0.5458  0.2737
 9713SOL    HW130381   4.662   4.567   5.988 -0.0034  0.1075  0.1477
 9713SOL    HW230382   4.798   4.574   6.054 -0.1922 -1.3762  0.7107
 9714SOL     OW30383   2.119   1.879   4.243  0.5511 -0.1448  0.1916
 9714SOL    HW130384   2.055   1.809   4.257  1.6415 -0.9253  1.4310
 9714SOL    HW230385   2.191   1.837   4.196  1.3806  0.0219  1.2866
 9715SOL     OW30386   7.558   7.367   3.620 -0.6607 -0.1730  0.1977
 9715SOL    HW130387   7.598   7.427   3.681  0.0766 -0.5195  0.0605
 9715SOL    HW230388   7.494   7.420   3.572 -0.5549  0.3150  0.5977
 9716SOL     OW30389   1.629   1.696   5.341 -0.3820  0.3572 -0.4376
 9716SOL    HW130390   1.556   1.710   5.402 -0.7956  0.0033 -0.8420
 9716SOL    HW230391   1.612   1.609   5.304  0.4142  0.1441 -0.3102
 9717SOL     OW30392   4.955   4.912   0.929  0.1876 -0.7006 -0.5133
 9717SOL    HW130393   4.882   4.850   0.934  1.1750 -1.8245  0.2041
 9717SOL    HW230394   4.953   4.958   1.013 -0.3731  0.0467 -0.9347
 9718SOL     OW30395   2.970   3.986   5.144  0.3002 -0.4741 -0.1233
 9718SOL    HW130396   2.930   3.902   5.163 -0.3394  0.0298  0.7886
 9718SOL    HW230397   2.968   4.033   5.227 -0.1236  0.7679 -0.8239
 9719SOL     OW30398   8.282   2.062   1.969 -0.7559 -0.2176  0.3351
 9719SOL    HW130399   8.264   2.156   1.967  0.3445 -0.0064  0.2566
 9719SOL    HW230400   8.356   2.052   2.029 -1.4437 -1.1376  1.0562
 9720SOL     OW30401   0.333   3.391   0.582  0.3539 -0.3040  0.1506
 9720SOL    HW130402   0.280   3.458   0.626  2.1549  0.4194  1.2818
 9720SOL    HW230403   0.295   3.308   0.611  0.7865  0.1871  2.2087
 9721SOL     OW30404   5.400   2.916   5.468  0.0602  0.4819 -0.5427
 9721SOL    HW130405   5.305   2.927   5.481 -0.1933  0.8135 -2.5595
 9721SOL    HW230406   5.412   2.821   5.462  0.3189  0.2338  2.7746
 9722SOL     OW30407   8.044   2.231   6.679  0.0959  0.6110  0.7804
 9722SOL    HW130408   8.027   2.317   6.641  0.6017  0.5453  0.3983
 9722SOL    HW230409   8.086   2.250   6.763 -0.7498  0.7530  1.1698
 9723SOL     OW30410   3.601   4.159   0.646  0.0290  0.4336  0.0108
 9723SOL    HW130411   3.622   4.077   0.691  1.2916  0.8058  0.1258
 9723SOL    HW230412   3.647   4.153   0.562 -2.4344 -0.3175 -1.3049
 9724SOL     OW30413   1.061   4.068   4.319 -0.3541 -0.1261  0.6992
 9724SOL    HW130414   1.116   4.031   4.250 -0.1106 -0.1260  0.8911
 9724SOL    HW230415   1.107   4.046   4.400 -0.4669  0.1576  0.8422
 9725SOL     OW30416   6.283   1.537   0.005  0.5682 -0.0092  0.0537
 9725SOL    HW130417   6.318   1.452  -0.024  1.6181  0.7026 -0.7857
 9725SOL    HW230418   6.273   1.527   0.100  0.4496 -1.1500 -0.0639
 9726SOL     OW30419   1.468   4.126   4.062  0.6669 -0.0234  0.5911
 9726SOL    HW130420   1.438   4.168   3.982 -1.8260 -1.2137  0.8564
 9726SOL    HW230421   1.513   4.195   4.110 -1.6281  1.8604  0.1285
 9727SOL     OW30422   5.718   5.844   3.514  0.0767 -0.3578 -0.1488
 9727SOL    HW130423   5.779   5.775   3.489 -3.0495 -2.7666 -1.4812
 9727SOL    HW230424   5.715   5.902   3.438 -1.8582 -2.1552 -1.4857
 9728SOL     OW30425   7.551   7.364   0.299 -0.0909 -0.5645 -0.2696
 9728SOL    HW130426   7.595   7.449   0.288 -1.9132  0.5284  0.5898
 9728SOL    HW230427   7.543   7.353   0.393 -1.1901 -0.9910 -0.4101
 9729SOL     OW30428   1.212   4.859   3.978  0.2126 -0.1369 -0.3309
 9729SOL    HW130429   1.141   4.920   3.998 -0.5767 -0.9062 -0.7302
 9729SOL    HW230430   1.182   4.813   3.900  1.7905  0.5217 -1.3378
 9730SOL     OW30431   7.479   3.401   7.825 -0.2138  0.0566 -0.8121
 9730SOL    HW130432   7.547   3.335   7.836  0.3792  0.5617 -1.4607
 9730SOL    HW230433   7.520   3.483   7.852 -1.5129 -0.0921  1.7982
 9731SOL     OW30434   2.537   5.072   5.523  0.0314  0.2997  0.1397
 9731SOL    HW130435   2.541   5.021   5.604 -1.6744  1.4876  1.0039
 9731SOL    HW230436   2.570   5.013   5.455  0.4685 -1.0740  1.5243
 9732SOL     OW30437   3.024   2.462   5.522 -0.0058 -0.4178 -0.0374
 9732SOL    HW130438   2.961   2.396   5.551 -0.9851  0.5354  0.0039
 9732SOL    HW230439   3.077   2.480   5.600 -0.6915 -0.0763  0.3550
 9733SOL     OW30440   7.146   5.190   4.132  0.5441  0.7188  0.1455
 9733SOL    HW130441   7.129   5.242   4.053  0.6259  0.3404 -0.1237
 9733SOL    HW230442   7.137   5.099   4.103  1.8240  0.5467  0.2815
 9734SOL     OW30443   6.130   1.056   2.573 -0.0481 -0.5745 -0.3361
 9734SOL    HW130444   6.167   1.017   2.494  2.6191 -1.9018  1.4932
 9734SOL    HW230445   6.099   1.143   2.546 -1.2917 -1.9076 -3.3058
 9735SOL     OW30446   7.860   3.242   6.458  0.1014 -0.0958 -0.3606
 9735SOL    HW130447   7.952   3.223   6.475  0.4000  1.3697 -0.3251
 9735SOL    HW230448   7.819   3.243   6.545  0.1054 -0.4546 -0.3542
 9736SOL     OW30449   3.256   2.917   2.806 -0.3825  0.1470  0.1860
 9736SOL    HW130450   3.307   2.946   2.731 -1.3992 -0.5795 -0.8059
 9736SOL    HW230451   3.183   2.868   2.768 -0.5986 -0.7227  1.6761
 9737SOL     OW30452   2.066   0.351   1.606  0.4599  0.0533 -0.0684
 9737SOL    HW130453   2.026   0.403   1.676 -2.2012 -0.5787 -1.0659
 9737SOL    HW230454   2.037   0.394   1.525  1.7494 -0.4842 -0.8283
 9738SOL     OW30455   2.341   1.534   6.401 -0.0087 -0.1401 -0.5390
 9738SOL    HW130456   2.272   1.557   6.462  0.2489  2.5929 -1.1983
 9738SOL    HW230457   2.295   1.507   6.321 -0.3358 -0.1254 -0.3543
 9739SOL     OW30458   1.047   2.771   4.448 -0.3670 -0.1688 -0.1495
 9739SOL    HW130459   1.102   2.820   4.510 -1.1696  1.4657 -0.6917
 9739SOL    HW230460   1.036   2.685   4.488 -1.0246  0.9213  2.1152
 9740SOL     OW30461   0.772   2.472   0.487 -0.3047 -0.4927  0.0764
 9740SOL    HW130462   0.731   2.403   0.436 -0.5809 -1.0048  0.9894
 9740SOL    HW230463   0.715   2.548   0.475  0.6573 -0.0721 -1.9167
 9741SOL     OW30464   2.794   1.792   2.652  0.2125  0.8637 -0.3684
 9741SOL    HW130465   2.759   1.794   2.741  1.7061 -1.2265  0.3032
 9741SOL    HW230466   2.722   1.758   2.599 -0.1250  0.5043  0.3120
 9742SOL     OW30467   5.038   0.680   0.797  0.1612  0.6531  0.1395
 9742SOL    HW130468   5.047   0.585   0.793  2.8018  0.8062  1.0390
 9742SOL    HW230469   5.007   0.706   0.710  0.5515 -0.9345 -0.4840
 9743SOL     OW30470   3.407   1.820   0.859  0.5469 -0.3405 -0.3090
 9743SOL    HW130471   3.426   1.878   0.786  0.1561 -1.2158 -1.1157
 9743SOL    HW230472   3.312   1.813   0.860  0.5554 -0.4378  0.2146
 9744SOL     OW30473   3.412   1.812   7.408 -0.0090  0.2117 -0.0806
 9744SOL    HW130474   3.382   1.808   7.317 -1.1810 -0.7758  0.3420
 9744SOL    HW230475   3.364   1.886   7.445 -0.3546 -0.0632  0.0249
 9745SOL     OW30476   1.996   7.642   6.800 -0.8155  0.1005 -0.1782
 9745SOL    HW130477   2.050   7.580   6.750  1.4072  1.0427  0.9944
 9745SOL    HW230478   2.012   7.620   6.891 -3.1999 -0.2005  0.2061
 9746SOL     OW30479   1.066   0.253   1.843 -0.1273  0.1704  0.2476
 9746SOL    HW130480   1.098   0.254   1.753 -1.3609  0.7361 -0.1945
 9746SOL    HW230481   1.142   0.276   1.896  0.6422 -0.3245 -0.6342
 9747SOL     OW30482   1.555   7.119   1.882  0.1196  0.2500  0.1848
 9747SOL    HW130483   1.644   7.136   1.910  1.1201 -0.8277 -2.1877
 9747SOL    HW230484   1.552   7.147   1.791 -1.9089  0.1019  0.1680
 9748SOL     OW30485   5.256   1.214   0.709 -0.1650 -0.4757  0.0501
 9748SOL    HW130486   5.231   1.159   0.636 -0.4897 -2.0123  1.2873
 9748SOL    HW230487   5.244   1.159   0.786 -0.5913  1.3489  1.3390
 9749SOL     OW30488   0.268   1.560   3.096  0.2248  0.3711 -0.0314
 9749SOL    HW130489   0.345   1.617   3.098 -0.7128  1.6381  0.2639
 9749SOL    HW230490   0.241   1.560   3.004  2.0718 -2.1430 -0.6365
 9750SOL     OW30491   2.929   4.753   8.023 -0.3445 -0.5844 -0.7010
 9750SOL    HW130492   2.867   4.775   7.953 -0.3116  1.4222 -0.1280
 9750SOL    HW230493   2.976   4.835   8.039 -0.7734 -0.8564  2.1082
 9751SOL     OW30494   1.020   3.443   6.335 -0.4062 -0.3026 -0.1190
 9751SOL    HW130495   1.095   3.502   6.342  0.0326 -1.0373  1.7552
 9751SOL    HW230496   0.948   3.491   6.375 -0.1531 -0.8597  1.0125
 9752SOL     OW30497   4.659   0.960   7.708  0.3188  0.7657 -0.1722
 9752SOL    HW130498   4.680   1.004   7.790  1.7235 -0.3950  0.1064
 9752SOL    HW230499   4.682   1.023   7.640  2.1724  0.5529  0.2321
 9753SOL     OW30500   4.088   4.992   5.438 -0.8201  0.0732  0.3808
 9753SOL    HW130501   4.002   4.972   5.476 -1.3561 -0.9328 -1.2980
 9753SOL    HW230502   4.117   5.070   5.484 -2.4930  0.2339  1.2150
 9754SOL     OW30503   0.297   3.769   5.371 -0.5310  0.5628  0.0393
 9754SOL    HW130504   0.263   3.680   5.362  1.5001 -0.2139 -0.2400
 9754SOL    HW230505   0.345   3.785   5.290  0.0417  1.4806  0.5473
 9755SOL     OW30506   0.039   6.438   8.270 -0.1827 -0.0867  0.6373
 9755SOL    HW130507   0.128   6.469   8.288  0.3940 -1.0910 -0.3956
 9755SOL    HW230508   0.052   6.363   8.212 -1.8211  1.3771 -1.6869
 9756SOL     OW30509   7.271   4.268   6.471  0.3924 -0.2936 -0.0383
 9756SOL    HW130510   7.281   4.187   6.421 -0.4022 -1.2353  1.3183
 9756SOL    HW230511   7.211   4.246   6.542  1.2140  1.1316  1.1292
 9757SOL     OW30512   0.893   3.991   5.447 -0.6123 -0.3517  0.3947
 9757SOL    HW130513   0.857   4.046   5.516  1.6624  0.9718  0.5702
 9757SOL    HW230514   0.968   3.947   5.487  0.2562 -0.1816 -0.9983
 9758SOL     OW30515   3.783   0.072   2.487 -0.2894  0.6165  0.2830
 9758SOL    HW130516   3.694   0.107   2.477 -1.0354 -1.7680 -1.9601
 9758SOL    HW230517   3.795   0.064   2.582 -2.7304  0.4099  0.6115
 9759SOL     OW30518   3.786   1.452   1.033 -0.5001  0.0616  0.5794
 9759SOL    HW130519   3.788   1.360   1.009 -1.6365  0.0035  0.6801
 9759SOL    HW230520   3.834   1.457   1.116  1.0141 -0.1698 -0.2600
 9760SOL     OW30521   4.477   4.195   5.396 -0.0345  0.1109  0.6110
 9760SOL    HW130522   4.549   4.136   5.372 -0.1624  0.5603 -0.9027
 9760SOL    HW230523   4.422   4.199   5.318 -0.2440  1.9298  0.8443
 9761SOL     OW30524   3.062   0.069   3.780 -0.2512 -0.2073 -0.1033
 9761SOL    HW130525   3.060  -0.018   3.739  0.3672 -0.8402  1.1883
 9761SOL    HW230526   3.034   0.053   3.870  0.5379  0.8434  0.3286
 9762SOL     OW30527   3.102   6.900   5.677  0.4808  0.5945  0.5090
 9762SOL    HW130528   3.092   6.839   5.750  2.1684 -0.1242  0.1601
 9762SOL    HW230529   3.034   6.873   5.615 -0.3140  0.5789  1.3744
 9763SOL     OW30530   7.947   3.468   4.965 -0.4356  0.2513  0.2868
 9763SOL    HW130531   8.032   3.483   4.922  0.1620  1.2579  1.7717
 9763SOL    HW230532   7.953   3.379   4.999 -0.8480 -0.4887 -1.5480
 9764SOL     OW30533   6.923   4.191   8.111  0.1542 -0.5844  0.1638
 9764SOL    HW130534   6.981   4.266   8.118 -0.3560 -0.1363 -0.2993
 9764SOL    HW230535   6.881   4.185   8.197 -0.4534  0.2064 -0.0689
 9765SOL     OW30536   5.299   4.707   7.876  0.1484  0.2815  0.6774
 9765SOL    HW130537   5.259   4.646   7.815  2.0027 -1.5519  1.2419
 9765SOL    HW230538   5.241   4.783   7.876 -1.2160 -0.7260 -1.4254
 9766SOL     OW30539   6.459   5.107   6.846 -0.0326 -0.0602  0.6949
 9766SOL    HW130540   6.424   5.083   6.932  3.0295  1.6193  2.5181
 9766SOL    HW230541   6.470   5.202   6.850 -0.6055  0.1540 -1.8906
 9767SOL     OW30542   2.066   1.441   2.408  0.0584 -0.5183  0.0596
 9767SOL    HW130543   2.044   1.424   2.500  0.0365 -0.4291  0.0717
 9767SOL    HW230544   2.100   1.531   2.408 -1.5779  0.1171 -0.2838
 9768SOL     OW30545   0.674   6.737   3.587 -0.0259  0.2917 -0.0435
 9768SOL    HW130546   0.678   6.666   3.650  0.7130  0.3891  0.0153
 9768SOL    HW230547   0.603   6.793   3.619 -2.3670 -1.7079 -1.4468
 9769SOL     OW30548   5.039   0.649   4.212  0.1227 -0.0869 -0.4757
 9769SOL    HW130549   5.133   0.638   4.200  0.1495 -1.1035  0.6249
 9769SOL    HW230550   5.015   0.716   4.148  1.1964 -1.4643 -2.3632
 9770SOL     OW30551   5.849   6.009   8.069 -0.0333 -0.6225 -0.7864
 9770SOL    HW130552   5.886   5.921   8.071 -0.4434 -0.8035 -1.2012
 9770SOL    HW230553   5.778   6.004   8.006 -1.8420 -0.6852  1.1997
 9771SOL     OW30554   6.051   1.027   3.758  0.4991  0.2595 -0.1605
 9771SOL    HW130555   6.051   0.959   3.826  0.1362  1.6159  1.2310
 9771SOL    HW230556   6.080   0.982   3.679 -0.7368 -1.7606  0.4911
 9772SOL     OW30557   3.729   7.920   3.468  0.3266 -0.1290  0.2903
 9772SOL    HW130558   3.791   7.909   3.395  0.2709  0.5482  0.1324
 9772SOL    HW230559   3.780   7.901   3.546  0.9634  1.2335  0.2169
 9773SOL     OW30560   7.385   7.785   4.012 -0.2101 -0.5259 -0.3596
 9773SOL    HW130561   7.466   7.742   3.984 -0.1738 -1.4728  1.0973
 9773SOL    HW230562   7.353   7.831   3.935  1.7927 -0.0332 -0.9046
 9774SOL     OW30563   6.057   5.150   1.424 -0.1639  0.1754 -0.3327
 9774SOL    HW130564   5.980   5.094   1.413 -0.2139  0.0549  0.6129
 9774SOL    HW230565   6.021   5.238   1.434 -0.1163  0.2895 -1.1109
 9775SOL     OW30566   0.494   4.682   7.280  0.1385 -0.0273  0.4878
 9775SOL    HW130567   0.559   4.635   7.228  0.9617  1.0472  0.5372
 9775SOL    HW230568   0.484   4.629   7.359  0.2477 -0.6858  0.0715
 9776SOL     OW30569   1.905   6.980   1.402  0.1288 -0.5225  0.0531
 9776SOL    HW130570   1.982   6.927   1.383  1.0759  0.3445  1.4060
 9776SOL    HW230571   1.934   7.070   1.386 -1.6336 -0.4088 -2.8322
 9777SOL     OW30572   5.099   2.613   2.750 -0.7643  0.7517  0.7535
 9777SOL    HW130573   5.063   2.632   2.663  0.2867  2.5311  0.6715
 9777SOL    HW230574   5.134   2.697   2.780  0.5149 -0.2521  2.1374
 9778SOL     OW30575   4.768   7.295   0.533 -0.7339  0.3192 -0.1745
 9778SOL    HW130576   4.776   7.239   0.610 -0.6443 -1.1340 -1.2182
 9778SOL    HW230577   4.848   7.279   0.483 -1.3466  0.3419 -1.1723
 9779SOL     OW30578   5.255   6.556   3.450 -0.0338 -0.4652  0.0398
 9779SOL    HW130579   5.200   6.578   3.526  0.6509 -0.0593  0.4305
 9779SOL    HW230580   5.199   6.574   3.374 -0.2695  0.4688  0.4162
 9780SOL     OW30581   8.267   1.877   1.672 -0.2436  0.7801  0.3559
 9780SOL    HW130582   8.242   1.875   1.765  1.0305  2.3121  0.7581
 9780SOL    HW230583   8.224   1.955   1.638 -0.7901  0.1623 -0.3714
 9781SOL     OW30584   4.062   6.952   2.177  0.1876  0.4481  0.0174
 9781SOL    HW130585   4.123   6.897   2.128 -0.1594  0.6541 -0.6408
 9781SOL    HW230586   4.118   7.006   2.232  0.5562 -0.1121  0.2012
 9782SOL     OW30587   1.046   7.894   2.126 -0.6120 -0.3467  0.1533
 9782SOL    HW130588   1.119   7.954   2.112 -0.5574  0.1120  2.2103
 9782SOL    HW230589   0.985   7.943   2.181 -1.5992 -1.4031  0.0153
 9783SOL     OW30590   3.355   3.511   5.411 -0.2190  0.3907  0.3177
 9783SOL    HW130591   3.361   3.535   5.318 -0.1760 -1.5705 -0.1994
 9783SOL    HW230592   3.275   3.555   5.441 -0.6406  0.4507 -0.8285
 9784SOL     OW30593   7.940   0.760   2.738  0.9365 -0.5229  0.2166
 9784SOL    HW130594   7.920   0.767   2.644  1.4553  0.8170  0.2045
 9784SOL    HW230595   7.921   0.846   2.773  0.3525 -1.1427  1.4384
 9785SOL     OW30596   4.498   3.136   3.073 -0.0061 -0.4054 -0.2495
 9785SOL    HW130597   4.581   3.163   3.112 -0.4642  1.0271 -0.2425
 9785SOL    HW230598   4.492   3.042   3.092  1.9608 -0.6943 -0.8860
 9786SOL     OW30599   6.989   2.942   5.035  0.1030  0.2003  0.3731
 9786SOL    HW130600   7.035   2.899   5.107 -0.2682 -0.0812  0.4450
 9786SOL    HW230601   6.931   3.005   5.078 -1.0912 -0.9005  0.3975
 9787SOL     OW30602   3.070   7.682   4.012 -0.3445  0.4782  0.3481
 9787SOL    HW130603   3.115   7.623   4.072 -0.1793  0.2709  0.0247
 9787SOL    HW230604   2.985   7.698   4.053 -0.6897 -0.6073  0.0701
 9788SOL     OW30605   1.893   5.528   4.681 -0.0539 -0.1562  0.0494
 9788SOL    HW130606   1.809   5.559   4.646  0.7588  0.3248 -1.5165
 9788SOL    HW230607   1.959   5.576   4.631  1.1683 -0.4416  1.3438
 9789SOL     OW30608   7.992   6.373   1.342  0.6578  0.0937 -0.2175
 9789SOL    HW130609   8.073   6.397   1.387  1.6465  0.5395 -2.1713
 9789SOL    HW230610   7.988   6.277   1.351  2.0349 -0.0711 -1.1028
 9790SOL     OW30611   0.115   4.155   6.747 -0.1957  0.2352  0.4816
 9790SOL    HW130612   0.094   4.065   6.771 -1.1767 -0.6702 -3.4922
 9790SOL    HW230613   0.056   4.208   6.801  1.0815 -1.3716  3.5949
 9791SOL     OW30614   3.118   0.721   4.886 -0.2582  0.6961  0.1934
 9791SOL    HW130615   3.041   0.764   4.923 -1.0762 -0.5925  0.0351
 9791SOL    HW230616   3.192   0.773   4.916 -1.0834  1.0261  1.6847
 9792SOL     OW30617   3.211   1.865   5.904  0.4327 -0.2775  0.2175
 9792SOL    HW130618   3.235   1.958   5.895  0.4664 -0.2115  0.9333
 9792SOL    HW230619   3.294   1.820   5.916  0.4638 -0.4789 -0.7565
 9793SOL     OW30620   7.884   7.610   4.955  0.7630 -0.6908  0.0265
 9793SOL    HW130621   7.907   7.590   5.046 -0.2792 -1.6892  0.0923
 9793SOL    HW230622   7.894   7.526   4.909  0.4190 -0.4021 -0.5843
 9794SOL     OW30623   1.607   3.162   4.741 -0.4814  0.1361  0.3295
 9794SOL    HW130624   1.530   3.109   4.721 -0.4543 -0.4835  1.8534
 9794SOL    HW230625   1.679   3.099   4.745 -0.2253  0.4609  0.8506
 9795SOL     OW30626   1.725   0.332   4.242  0.0275  0.0597 -1.1077
 9795SOL    HW130627   1.812   0.302   4.217  0.9237  0.7720  1.0262
 9795SOL    HW230628   1.738   0.377   4.325 -2.6301 -1.2239  0.0640
 9796SOL     OW30629   6.058   3.527   3.307 -0.1392  0.4155  0.0549
 9796SOL    HW130630   6.021   3.439   3.305 -0.1254  0.4048  0.2366
 9796SOL    HW230631   6.085   3.540   3.398  0.5171  0.3378 -0.1293
 9797SOL     OW30632   2.957   0.058   5.283  0.1515  0.5897 -0.2847
 9797SOL    HW130633   2.997   0.107   5.211 -1.8052 -0.7751 -2.4023
 9797SOL    HW230634   3.030   0.014   5.326  1.4523  2.0541 -0.9239
 9798SOL     OW30635   5.429   3.956   0.127 -0.3346 -0.2596 -0.3436
 9798SOL    HW130636   5.486   4.028   0.099  0.2143 -0.8239 -0.6871
 9798SOL    HW230637   5.411   3.973   0.219  0.4673 -0.1280 -0.2074
 9799SOL     OW30638   3.530   5.263   2.678  0.6515  0.2247  0.2164
 9799SOL    HW130639   3.460   5.199   2.697 -1.3691  2.2509 -0.1875
 9799SOL    HW230640   3.521   5.329   2.746  1.1884  1.3012 -0.7437
 9800SOL     OW30641   4.802   7.426   7.481  0.0010 -0.1619  0.5515
 9800SOL    HW130642   4.746   7.385   7.415 -1.1622  0.6887  0.9957
 9800SOL    HW230643   4.741   7.463   7.545  1.0852  0.2672  1.3521
 9801SOL     OW30644   5.799   3.238   2.244  0.0511  0.0039 -0.3057
 9801SOL    HW130645   5.885   3.253   2.206  0.1449  2.4679  0.8051
 9801SOL    HW230646   5.818   3.216   2.336 -0.5180  0.8154  0.0055
 9802SOL     OW30647   5.796   7.434   4.690  0.7207  0.1623  0.2686
 9802SOL    HW130648   5.779   7.499   4.622  0.2649  1.5127  1.6514
 9802SOL    HW230649   5.711   7.420   4.732  1.2207  0.2190  1.3318
 9803SOL     OW30650   6.949   0.502   8.178  0.4614  0.8097  0.6548
 9803SOL    HW130651   6.917   0.552   8.102  0.5720  0.7012  0.5378
 9803SOL    HW230652   7.027   0.549   8.207 -0.0802  1.3584  1.2425
 9804SOL     OW30653   4.143   6.946   6.592 -0.1034 -0.7703 -0.0599
 9804SOL    HW130654   4.082   7.010   6.556  0.0789 -0.3104  0.4410
 9804SOL    HW230655   4.208   6.933   6.522  1.7823  2.1544  1.0419
 9805SOL     OW30656   5.079   2.155   3.622  0.2371  0.2127 -0.8861
 9805SOL    HW130657   5.166   2.182   3.592  0.5179 -0.5728 -0.8072
 9805SOL    HW230658   5.096   2.109   3.704 -0.3513  0.8440 -0.4054
 9806SOL     OW30659   1.804   3.378   1.107  0.1472  0.2884 -0.2145
 9806SOL    HW130660   1.856   3.332   1.041  0.7124 -0.5566  0.8144
 9806SOL    HW230661   1.764   3.451   1.059  0.9988  0.0125 -1.3691
 9807SOL     OW30662   7.721   0.147   6.309  0.3365  0.2707 -0.4563
 9807SOL    HW130663   7.636   0.113   6.337 -0.0062  1.0188 -0.5552
 9807SOL    HW230664   7.763   0.177   6.390  0.3833  0.1637 -0.4417
 9808SOL     OW30665   5.664   0.430   1.779 -0.0151 -0.1734  0.2574
 9808SOL    HW130666   5.701   0.516   1.799 -0.8253  0.3192 -0.3394
 9808SOL    HW230667   5.707   0.371   1.841 -0.1275  0.8079  1.2937
 9809SOL     OW30668   4.047   1.765   1.253  0.2204 -0.0513  0.3552
 9809SOL    HW130669   3.987   1.787   1.183 -1.4795 -0.1009  1.7680
 9809SOL    HW230670   4.120   1.827   1.243 -0.6462  0.8152 -0.6258
 9810SOL     OW30671   0.015   8.134   0.869 -0.0623  0.0832  0.1618
 9810SOL    HW130672  -0.060   8.130   0.810 -0.2595 -1.4289  0.4796
 9810SOL    HW230673   0.071   8.061   0.842  0.8182  0.6042  0.5538
 9811SOL     OW30674   1.279   6.991   0.931 -0.4820 -0.2521 -0.4845
 9811SOL    HW130675   1.220   6.997   0.855 -0.2980 -2.4278 -0.8112
 9811SOL    HW230676   1.302   6.899   0.936 -1.3857 -0.3510  2.9258
 9812SOL     OW30677   6.836   5.912   5.426 -0.4653  0.2659  0.0613
 9812SOL    HW130678   6.772   5.943   5.362 -0.9717 -0.2559  0.3209
 9812SOL    HW230679   6.876   5.835   5.385  0.9767  1.3652 -0.6940
 9813SOL     OW30680   3.555   6.350   2.187  0.0772  0.5731  0.3302
 9813SOL    HW130681   3.526   6.259   2.192 -0.8072  0.9234  1.7066
 9813SOL    HW230682   3.571   6.365   2.094  1.6497 -1.4180  0.2429
 9814SOL     OW30683   6.012   8.096   0.843 -0.1412 -0.1103  0.3500
 9814SOL    HW130684   6.068   8.110   0.767  1.9178 -1.5189  1.5657
 9814SOL    HW230685   5.966   8.179   0.855  1.1021  0.8064 -1.1366
 9815SOL     OW30686   5.374   7.727   1.450  0.8189  0.5444  0.3789
 9815SOL    HW130687   5.373   7.741   1.355  0.6236 -0.1098  0.2791
 9815SOL    HW230688   5.286   7.697   1.470  1.0348  0.1142  0.6797
 9816SOL     OW30689   3.201   5.825   3.070  0.3088  0.3165  0.2373
 9816SOL    HW130690   3.134   5.799   3.133 -0.7656  4.0395  0.7304
 9816SOL    HW230691   3.170   5.790   2.986 -0.5482 -0.7826  0.9905
 9817SOL     OW30692   3.022   0.420   0.906 -0.2369 -0.1720 -0.1247
 9817SOL    HW130693   3.098   0.464   0.866 -0.2813  0.4887  0.5134
 9817SOL    HW230694   2.977   0.380   0.832  0.6200 -0.3914 -0.5404
 9818SOL     OW30695   3.007   0.834   0.373  0.0568  0.1570  0.2559
 9818SOL    HW130696   3.017   0.877   0.458  0.7756  0.2745  0.1221
 9818SOL    HW230697   3.044   0.746   0.387 -0.3812 -0.0338  0.2268
 9819SOL     OW30698   1.247   2.813   7.286  0.1776 -1.2896 -0.0786
 9819SOL    HW130699   1.286   2.737   7.331  2.8794 -0.2579 -0.5895
 9819SOL    HW230700   1.305   2.886   7.307 -1.2727  0.2507 -1.2463
 9820SOL     OW30701   4.193   1.149   0.996 -0.0633 -0.0010  0.1877
 9820SOL    HW130702   4.190   1.058   0.968 -1.0655 -0.4079  1.5743
 9820SOL    HW230703   4.160   1.199   0.921 -2.6616 -1.0657  0.5842
 9821SOL     OW30704   4.368   0.424   1.374  0.0360  0.2109 -1.0727
 9821SOL    HW130705   4.353   0.350   1.315 -1.9370  0.9723 -1.5808
 9821SOL    HW230706   4.432   0.479   1.328 -0.4459  0.1021 -1.8808
 9822SOL     OW30707   1.080   7.981   4.633 -0.1644  0.0141  0.3805
 9822SOL    HW130708   1.070   8.062   4.682 -0.8944 -0.6880  1.4070
 9822SOL    HW230709   1.130   8.006   4.555 -0.8878  1.5455  0.4001
 9823SOL     OW30710   1.287   1.175   3.899  0.1956 -0.2762 -0.0667
 9823SOL    HW130711   1.325   1.245   3.952 -2.1662  1.4380 -0.5504
 9823SOL    HW230712   1.272   1.103   3.961  1.1755  0.2006  0.7433
 9824SOL     OW30713   3.398   7.154   3.301 -0.3766  0.3364  0.2391
 9824SOL    HW130714   3.334   7.159   3.372 -1.6127  2.2514 -0.9849
 9824SOL    HW230715   3.347   7.135   3.223  0.6403  1.1964 -0.6478
 9825SOL     OW30716   6.360   0.605   4.600  0.7267 -0.1694  0.0489
 9825SOL    HW130717   6.299   0.576   4.531  0.0858 -0.3470  0.6818
 9825SOL    HW230718   6.419   0.666   4.555 -0.3251  0.5117 -0.4447
 9826SOL     OW30719   1.531   7.406   0.426  0.3943  0.2270  0.3854
 9826SOL    HW130720   1.444   7.386   0.459  0.7981  0.7082  1.7523
 9826SOL    HW230721   1.520   7.409   0.331 -0.6006 -1.9198  0.4087
 9827SOL     OW30722   5.075   4.592   4.665 -0.5522 -0.5948  0.2050
 9827SOL    HW130723   5.131   4.515   4.653  0.2746  0.5655 -3.8300
 9827SOL    HW230724   4.995   4.571   4.616 -1.1586  0.2992  0.7993
 9828SOL     OW30725   7.109   0.730   4.224  0.1117  0.2819 -0.1360
 9828SOL    HW130726   7.137   0.651   4.270 -1.7031 -0.3578 -0.0941
 9828SOL    HW230727   7.111   0.707   4.132  1.7229  0.9139 -0.2895
 9829SOL     OW30728   2.160   1.654   8.044 -0.2989 -0.2200  0.0210
 9829SOL    HW130729   2.152   1.589   8.114  1.3558 -0.6478 -0.1649
 9829SOL    HW230730   2.217   1.612   7.979  0.1364  1.1117 -0.4715
 9830SOL     OW30731   6.987   3.866   1.487 -0.1176  0.2036  0.3152
 9830SOL    HW130732   7.024   3.832   1.406 -0.4000 -0.0641  0.2968
 9830SOL    HW230733   6.902   3.902   1.461  0.4010  1.3980  0.2412
 9831SOL     OW30734   5.357   7.556   7.112  0.0832 -0.3815 -0.3514
 9831SOL    HW130735   5.405   7.474   7.113  1.2340  0.2895  0.1987
 9831SOL    HW230736   5.336   7.574   7.204  1.7118  1.0136 -0.2339
 9832SOL     OW30737   4.232   6.501   8.180  0.4036  0.2565  0.4617
 9832SOL    HW130738   4.254   6.460   8.097 -1.1440 -2.5598  1.3682
 9832SOL    HW230739   4.150   6.547   8.163  0.2871 -0.0076  0.3013
 9833SOL     OW30740   5.073   6.366   2.298  0.4026  0.3303  0.1059
 9833SOL    HW130741   5.085   6.451   2.339  0.4241  0.4210 -0.0839
 9833SOL    HW230742   5.084   6.384   2.204  2.9635 -0.3110  0.2535
 9834SOL     OW30743   0.103   2.924   6.389 -0.0842 -0.5893  0.0112
 9834SOL    HW130744   0.171   2.895   6.450 -1.4047 -0.2836  1.6669
 9834SOL    HW230745   0.030   2.864   6.405 -0.8611  0.2311 -0.4337
 9835SOL     OW30746   3.843   1.371   7.400 -0.1004  0.0347 -0.0277
 9835SOL    HW130747   3.763   1.356   7.349 -0.5621 -0.3111  0.7801
 9835SOL    HW230748   3.867   1.462   7.381 -0.4283 -0.0022 -0.6314
 9836SOL     OW30749   6.679   5.040   1.988  0.3136 -0.0713  0.6609
 9836SOL    HW130750   6.665   5.129   1.957 -2.4125 -0.9679 -0.8175
 9836SOL    HW230751   6.598   5.017   2.034  0.9900 -1.7979  1.0351
 9837SOL     OW30752   3.790   0.064   1.542  0.0669  0.7511 -0.6796
 9837SOL    HW130753   3.706   0.110   1.550  1.0738  2.4590  0.3721
 9837SOL    HW230754   3.809   0.066   1.448 -0.7298  0.9382 -0.8463
 9838SOL     OW30755   1.853   4.117   0.451  0.3860 -0.6195  0.2773
 9838SOL    HW130756   1.863   4.053   0.380 -0.3951 -0.0347 -0.3639
 9838SOL    HW230757   1.862   4.202   0.408  0.6325 -0.2784  1.0004
 9839SOL     OW30758   0.118   2.463   2.528 -0.3996  0.0760 -0.7757
 9839SOL    HW130759   0.153   2.375   2.543  0.1141  0.3860 -0.1365
 9839SOL    HW230760   0.108   2.469   2.433  1.4321  0.0415 -0.9809
 9840SOL     OW30761   0.640   3.277   3.362 -0.0559 -0.1063 -0.2593
 9840SOL    HW130762   0.593   3.266   3.279 -2.6773 -1.2779  1.2995
 9840SOL    HW230763   0.587   3.228   3.425  1.0160  2.0937  2.4048
 9841SOL     OW30764   6.210   7.313   0.170 -0.2718  0.4744  0.2877
 9841SOL    HW130765   6.258   7.294   0.089  0.5583  2.9436  0.1658
 9841SOL    HW230766   6.261   7.269   0.238  0.8865  1.1503 -0.1288
 9842SOL     OW30767   1.951   5.436   2.885 -0.0019  0.0549 -0.4502
 9842SOL    HW130768   1.883   5.503   2.891  0.1273  0.3178 -1.7110
 9842SOL    HW230769   2.008   5.466   2.814  1.1154 -0.4407  0.2289
 9843SOL     OW30770   4.001   5.559   0.471 -0.0521  0.0828  0.3804
 9843SOL    HW130771   3.997   5.640   0.523  1.3407 -0.3250  1.1682
 9843SOL    HW230772   3.973   5.490   0.530 -1.7909  0.0416 -0.4643
 9844SOL     OW30773   1.075   0.673   0.409  0.0826 -0.3643  0.7923
 9844SOL    HW130774   1.091   0.755   0.456 -0.6413  0.4763 -0.3942
 9844SOL    HW230775   0.992   0.640   0.443 -1.2278  1.0368 -0.9292
 9845SOL     OW30776   1.765   4.212   4.890 -0.2947 -0.2794  0.0616
 9845SOL    HW130777   1.826   4.151   4.932 -0.2866 -0.3828 -0.0975
 9845SOL    HW230778   1.818   4.289   4.872 -0.2529 -0.3035  0.0794
 9846SOL     OW30779   0.741   7.629   5.407  0.4203  0.1262 -0.4146
 9846SOL    HW130780   0.765   7.701   5.465  0.5441  0.7084 -1.1666
 9846SOL    HW230781   0.646   7.621   5.416  0.5401 -0.3666  0.5095
 9847SOL     OW30782   1.039   0.890   0.599 -0.5926 -0.0628 -0.1768
 9847SOL    HW130783   0.981   0.826   0.642 -1.1854  1.8832  2.0110
 9847SOL    HW230784   1.121   0.883   0.647 -1.0356  1.6392  0.8575
 9848SOL     OW30785   7.472   3.382   7.024  0.0792  0.0918  0.0985
 9848SOL    HW130786   7.444   3.366   7.114  0.4680  3.1935  0.8121
 9848SOL    HW230787   7.550   3.436   7.032 -0.7411  1.6690 -2.1322
 9849SOL     OW30788   5.288   6.557   2.523 -0.0624  0.1274  0.2918
 9849SOL    HW130789   5.280   6.550   2.618  0.4237  2.6150  0.5580
 9849SOL    HW230790   5.200   6.576   2.492 -0.2445 -0.8103  0.2176
 9850SOL     OW30791   4.928   3.571   7.795 -1.0323  0.2969  0.4311
 9850SOL    HW130792   4.994   3.598   7.859 -1.4312 -0.2770  1.0883
 9850SOL    HW230793   4.969   3.501   7.745 -1.4863 -0.7207  1.4784
 9851SOL     OW30794   3.261   0.665   7.439 -0.3024 -0.5221  0.0426
 9851SOL    HW130795   3.288   0.739   7.494  0.1503  0.9777 -2.1568
 9851SOL    HW230796   3.269   0.697   7.349 -0.1838 -3.2209 -0.9526
 9852SOL     OW30797   7.170   6.431   4.804 -0.4420  0.6714 -0.4437
 9852SOL    HW130798   7.260   6.423   4.773 -0.9457 -1.6962 -1.4065
 9852SOL    HW230799   7.127   6.487   4.739 -0.2553 -0.2235 -1.3565
 9853SOL     OW30800   4.770   0.485   0.516  0.0496  0.6002 -0.3237
 9853SOL    HW130801   4.736   0.449   0.597  0.7933 -0.6069 -0.5361
 9853SOL    HW230802   4.795   0.408   0.464 -2.3168  1.2716 -2.5432
 9854SOL     OW30803   0.578   0.247   1.392  0.1173  0.3796 -0.0390
 9854SOL    HW130804   0.670   0.267   1.373  0.0560  0.9223  0.2130
 9854SOL    HW230805   0.571   0.152   1.382  0.2656  0.5458 -1.9463
 9855SOL     OW30806   4.927   1.258   7.380 -0.2566  0.0950 -0.1386
 9855SOL    HW130807   4.907   1.249   7.286 -2.2467 -0.3588  0.2988
 9855SOL    HW230808   4.943   1.352   7.391 -1.1226  0.3314 -0.7565
 9856SOL     OW30809   4.464   0.497   5.706  0.1747 -0.3668  0.1768
 9856SOL    HW130810   4.520   0.538   5.640 -0.2550  0.6412  0.4378
 9856SOL    HW230811   4.454   0.562   5.774 -0.6619 -0.8329  0.5142
 9857SOL     OW30812   6.581   6.015   1.532  0.0556  0.1175 -0.7742
 9857SOL    HW130813   6.659   5.968   1.505 -0.8437 -0.6103 -2.1745
 9857SOL    HW230814   6.520   5.946   1.558 -0.6678  0.5850 -1.2131
 9858SOL     OW30815   5.642   2.870   3.701 -0.2651  0.1897 -0.0805
 9858SOL    HW130816   5.690   2.868   3.784 -0.0589  0.9716 -0.1783
 9858SOL    HW230817   5.710   2.869   3.634 -0.4272 -0.2591 -0.2386
 9859SOL     OW30818   5.228   5.133   8.303  0.9714 -0.1892  0.5091
 9859SOL    HW130819   5.246   5.081   8.225 -0.6528 -0.6594  0.4363
 9859SOL    HW230820   5.302   5.194   8.309  1.7534 -1.0028 -0.6586
 9860SOL     OW30821   6.268   3.168   5.280  0.0859 -0.3021  0.0217
 9860SOL    HW130822   6.173   3.163   5.274  0.2430 -1.4987 -1.8392
 9860SOL    HW230823   6.297   3.196   5.193  1.3750  1.1369  0.8849
 9861SOL     OW30824   8.012   3.030   6.252 -0.3517  0.7620 -0.3945
 9861SOL    HW130825   8.083   3.093   6.264 -0.6035  1.2760 -1.4745
 9861SOL    HW230826   7.935   3.074   6.289 -0.3472  0.7352 -0.3523
 9862SOL     OW30827   3.046   0.330   4.555 -0.0725  0.1866  0.1876
 9862SOL    HW130828   3.108   0.315   4.484  0.7300 -0.0854  0.9355
 9862SOL    HW230829   3.053   0.423   4.574 -0.1417  0.2211  0.0454
 9863SOL     OW30830   3.586   5.321   4.548 -0.2372 -0.6432  0.1876
 9863SOL    HW130831   3.585   5.232   4.513 -1.1137 -0.9790  1.0418
 9863SOL    HW230832   3.672   5.330   4.588 -0.3338 -1.2968  0.5554
 9864SOL     OW30833   0.178   3.210   7.340  0.3517  0.0719 -0.0429
 9864SOL    HW130834   0.187   3.115   7.340  1.7028  0.1902  0.6619
 9864SOL    HW230835   0.085   3.226   7.359  0.5286 -1.0813  1.8941
 9865SOL     OW30836   4.933   1.812   3.108 -0.3300  0.7859 -0.1022
 9865SOL    HW130837   4.980   1.894   3.090 -1.5534  1.4538 -0.3191
 9865SOL    HW230838   4.996   1.758   3.155 -0.5373  3.0809  2.9292
 9866SOL     OW30839   2.648   5.850   5.562  0.1097 -0.2401 -0.2024
 9866SOL    HW130840   2.647   5.801   5.480  0.0534 -0.8496  0.1630
 9866SOL    HW230841   2.737   5.886   5.567 -0.3390  1.0796 -1.2787
 9867SOL     OW30842   6.465   6.776   5.963 -0.1024 -0.6708  0.5703
 9867SOL    HW130843   6.416   6.743   5.888  1.2492 -0.7335 -0.2935
 9867SOL    HW230844   6.403   6.832   6.009 -1.3217 -1.5951  0.0975
 9868SOL     OW30845   5.322   3.263   7.636 -0.6649  1.2547 -0.3405
 9868SOL    HW130846   5.301   3.170   7.641 -0.0571  1.1717  0.9320
 9868SOL    HW230847   5.389   3.270   7.569 -1.9823  1.0257 -1.7223
 9869SOL     OW30848   0.126   3.086   1.607 -0.0630  0.4128  0.0579
 9869SOL    HW130849   0.125   3.026   1.682 -0.1303  0.1788 -0.1274
 9869SOL    HW230850   0.083   3.037   1.537  2.5455 -0.5071 -0.9757
 9870SOL     OW30851   5.375   2.476   2.362  0.4373 -0.1607  0.0575
 9870SOL    HW130852   5.409   2.549   2.310 -0.0507 -0.2078 -0.3347
 9870SOL    HW230853   5.381   2.400   2.304  0.0557 -0.2479  0.1274
 9871SOL     OW30854   2.110   1.888   7.271 -0.4946  0.0165 -0.2153
 9871SOL    HW130855   2.065   1.951   7.327 -0.5947 -2.3890  2.5345
 9871SOL    HW230856   2.158   1.832   7.332  0.2314 -2.0822 -2.6243
 9872SOL     OW30857   1.659   3.007   2.559  0.2077 -0.0808 -0.3233
 9872SOL    HW130858   1.576   3.051   2.573 -0.3968 -0.9758 -1.0928
 9872SOL    HW230859   1.721   3.077   2.538 -0.3858  0.5587  0.0729
 9873SOL     OW30860   0.846   6.164   4.481 -0.3672  0.0216 -0.1533
 9873SOL    HW130861   0.917   6.187   4.540 -2.8515  1.8057  2.2896
 9873SOL    HW230862   0.785   6.238   4.486 -3.1417 -2.0902 -0.9224
 9874SOL     OW30863   2.390   6.008   2.044  0.8140  0.3095  0.1406
 9874SOL    HW130864   2.327   6.077   2.025  0.7648  0.2616  0.1287
 9874SOL    HW230865   2.345   5.950   2.105  0.7718  0.1620 -0.0289
 9875SOL     OW30866   4.824   2.740   6.320 -0.7547  0.4326  0.0092
 9875SOL    HW130867   4.806   2.814   6.378  0.4931  0.6602  0.1225
 9875SOL    HW230868   4.840   2.780   6.234  1.8376  0.5130  0.4628
 9876SOL     OW30869   2.243   7.946   4.640 -0.3261  0.6578  0.0878
 9876SOL    HW130870   2.158   7.989   4.638  0.4380  2.2676  0.9054
 9876SOL    HW230871   2.255   7.921   4.732  0.2572  0.8426  0.0665
 9877SOL     OW30872   5.650   5.497   1.337 -0.4273 -0.1536 -0.2194
 9877SOL    HW130873   5.629   5.526   1.248  0.5343  0.0519 -0.3875
 9877SOL    HW230874   5.641   5.576   1.390 -1.2116 -0.3236 -0.0969
 9878SOL     OW30875   7.722   2.010   0.517 -0.3554  0.0048 -0.6241
 9878SOL    HW130876   7.697   1.946   0.584 -2.6079  0.2301 -1.1983
 9878SOL    HW230877   7.784   1.964   0.461 -0.8204 -1.1988 -0.1584
 9879SOL     OW30878   2.028   3.958   0.098 -0.4754 -0.2470  0.8351
 9879SOL    HW130879   2.011   4.049   0.072  0.4881 -0.0841  0.7572
 9879SOL    HW230880   2.120   3.943   0.074 -0.8327 -1.4727  0.1821
 9880SOL     OW30881   3.191   7.572   4.293  0.4111  0.1211  0.4675
 9880SOL    HW130882   3.116   7.540   4.344 -0.1111 -0.1622 -0.4550
 9880SOL    HW230883   3.239   7.493   4.268  0.9733  0.2992  0.9922
 9881SOL     OW30884   5.438   5.353   4.865  0.3872  0.3817  0.5026
 9881SOL    HW130885   5.528   5.374   4.889  0.0135 -1.4941  3.8306
 9881SOL    HW230886   5.386   5.427   4.898  0.6668  1.6916 -1.8255
 9882SOL     OW30887   3.933   1.196   4.563 -0.0478 -0.5649  0.5093
 9882SOL    HW130888   3.881   1.116   4.565 -1.6794  0.4341  4.7742
 9882SOL    HW230889   3.994   1.188   4.636  2.6869  0.2925 -1.6160
 9883SOL     OW30890   2.570   8.253   4.602  0.1414  0.1332 -0.4537
 9883SOL    HW130891   2.505   8.302   4.550 -2.4497 -2.9504 -0.3110
 9883SOL    HW230892   2.576   8.302   4.684  1.0668  2.6849 -1.9627
 9884SOL     OW30893   2.919   4.766   5.890 -0.4313 -0.6918 -0.4208
 9884SOL    HW130894   2.951   4.835   5.948  2.2196 -1.5547 -0.8006
 9884SOL    HW230895   2.844   4.729   5.936  0.3700 -0.0022  1.4826
 9885SOL     OW30896   2.471   6.525   5.406 -0.6924 -0.6452 -0.3086
 9885SOL    HW130897   2.510   6.437   5.408 -0.9209 -0.7405  0.0702
 9885SOL    HW230898   2.379   6.509   5.386 -1.2624 -0.6855  2.2169
 9886SOL     OW30899   8.025   8.193   4.322  0.3246 -0.1651 -0.0343
 9886SOL    HW130900   8.096   8.256   4.313 -0.3899  0.3131 -2.5972
 9886SOL    HW230901   8.054   8.115   4.274 -0.8637  0.0389 -1.1224
 9887SOL     OW30902   4.939   2.508   0.043 -0.2714 -0.5019 -0.3818
 9887SOL    HW130903   4.925   2.416   0.024 -2.2979 -0.2825 -0.1298
 9887SOL    HW230904   4.860   2.535   0.091  0.0898  1.4440 -0.8034
 9888SOL     OW30905   1.121   3.169   2.492 -0.3239 -0.0347 -0.9088
 9888SOL    HW130906   1.037   3.189   2.533 -0.1436 -0.8397 -0.1172
 9888SOL    HW230907   1.134   3.239   2.429 -0.3437  1.5513  0.7968
 9889SOL     OW30908   2.192   0.359   0.903  0.3942 -0.0261  0.2723
 9889SOL    HW130909   2.149   0.318   0.977 -0.4088 -0.9928 -0.7073
 9889SOL    HW230910   2.285   0.359   0.926  0.2628 -1.2406  0.8296
 9890SOL     OW30911   3.968   1.589   3.298 -0.0277 -0.2867 -0.0992
 9890SOL    HW130912   4.052   1.546   3.313  0.1514  0.1267  0.0936
 9890SOL    HW230913   3.930   1.542   3.225  1.6038  1.2507 -2.0060
 9891SOL     OW30914   0.253   7.348   3.287  0.6098 -0.2057 -0.2485
 9891SOL    HW130915   0.168   7.317   3.255  0.3233  0.0335  0.2716
 9891SOL    HW230916   0.231   7.417   3.350  1.1272 -1.5068  1.3942
 9892SOL     OW30917   1.633   7.805   7.778  0.0568  0.7003 -0.2599
 9892SOL    HW130918   1.641   7.779   7.686 -0.7658 -0.8894  0.0833
 9892SOL    HW230919   1.723   7.816   7.809  0.5383 -2.6419 -0.2400
 9893SOL     OW30920   1.715   4.900   4.867  0.0285 -0.4234 -0.2541
 9893SOL    HW130921   1.762   4.867   4.791  0.0735 -0.1009 -0.3669
 9893SOL    HW230922   1.783   4.912   4.934  0.2273  0.7758 -0.6627
 9894SOL     OW30923   0.433   2.931   3.745 -0.4103 -0.3613 -0.8847
 9894SOL    HW130924   0.340   2.909   3.745 -1.0292  2.0109 -0.7099
 9894SOL    HW230925   0.446   2.975   3.829  1.1721 -1.7754 -0.3694
 9895SOL     OW30926   6.798   6.642   0.128 -0.3469  0.3843  0.5110
 9895SOL    HW130927   6.772   6.669   0.040  0.4068 -0.0141  0.1608
 9895SOL    HW230928   6.744   6.695   0.186  0.5195  2.0365 -0.1709
 9896SOL     OW30929   4.029   4.806   7.382 -0.7207  0.1756  0.5123
 9896SOL    HW130930   3.977   4.726   7.390 -0.9363  0.3317  0.6855
 9896SOL    HW230931   3.964   4.877   7.388 -0.9130  0.3287 -2.2918
 9897SOL     OW30932   7.542   3.753   1.930 -0.0518 -0.3135  0.2957
 9897SOL    HW130933   7.455   3.721   1.954 -0.4758  0.3221 -0.3657
 9897SOL    HW230934   7.569   3.809   2.004 -0.7641  0.5340 -0.0785
 9898SOL     OW30935   5.874   2.402   6.793  0.2058  0.4228 -0.0120
 9898SOL    HW130936   5.893   2.493   6.815 -0.3279  1.3120 -3.0330
 9898SOL    HW230937   5.819   2.407   6.715  2.5460 -2.5134 -1.9881
 9899SOL     OW30938   7.165   6.974   8.197 -0.4189  0.3249  0.3468
 9899SOL    HW130939   7.193   6.945   8.110  0.4266  1.9701  0.0644
 9899SOL    HW230940   7.084   7.022   8.181 -0.4764  0.2870  0.5291
 9900SOL     OW30941   6.628   3.459   4.158  0.0788  0.5901  0.7276
 9900SOL    HW130942   6.664   3.439   4.244 -1.2423 -0.6981  1.0030
 9900SOL    HW230943   6.573   3.384   4.137  0.0236  1.1026 -1.0438
 9901SOL     OW30944   5.516   4.133   4.698 -0.1682 -0.0641 -0.0746
 9901SOL    HW130945   5.584   4.144   4.632 -1.5805 -1.1246 -1.7323
 9901SOL    HW230946   5.478   4.220   4.707  0.1725  0.1286 -0.4792
 9902SOL     OW30947   2.716   1.911   4.115  0.8676 -0.8197  0.3675
 9902SOL    HW130948   2.772   1.924   4.191  1.1337 -2.3428  0.4371
 9902SOL    HW230949   2.675   1.826   4.129  0.4138 -0.8146 -0.8689
 9903SOL     OW30950   6.597   8.201   5.455  0.0744 -0.1155  0.5727
 9903SOL    HW130951   6.518   8.239   5.417  0.5169 -1.2177 -1.5153
 9903SOL    HW230952   6.669   8.241   5.407  0.7132 -0.5664  1.1332
 9904SOL     OW30953   3.434   6.987   0.485 -0.1056 -0.2973 -0.1295
 9904SOL    HW130954   3.435   7.006   0.391  0.5445  2.2369  0.3731
 9904SOL    HW230955   3.518   6.942   0.500  0.6971  1.0957 -0.4041
 9905SOL     OW30956   3.541   0.247   4.231 -0.2175  0.2041 -0.6005
 9905SOL    HW130957   3.492   0.214   4.155 -0.8323  2.6088 -1.3070
 9905SOL    HW230958   3.592   0.320   4.196  0.5695  0.4497  1.0354
 9906SOL     OW30959   6.275   0.980   5.920 -0.0642 -0.1875 -0.2014
 9906SOL    HW130960   6.358   0.996   5.873 -0.6544  0.4704 -1.0319
 9906SOL    HW230961   6.208   0.984   5.852 -0.9739  1.0693  0.7600
 9907SOL     OW30962   2.334   3.179   3.965  0.9490  0.0095  0.1178
 9907SOL    HW130963   2.347   3.091   3.930 -1.8207 -0.5898  0.5052
 9907SOL    HW230964   2.339   3.237   3.889  0.9603 -0.6833 -0.4052
 9908SOL     OW30965   4.755   1.637   7.494 -0.2396  0.5101  1.1795
 9908SOL    HW130966   4.790   1.620   7.581  2.8616  1.3280  0.1643
 9908SOL    HW230967   4.825   1.611   7.434 -2.9080 -1.5894 -1.1863
 9909SOL     OW30968   1.590   4.862   8.177  0.5550  0.6320 -0.1759
 9909SOL    HW130969   1.560   4.926   8.242  2.0302 -0.2147  1.3694
 9909SOL    HW230970   1.667   4.822   8.217 -0.3293 -2.1002 -1.1089
 9910SOL     OW30971   3.340   2.766   4.561  0.6234 -0.0273 -0.6553
 9910SOL    HW130972   3.354   2.672   4.573 -0.2100 -0.1139 -0.3043
 9910SOL    HW230973   3.281   2.773   4.486 -0.7541  0.1185  0.4211
 9911SOL     OW30974   3.408   7.146   0.713 -0.1861  0.3273  0.2202
 9911SOL    HW130975   3.393   7.239   0.699  0.1818  0.5178  1.0270
 9911SOL    HW230976   3.424   7.110   0.626  2.4598  1.5274  0.1759
 9912SOL     OW30977   2.885   2.356   4.878  0.3542  0.3243 -0.2650
 9912SOL    HW130978   2.858   2.286   4.819  1.7661  1.6465 -2.5483
 9912SOL    HW230979   2.973   2.380   4.849  0.5481  1.9047  1.5472
 9913SOL     OW30980   2.246   4.023   7.632 -0.3885 -0.3747  0.0064
 9913SOL    HW130981   2.212   4.073   7.706 -0.1807  0.6322 -0.5741
 9913SOL    HW230982   2.295   4.087   7.580  0.1057 -1.2372 -0.5993
 9914SOL     OW30983   7.026   7.613   3.633  0.1815 -0.1699 -0.2070
 9914SOL    HW130984   7.073   7.542   3.677  0.1964  0.1117  0.2280
 9914SOL    HW230985   7.094   7.676   3.610 -0.1311  0.8885  1.6342
 9915SOL     OW30986   0.368   0.103   2.659 -0.3073  0.1544  0.1933
 9915SOL    HW130987   0.322   0.153   2.591 -2.5583 -0.6351  1.0790
 9915SOL    HW230988   0.369   0.013   2.626 -1.2625 -0.2022  1.0954
 9916SOL     OW30989   6.108   1.260   2.988  0.0069 -0.2324 -0.1110
 9916SOL    HW130990   6.192   1.305   2.998  0.0628 -0.5283  0.7850
 9916SOL    HW230991   6.127   1.186   2.931  0.6849 -1.1500  1.2811
 9917SOL     OW30992   6.203   3.024   1.788  0.2580 -0.4088  0.1355
 9917SOL    HW130993   6.160   2.959   1.732  0.9630  0.2606 -1.2001
 9917SOL    HW230994   6.231   2.975   1.865 -3.5394 -0.7293  1.4075
 9918SOL     OW30995   3.870   2.437   4.876 -0.3190 -0.3971  0.5877
 9918SOL    HW130996   3.824   2.413   4.796  2.7671  0.9184 -1.7190
 9918SOL    HW230997   3.917   2.358   4.902 -0.3800 -0.4920  0.4114
 9919SOL     OW30998   1.180   2.704   5.257  0.4682  0.0085 -0.3805
 9919SOL    HW130999   1.119   2.776   5.277  0.5395 -0.0945  0.2133
 9919SOL    HW231000   1.238   2.741   5.191 -0.0022  0.2360 -0.6730
 9920SOL     OW31001   0.601   3.062   5.468 -0.1699  0.1150  0.6405
 9920SOL    HW131002   0.581   3.133   5.529  1.5670  0.4380  0.8561
 9920SOL    HW231003   0.616   2.985   5.524 -0.1391  0.0405  0.5301
 9921SOL     OW31004   4.245   2.747   4.270  0.1282  0.4054  0.2798
 9921SOL    HW131005   4.260   2.834   4.233 -2.0285  0.4252 -0.5943
 9921SOL    HW231006   4.153   2.747   4.295  0.0858 -1.6532  0.2024
 9922SOL     OW31007   2.126   8.033   2.803  0.1029 -0.0534  0.3428
 9922SOL    HW131008   2.216   8.035   2.833  0.8781 -0.2462 -1.8586
 9922SOL    HW231009   2.132   8.030   2.708 -2.2177 -0.7959  0.1698
 9923SOL     OW31010   6.548   7.018   7.015  0.0120  0.3326 -0.1249
 9923SOL    HW131011   6.547   7.050   6.925 -0.0096 -0.1052 -0.2797
 9923SOL    HW231012   6.550   6.923   7.007  0.2809  0.2963  0.3335
 9924SOL     OW31013   1.868   6.454   7.642  0.1739 -0.0044  0.1328
 9924SOL    HW131014   1.834   6.448   7.731 -0.8036  0.6051 -0.1918
 9924SOL    HW231015   1.853   6.367   7.605 -1.6901  0.4496 -0.2301
 9925SOL     OW31016   7.961   5.111   0.559  0.6827 -0.5550  0.4240
 9925SOL    HW131017   7.901   5.092   0.487  2.3070 -0.2189 -1.0360
 9925SOL    HW231018   7.961   5.207   0.566  1.0892 -0.5503  0.3806
 9926SOL     OW31019   3.433   3.970   3.197  0.5476 -0.5526  0.5059
 9926SOL    HW131020   3.501   3.926   3.146  1.0455  0.7685  0.0086
 9926SOL    HW231021   3.409   4.046   3.144 -1.1186 -0.8536  0.8145
 9927SOL     OW31022   7.642   0.956   4.253 -0.0849  0.0613 -0.2263
 9927SOL    HW131023   7.708   1.021   4.227  0.9488 -0.4316  1.0811
 9927SOL    HW231024   7.603   0.927   4.171  3.0738 -1.4370 -1.2712
 9928SOL     OW31025   4.401   6.203   4.808  0.3389  0.5294 -0.3584
 9928SOL    HW131026   4.456   6.274   4.773  1.2399  0.1598  0.2828
 9928SOL    HW231027   4.318   6.212   4.762  0.4826  1.9452 -0.3626
 9929SOL     OW31028   7.536   3.417   3.594  0.3991 -0.2813 -0.0658
 9929SOL    HW131029   7.578   3.492   3.637  0.0452 -0.3468  0.3928
 9929SOL    HW231030   7.519   3.448   3.505 -2.5015  1.2762  0.9422
 9930SOL     OW31031   0.391   5.122   1.948  0.3880  0.3604  0.0902
 9930SOL    HW131032   0.426   5.191   1.891 -0.7248  1.2081  0.4184
 9930SOL    HW231033   0.326   5.167   2.002 -0.4116 -0.9816  0.2441
 9931SOL     OW31034   1.232   0.399   7.567 -0.5149 -0.2483 -0.2562
 9931SOL    HW131035   1.240   0.406   7.472  0.5643 -2.1475 -0.3221
 9931SOL    HW231036   1.303   0.341   7.593 -0.7685  0.2897  1.7310
 9932SOL     OW31037   2.009   7.203   0.029  0.3839  0.3396  1.0063
 9932SOL    HW131038   1.968   7.210  -0.057  0.8599 -1.3266  0.6384
 9932SOL    HW231039   1.937   7.210   0.091  0.2664  3.8110  0.5809
 9933SOL     OW31040   1.464   2.919   3.152 -0.0628 -0.2397  0.0210
 9933SOL    HW131041   1.548   2.960   3.131  0.4329 -1.4913 -0.4557
 9933SOL    HW231042   1.410   2.932   3.074  0.3416 -1.1524 -0.4046
 9934SOL     OW31043   4.215   3.613   5.921 -0.2417  0.1543 -0.5925
 9934SOL    HW131044   4.192   3.581   5.834 -2.5134  0.8635 -0.2709
 9934SOL    HW231045   4.250   3.701   5.906 -0.5681  0.2503 -0.7910
 9935SOL     OW31046   2.269   3.530   2.680  0.2134  0.2940 -0.5227
 9935SOL    HW131047   2.189   3.494   2.643 -0.0599  1.2080 -0.8262
 9935SOL    HW231048   2.288   3.474   2.756  0.2189 -0.9608 -1.4268
 9936SOL     OW31049   1.677   2.780   6.062 -0.0128  0.7625  0.2360
 9936SOL    HW131050   1.690   2.696   6.018 -0.8939  0.8530 -0.2174
 9936SOL    HW231051   1.636   2.836   5.996 -0.8151  1.0857  0.9909
 9937SOL     OW31052   1.993   0.958   0.808  0.0855  0.2240 -0.0578
 9937SOL    HW131053   2.079   0.993   0.829 -0.9948  2.2445  1.1385
 9937SOL    HW231054   1.970   1.000   0.725  0.1865 -0.2212 -0.3147
 9938SOL     OW31055   7.014   4.476   8.115 -0.3990 -0.3723  0.5331
 9938SOL    HW131056   7.067   4.476   8.035 -0.4627  0.0059  0.4914
 9938SOL    HW231057   6.946   4.541   8.099  0.0711  0.2980  1.2176
 9939SOL     OW31058   6.686   6.852   6.647  0.4252 -0.3645 -0.0139
 9939SOL    HW131059   6.723   6.939   6.652 -1.3724  0.3599  1.2043
 9939SOL    HW231060   6.703   6.813   6.733  0.5656 -0.9470 -0.3000
 9940SOL     OW31061   4.452   1.116   3.734 -0.0684 -1.0283  0.2682
 9940SOL    HW131062   4.377   1.062   3.758 -0.0391 -1.0108  0.3969
 9940SOL    HW231063   4.471   1.092   3.644 -1.5394  0.4548 -0.4631
 9941SOL     OW31064   0.003   7.025   0.223  0.3927 -0.0849  0.3546
 9941SOL    HW131065   0.026   7.035   0.130  0.4417  0.7284  0.4471
 9941SOL    HW231066   0.038   7.104   0.264 -0.7941  0.1945  0.8399
 9942SOL     OW31067   1.768   7.665   6.215 -0.0409 -0.1632 -0.1861
 9942SOL    HW131068   1.758   7.665   6.310 -1.3766  0.5393 -0.3142
 9942SOL    HW231069   1.852   7.708   6.199  0.0459 -0.0196  0.6587
 9943SOL     OW31070   3.454   0.508   6.542 -0.3573 -0.4308  0.2439
 9943SOL    HW131071   3.421   0.435   6.594 -2.0168  0.3078  0.2415
 9943SOL    HW231072   3.543   0.522   6.575 -0.6597 -1.2835  1.4721
 9944SOL     OW31073   0.876   8.244   1.526  0.3478  0.0343 -0.1809
 9944SOL    HW131074   0.917   8.168   1.568  1.6612  1.3143  0.9295
 9944SOL    HW231075   0.861   8.306   1.598 -2.7538 -0.0152 -0.7003
 9945SOL     OW31076   6.718   0.648   4.695  0.6121  0.2974  0.3171
 9945SOL    HW131077   6.757   0.726   4.656  0.0611 -0.3778 -1.5943
 9945SOL    HW231078   6.641   0.681   4.741  1.0556  1.0405  0.5432
 9946SOL     OW31079   1.114   6.243   5.933 -0.5600  0.2151 -0.0748
 9946SOL    HW131080   1.099   6.207   6.020 -2.5520  0.8639 -0.1151
 9946SOL    HW231081   1.027   6.268   5.902  0.3467  1.7854 -1.4651
 9947SOL     OW31082   6.675   1.687   4.438  0.3143 -0.4889  0.5338
 9947SOL    HW131083   6.609   1.642   4.491 -1.3915  0.8126 -0.4178
 9947SOL    HW231084   6.687   1.772   4.481  1.5321 -0.7976  0.8168
 9948SOL     OW31085   2.910   5.632   6.316  0.1264  0.3540 -0.5529
 9948SOL    HW131086   2.961   5.712   6.302 -1.1842  1.6634  1.9065
 9948SOL    HW231087   2.820   5.659   6.302 -0.4688 -0.3036  1.9144
 9949SOL     OW31088   4.356   5.860   6.731 -0.1843 -0.1609 -0.5660
 9949SOL    HW131089   4.279   5.916   6.739  0.5860  1.0305 -1.4216
 9949SOL    HW231090   4.429   5.915   6.756  0.5726 -0.8187 -1.3027
 9950SOL     OW31091   6.175   5.435   1.696 -0.2344 -0.5926 -0.2870
 9950SOL    HW131092   6.262   5.405   1.723 -0.5638  1.0893  2.8543
 9950SOL    HW231093   6.120   5.357   1.702  0.5918 -1.1761 -0.1666
 9951SOL     OW31094   4.148   5.660   8.041  0.6806 -0.0289 -0.5152
 9951SOL    HW131095   4.168   5.566   8.045  0.4565 -0.1241 -1.5243
 9951SOL    HW231096   4.234   5.702   8.037  0.7953 -0.1603  0.3490
 9952SOL     OW31097   7.363   0.639   7.862  0.2339 -0.1963 -0.7124
 9952SOL    HW131098   7.350   0.566   7.924  0.8907  0.5872  0.3739
 9952SOL    HW231099   7.408   0.706   7.914 -2.3219  1.8730 -1.0913
 9953SOL     OW31100   7.506   0.035   4.923  0.8382  0.2032 -0.1477
 9953SOL    HW131101   7.594   0.069   4.907  0.9509 -0.6709 -1.4319
 9953SOL    HW231102   7.513  -0.059   4.905 -0.1868  0.0149  0.4298
 9954SOL     OW31103   7.176   2.788   0.076  0.1023 -0.5274  0.3919
 9954SOL    HW131104   7.104   2.729   0.056 -1.0242  1.4574 -1.6789
 9954SOL    HW231105   7.224   2.797  -0.007  1.4755 -0.1546  1.1995
 9955SOL     OW31106   0.681   7.591   5.884 -0.1387 -0.6791 -0.2885
 9955SOL    HW131107   0.745   7.591   5.954 -0.8488 -1.0216  0.3702
 9955SOL    HW231108   0.665   7.684   5.865 -2.3611 -0.4615  2.2597
 9956SOL     OW31109   2.887   4.995   4.737 -0.4825 -0.2293  0.5249
 9956SOL    HW131110   2.866   5.018   4.646  0.7444  2.0983  0.7821
 9956SOL    HW231111   2.853   4.906   4.748 -3.2253  0.5059 -1.3480
 9957SOL     OW31112   1.774   6.128   3.415 -0.2408 -0.0580 -0.2770
 9957SOL    HW131113   1.836   6.184   3.461  0.5012 -1.2361  0.1793
 9957SOL    HW231114   1.783   6.152   3.323 -1.2247  1.8212  0.1003
 9958SOL     OW31115   0.210   2.306   3.973  1.1449 -0.5981 -0.0907
 9958SOL    HW131116   0.198   2.387   4.022  2.2999 -1.6079  1.9426
 9958SOL    HW231117   0.284   2.323   3.915 -0.9218  0.9675 -2.3459
 9959SOL     OW31118   3.304   0.465   6.282  0.0520  0.5133  0.0273
 9959SOL    HW131119   3.312   0.556   6.253  0.4279  1.0526  1.7582
 9959SOL    HW231120   3.318   0.469   6.377  0.4588 -1.3977  0.0680
 9960SOL     OW31121   4.132   5.897   4.648  0.7238  0.5537 -0.7014
 9960SOL    HW131122   4.049   5.916   4.604  0.2880  0.1453 -0.0661
 9960SOL    HW231123   4.106   5.870   4.737  1.4758 -0.4492 -0.7828
 9961SOL     OW31124   3.236   0.925   5.233  0.0949 -0.3133  0.1744
 9961SOL    HW131125   3.218   1.019   5.244 -1.0423 -0.3492 -1.2175
 9961SOL    HW231126   3.191   0.884   5.306  0.0682  0.1786  0.4404
 9962SOL     OW31127   7.007   1.748   0.918  0.7039  0.1083 -0.2756
 9962SOL    HW131128   7.046   1.749   0.831 -1.3754  0.1414 -1.2205
 9962SOL    HW231129   6.954   1.828   0.922  0.2571 -0.2245  0.7815
 9963SOL     OW31130   2.432   4.001   5.791 -0.1227  0.4489 -0.0750
 9963SOL    HW131131   2.387   4.070   5.839  0.7433  0.1591  1.1585
 9963SOL    HW231132   2.375   3.983   5.716 -0.4349  2.3768 -0.3278
 9964SOL     OW31133   7.594   7.542   5.364 -0.6964  0.0914 -0.2340
 9964SOL    HW131134   7.680   7.580   5.383 -0.4607  1.0826 -3.0331
 9964SOL    HW231135   7.611   7.479   5.294 -2.2036  0.1190 -0.6334
 9965SOL     OW31136   5.003   0.297   1.374  0.2102  0.1794 -0.1816
 9965SOL    HW131137   4.964   0.366   1.427 -3.3499 -1.2577 -0.8311
 9965SOL    HW231138   5.011   0.223   1.435  1.2040  0.1829 -0.2884
 9966SOL     OW31139   1.346   6.027   1.805 -0.2387  0.6955  0.0481
 9966SOL    HW131140   1.433   6.058   1.833  0.7811 -1.8322 -0.1516
 9966SOL    HW231141   1.303   6.002   1.887 -0.5831  1.4528  0.1003
 9967SOL     OW31142   6.034   6.878   6.537 -0.8577 -0.3131 -0.4542
 9967SOL    HW131143   6.109   6.821   6.551 -1.1882 -0.5716  0.2937
 9967SOL    HW231144   6.058   6.961   6.578 -1.3432 -0.6900  0.6153
 9968SOL     OW31145   7.279   6.986   0.908  0.2620 -0.3038  0.2909
 9968SOL    HW131146   7.280   6.998   0.813  2.4373  0.9911  0.4469
 9968SOL    HW231147   7.314   6.898   0.921  0.6010 -0.2292 -0.0849
 9969SOL     OW31148   0.385   5.161   6.752 -0.8137  0.2649 -0.1562
 9969SOL    HW131149   0.373   5.109   6.830 -0.7819  1.3551  0.5878
 9969SOL    HW231150   0.464   5.126   6.711  0.2392  0.8972  1.2982
 9970SOL     OW31151   4.832   2.906   4.420  0.8205 -0.3282 -0.0934
 9970SOL    HW131152   4.742   2.881   4.401  0.2132  1.7190  0.0002
 9970SOL    HW231153   4.836   3.000   4.400  3.0646 -0.5083 -0.6061
 9971SOL     OW31154   7.929   5.305   1.389 -0.2101  0.2510  0.1331
 9971SOL    HW131155   7.878   5.346   1.459 -0.4103 -1.1169  0.7969
 9971SOL    HW231156   7.981   5.376   1.352 -2.5957  1.6924 -0.5645
 9972SOL     OW31157   0.464   7.530   1.252  0.4500 -0.2496  0.3739
 9972SOL    HW131158   0.426   7.447   1.281  0.2199 -0.2472  0.0779
 9972SOL    HW231159   0.524   7.554   1.322 -0.7805  0.2099  1.2826
 9973SOL     OW31160   1.163   6.606   5.479  0.3587 -0.2103  0.0331
 9973SOL    HW131161   1.068   6.615   5.493  0.3521 -1.5824  0.9714
 9973SOL    HW231162   1.184   6.520   5.515  2.2001  0.6549  1.0999
 9974SOL     OW31163   1.687   5.197   0.469 -0.0924 -0.0539 -0.3807
 9974SOL    HW131164   1.735   5.196   0.553  0.6026 -1.1406 -0.7774
 9974SOL    HW231165   1.691   5.288   0.441  0.2731  0.1915  0.4365
 9975SOL     OW31166   2.284   1.669   0.802 -0.2064  0.5315 -0.2291
 9975SOL    HW131167   2.354   1.733   0.817 -0.4188  0.3797  1.4537
 9975SOL    HW231168   2.218   1.690   0.867 -0.2098 -1.5048  0.4434
 9976SOL     OW31169   2.341   5.552   1.924 -0.1146  0.1792 -0.4859
 9976SOL    HW131170   2.410   5.521   1.983 -1.2191 -0.4625  0.4940
 9976SOL    HW231171   2.288   5.610   1.977  0.4034  1.7045 -1.5986
 9977SOL     OW31172   8.230   0.163   1.316  0.4469 -0.7350 -0.2522
 9977SOL    HW131173   8.309   0.212   1.339  1.1666 -1.3027 -1.4590
 9977SOL    HW231174   8.211   0.189   1.226  0.2832 -1.9375 -0.5703
 9978SOL     OW31175   8.294   1.578   7.654  0.1985  0.0061 -0.0588
 9978SOL    HW131176   8.299   1.636   7.729 -0.5083  0.2587 -0.2016
 9978SOL    HW231177   8.253   1.631   7.585 -0.4539 -0.6527 -0.1867
 9979SOL     OW31178   6.777   5.230   6.679  0.7829 -0.7921  0.3247
 9979SOL    HW131179   6.705   5.190   6.630  0.1776 -1.3079  1.6136
 9979SOL    HW231180   6.845   5.162   6.682  0.8201 -0.7604  0.2150
 9980SOL     OW31181   3.639   7.269   2.531  0.3812 -0.0010 -0.4026
 9980SOL    HW131182   3.660   7.362   2.522  3.3598 -0.5814  0.0873
 9980SOL    HW231183   3.632   7.256   2.626 -0.4186 -0.2071 -0.4895
 9981SOL     OW31184   0.994   5.321   2.283 -0.2498 -0.0961 -0.1843
 9981SOL    HW131185   0.993   5.416   2.274 -1.0882  0.1021  1.7227
 9981SOL    HW231186   1.085   5.299   2.301 -0.0564  0.3460 -0.6191
 9982SOL     OW31187   2.531   2.528   3.193  0.2172  0.1937 -0.6015
 9982SOL    HW131188   2.438   2.526   3.170  0.4751  0.8067 -1.7584
 9982SOL    HW231189   2.548   2.620   3.213  0.7248  0.1898 -1.0190
 9983SOL     OW31190   0.590   5.344   2.274  0.2793 -0.0735 -0.0877
 9983SOL    HW131191   0.676   5.369   2.309  0.3942  0.5496 -0.8045
 9983SOL    HW231192   0.586   5.249   2.286  1.2666 -0.1730 -0.4897
 9984SOL     OW31193   7.294   4.829   4.288  0.0072  0.0072 -0.3976
 9984SOL    HW131194   7.353   4.905   4.283 -0.4218  0.2847 -1.3879
 9984SOL    HW231195   7.353   4.754   4.295  0.4433  0.4064  0.3738
 9985SOL     OW31196   5.886   6.854   5.597 -0.0672  0.5214  0.4415
 9985SOL    HW131197   5.927   6.780   5.552 -1.1289  0.4553 -0.4461
 9985SOL    HW231198   5.856   6.817   5.680  0.2526  0.1832  0.4082
 9986SOL     OW31199   8.182   5.017   5.920 -0.0336  0.2588  0.5432
 9986SOL    HW131200   8.144   4.952   5.979  1.7650  0.0188  1.4908
 9986SOL    HW231201   8.168   5.100   5.965  0.5961  0.1610  0.9374
 9987SOL     OW31202   2.310   2.768   5.066 -0.0823 -0.0323  0.4171
 9987SOL    HW131203   2.270   2.691   5.106 -0.1499 -0.3538 -0.2594
 9987SOL    HW231204   2.371   2.801   5.132 -0.9560  0.0582  1.1919
 9988SOL     OW31205   3.660   7.020   4.300 -0.5266  0.2511  0.2847
 9988SOL    HW131206   3.736   6.963   4.292 -0.6863  0.1242 -0.3539
 9988SOL    HW231207   3.608   6.981   4.370 -0.0473  0.2911  0.6638
 9989SOL     OW31208   1.040   3.394   1.981  0.2022 -0.2229  0.5064
 9989SOL    HW131209   0.972   3.331   2.008  0.1641  0.0205  0.9709
 9989SOL    HW231210   0.992   3.475   1.966  0.2838 -0.2479  0.1040
 9990SOL     OW31211   6.627   8.165   1.756 -0.4180 -0.5561  0.5308
 9990SOL    HW131212   6.615   8.258   1.774 -0.9890 -0.4811 -0.2281
 9990SOL    HW231213   6.639   8.126   1.843 -0.7775  0.1417  0.9014
 9991SOL     OW31214   0.190   3.142   4.452 -0.3970 -0.1043  0.1841
 9991SOL    HW131215   0.179   3.083   4.377  0.9429 -2.1133  1.5161
 9991SOL    HW231216   0.253   3.207   4.423 -0.6877 -0.2482 -0.7921
 9992SOL     OW31217   5.485   1.706   0.921 -0.3603  0.3276 -0.0051
 9992SOL    HW131218   5.482   1.796   0.954  0.5893 -0.2761  1.8190
 9992SOL    HW231219   5.513   1.654   0.996 -0.7568 -1.4867 -1.0735
 9993SOL     OW31220   2.157   5.754   2.028 -0.2278  0.2574 -0.1745
 9993SOL    HW131221   2.132   5.817   2.095  0.3015  1.1591 -0.8093
 9993SOL    HW231222   2.078   5.745   1.974  0.4262  2.2625 -1.5266
 9994SOL     OW31223   7.764   5.629   0.281 -0.2184  0.0177  0.0076
 9994SOL    HW131224   7.698   5.563   0.299  0.2646 -1.0639 -2.0110
 9994SOL    HW231225   7.714   5.705   0.249 -0.5075 -0.7620 -1.4220
 9995SOL     OW31226   7.340   0.330   5.754 -0.1107  0.2569 -0.0542
 9995SOL    HW131227   7.263   0.332   5.697  0.1705  1.6949 -0.4037
 9995SOL    HW231228   7.410   0.367   5.701  0.4837  0.3169  0.7582
 9996SOL     OW31229   1.049   1.671   3.169 -0.4274 -0.5740 -0.4458
 9996SOL    HW131230   1.116   1.686   3.235 -0.0459 -1.9713 -0.4888
 9996SOL    HW231231   1.085   1.707   3.089  0.2399 -1.2147 -0.4438
 9997SOL     OW31232   0.038   0.838   3.339  0.3204 -0.7763 -0.0388
 9997SOL    HW131233   0.131   0.825   3.358  0.7954 -0.6209 -2.1272
 9997SOL    HW231234   0.019   0.773   3.272 -0.9232 -0.3407 -0.1093
 9998SOL     OW31235   0.734   2.758   1.248  0.1686  0.0862 -0.1635
 9998SOL    HW131236   0.664   2.817   1.277 -0.8000 -1.2196  0.2406
 9998SOL    HW231237   0.710   2.673   1.286  0.9527 -0.8067 -1.6211
 9999SOL     OW31238   3.326   6.308   0.051 -0.1166 -0.3607 -0.4741
 9999SOL    HW131239   3.355   6.226   0.092  0.4594  0.3775  0.6052
 9999SOL    HW231240   3.233   6.314   0.074 -0.2347 -0.8661 -0.8151
10000SOL     OW31241   5.741   7.044   4.732  0.1311  0.2107 -0.2788
10000SOL    HW131242   5.814   7.095   4.767  1.0570 -0.7557 -0.7949
10000SOL    HW231243   5.709   6.994   4.807  0.0162  0.5881 -0.0691
10001SOL     OW31244   7.615   4.493   1.278  0.8583  0.2434 -0.2210
10001SOL    HW131245   7.600   4.488   1.183 -0.8224  0.9650 -0.0055
10001SOL    HW231246   7.638   4.585   1.294  0.2872  0.3161  0.1890
10002SOL     OW31247   3.163   4.321   3.215 -0.3994 -0.1813 -0.1225
10002SOL    HW131248   3.233   4.289   3.160 -0.9534 -1.5987 -0.0297
10002SOL    HW231249   3.141   4.407   3.179  1.1549  0.1365 -0.3359
10003SOL     OW31250   0.807   2.296   8.277  0.3460  0.1607 -0.5233
10003SOL    HW131251   0.741   2.319   8.343  1.1919  1.4213 -0.0800
10003SOL    HW231252   0.779   2.211   8.244 -0.3866 -0.2565  1.0953
10004SOL     OW31253   6.007   6.624   1.458 -0.0826 -0.2948 -0.0729
10004SOL    HW131254   5.997   6.533   1.430 -0.3414 -0.2246 -0.2079
10004SOL    HW231255   5.931   6.642   1.513  0.3466 -0.3845  0.5601
10005SOL     OW31256   1.857   4.120   3.297  0.0594  1.1757 -0.1646
10005SOL    HW131257   1.890   4.084   3.379  0.0399 -0.0400 -0.6767
10005SOL    HW231258   1.936   4.150   3.251  0.0413  2.1388  0.4240
10006SOL     OW31259   1.488   4.485   7.956  0.4399 -0.3310  0.2056
10006SOL    HW131260   1.561   4.442   8.000  0.7961 -2.1422 -2.0665
10006SOL    HW231261   1.451   4.543   8.022  1.9085 -1.8027  2.3772
10007SOL     OW31262   2.868   0.380   5.229  0.3358  0.0774 -0.3423
10007SOL    HW131263   2.874   0.287   5.206  0.0259 -0.6493  2.2861
10007SOL    HW231264   2.861   0.380   5.325 -0.1861  2.7981 -0.3470
10008SOL     OW31265   0.076   2.533   7.986 -0.7784  0.3618 -0.0871
10008SOL    HW131266   0.064   2.620   7.948 -1.3730  1.1834  1.9524
10008SOL    HW231267   0.068   2.546   8.080 -1.6854 -2.0233  0.2092
10009SOL     OW31268   5.968   3.099   5.876  0.4698  0.0226 -0.2076
10009SOL    HW131269   5.958   3.172   5.936  0.4707 -1.8313  2.1227
10009SOL    HW231270   5.879   3.078   5.848  0.4822  0.9860 -0.9570
10010SOL     OW31271   4.390   7.613   0.820  0.4423 -0.5655 -0.1843
10010SOL    HW131272   4.421   7.666   0.895 -0.3340 -2.2815  1.3867
10010SOL    HW231273   4.463   7.616   0.758  0.8892  1.3586  0.3921
10011SOL     OW31274   3.656   6.710   4.666 -0.5274 -0.3984 -0.1406
10011SOL    HW131275   3.749   6.688   4.659 -0.5843 -0.5480 -0.4573
10011SOL    HW231276   3.647   6.753   4.751 -0.5403 -2.2965  0.8496
10012SOL     OW31277   7.988   2.997   7.188 -0.2226  0.1058 -0.5646
10012SOL    HW131278   7.910   3.018   7.137 -1.0536 -0.6579  0.3651
10012SOL    HW231279   7.999   2.903   7.178  0.0828  0.0802 -0.0206
10013SOL     OW31280   5.336   0.509   7.175 -0.5395  0.0803  0.4865
10013SOL    HW131281   5.259   0.537   7.225 -0.8234  0.3684 -0.1125
10013SOL    HW231282   5.313   0.525   7.083  0.2966  0.3241  0.3109
10014SOL     OW31283   3.849   3.427   8.223  0.2832 -0.4800 -0.6489
10014SOL    HW131284   3.855   3.430   8.128 -1.1383 -3.5729 -0.8964
10014SOL    HW231285   3.779   3.364   8.241  0.8254 -0.2911  2.4428
10015SOL     OW31286   3.316   0.807   4.295  0.3219  0.0295 -0.0420
10015SOL    HW131287   3.378   0.814   4.367  1.9588  0.3365 -1.4578
10015SOL    HW231288   3.367   0.769   4.223 -1.4567 -0.9214 -0.8262
10016SOL     OW31289   2.307   0.085   6.739 -0.1380  0.6990  0.5368
10016SOL    HW131290   2.310   0.153   6.673  3.5039 -1.3907 -1.5996
10016SOL    HW231291   2.334   0.005   6.693 -1.1778 -1.5697  3.6819
10017SOL     OW31292   0.129   1.990   5.540  0.0924 -0.5641 -0.3432
10017SOL    HW131293   0.068   2.022   5.606  1.0933  1.0066 -0.1347
10017SOL    HW231294   0.077   1.932   5.485 -0.5041 -2.7395  2.4276
10018SOL     OW31295   5.132   0.360   4.310  0.1343  0.5267  0.1022
10018SOL    HW131296   5.185   0.342   4.232  2.5383  2.8317  1.1715
10018SOL    HW231297   5.060   0.414   4.277  0.4269  0.4271 -0.7306
10019SOL     OW31298   3.922   1.091   5.233  0.0603 -0.1721  0.3763
10019SOL    HW131299   3.945   1.041   5.311  2.8563 -0.7938 -0.7768
10019SOL    HW231300   3.936   1.030   5.160 -2.2022  0.4876 -0.6538
10020SOL     OW31301   5.589   0.494   2.935 -0.1941  0.4692  0.3658
10020SOL    HW131302   5.526   0.540   2.991  0.2991  0.9826  0.5068
10020SOL    HW231303   5.543   0.482   2.852 -0.0507  1.9174  0.0713
10021SOL     OW31304   4.019   4.207   6.272 -0.1274 -0.1095 -0.0264
10021SOL    HW131305   4.097   4.224   6.324 -0.0865  0.7677 -0.3730
10021SOL    HW231306   3.991   4.293   6.240  0.1264 -0.6805 -1.8672
10022SOL     OW31307   5.120   0.017   3.006  0.1425  0.1129 -0.3141
10022SOL    HW131308   5.206   0.015   3.048 -0.5345 -2.1159  1.0767
10022SOL    HW231309   5.061   0.049   3.073 -0.2128  1.1100 -1.0925
10023SOL     OW31310   3.814   1.062   2.907  0.5394 -0.7979  0.2087
10023SOL    HW131311   3.731   1.034   2.869  0.0466  1.0464 -0.1202
10023SOL    HW231312   3.880   1.040   2.841  0.2444 -1.6581  0.1921
10024SOL     OW31313   7.144   2.461   2.749  0.2591 -0.4401 -0.3299
10024SOL    HW131314   7.098   2.432   2.670  0.0005 -0.4093 -0.1906
10024SOL    HW231315   7.176   2.380   2.789  1.3106 -0.3816 -1.0258
10025SOL     OW31316   6.531   5.785   6.942  0.2946 -0.0467  0.0620
10025SOL    HW131317   6.615   5.747   6.969  0.3331 -0.2191 -0.3124
10025SOL    HW231318   6.548   5.824   6.857  0.6119  2.0059  1.0300
10026SOL     OW31319   7.497   1.399   0.309 -0.3558 -0.2564 -0.0200
10026SOL    HW131320   7.463   1.430   0.393 -1.1423 -0.9043 -0.0947
10026SOL    HW231321   7.569   1.458   0.289  0.3138 -0.5497  1.4721
10027SOL     OW31322   6.661   2.433   2.576 -0.2107 -0.7358 -0.0616
10027SOL    HW131323   6.666   2.526   2.554 -0.2825 -0.6127  0.4346
10027SOL    HW231324   6.650   2.432   2.671  0.5550 -1.2784  0.0224
10028SOL     OW31325   6.223   4.214   3.718  0.0768 -0.0197 -0.0382
10028SOL    HW131326   6.232   4.177   3.630 -1.5618  0.3162 -0.3638
10028SOL    HW231327   6.179   4.146   3.769 -1.9811  1.0427 -0.3645
10029SOL     OW31328   5.581   4.441   4.294 -0.4707  0.4890  0.2005
10029SOL    HW131329   5.672   4.446   4.264 -0.0817  2.1513  1.5612
10029SOL    HW231330   5.549   4.357   4.261  1.7109 -0.3299  0.0976
10030SOL     OW31331   2.080   3.889   8.011 -0.2556  0.2056  0.2580
10030SOL    HW131332   2.170   3.890   7.977 -0.7560  1.7564 -1.0655
10030SOL    HW231333   2.085   3.939   8.093  0.1893 -0.1723  0.4643
10031SOL     OW31334   7.742   6.588   4.256 -0.2677 -0.3947 -0.7556
10031SOL    HW131335   7.662   6.537   4.248  1.3366 -3.1055  0.0322
10031SOL    HW231336   7.812   6.527   4.236  1.8097  1.0262  1.8446
10032SOL     OW31337   4.048   5.423   5.456  0.0381 -0.3147  0.2823
10032SOL    HW131338   4.111   5.445   5.388 -1.3235  0.2137 -0.8240
10032SOL    HW231339   4.084   5.345   5.498  0.7616 -0.7984 -1.2112
10033SOL     OW31340   1.492   2.693   5.415 -0.2224 -0.7393  0.0072
10033SOL    HW131341   1.420   2.686   5.477 -0.9366 -1.5769 -0.8893
10033SOL    HW231342   1.500   2.606   5.377  0.7581 -0.4580 -0.4698
10034SOL     OW31343   0.160   7.933   0.749 -0.7321  0.1121 -0.2070
10034SOL    HW131344   0.203   7.971   0.673  0.4023 -0.5088  0.1093
10034SOL    HW231345   0.089   7.880   0.713  1.0685 -1.8655 -0.9974
10035SOL     OW31346   1.847   0.632   6.668 -0.3867 -0.6996  0.3009
10035SOL    HW131347   1.823   0.678   6.749 -2.2725  0.5392 -0.9235
10035SOL    HW231348   1.941   0.649   6.658 -0.4112  0.2497  1.5193
10036SOL     OW31349   3.562   7.897   6.486 -0.4176  0.0343  0.4307
10036SOL    HW131350   3.472   7.895   6.520 -0.3331  1.3823  0.7664
10036SOL    HW231351   3.594   7.984   6.510 -0.1047  0.7435 -2.4531
10037SOL     OW31352   7.388   1.956   2.515 -0.1863  0.1183 -0.7753
10037SOL    HW131353   7.446   1.896   2.469  0.6840  0.0382  0.4002
10037SOL    HW231354   7.447   2.015   2.562 -1.0518 -1.2770  2.1492
10038SOL     OW31355   8.223   6.635   0.878 -0.6359  0.4132  0.0507
10038SOL    HW131356   8.162   6.616   0.807 -2.7073  2.2464  1.3085
10038SOL    HW231357   8.277   6.706   0.845  0.9303 -1.2400 -1.0782
10039SOL     OW31358   1.337   4.097   5.392 -0.3399  0.4201  0.2399
10039SOL    HW131359   1.272   4.085   5.323  1.0935  0.9098 -1.2549
10039SOL    HW231360   1.379   4.011   5.401  1.7243  1.1284 -1.9106
10040SOL     OW31361   3.599   2.153   0.485 -0.2281 -0.1300  0.2140
10040SOL    HW131362   3.582   2.201   0.405 -0.8580  3.3146  2.3156
10040SOL    HW231363   3.694   2.152   0.494 -0.1675 -0.3224 -0.4407
10041SOL     OW31364   0.894   0.536   3.052 -1.0081  0.3175  0.3324
10041SOL    HW131365   0.874   0.463   3.110  0.7897 -0.6997 -0.3102
10041SOL    HW231366   0.878   0.614   3.106 -0.5641 -0.5893  1.8116
10042SOL     OW31367   5.978   1.223   5.001 -0.4929 -0.1131 -0.1335
10042SOL    HW131368   5.985   1.169   4.922  1.4541 -2.3673  1.5576
10042SOL    HW231369   5.918   1.176   5.058  2.6451 -1.5669  2.1218
10043SOL     OW31370   6.979   1.309   7.301 -0.5407 -0.0926 -0.1755
10043SOL    HW131371   6.996   1.225   7.258  0.2210  0.9100 -1.8725
10043SOL    HW231372   6.923   1.287   7.375  0.3196 -2.2057 -0.1271
10044SOL     OW31373   1.801   1.275   4.070 -0.1814  0.5737 -0.5949
10044SOL    HW131374   1.839   1.225   3.998  0.0854 -0.3049  0.1495
10044SOL    HW231375   1.758   1.349   4.027 -2.2496 -1.3147 -1.8858
10045SOL     OW31376   2.885   6.115   2.309  0.0334  0.2345  1.1342
10045SOL    HW131377   2.950   6.089   2.375  0.8405  2.0609  1.0972
10045SOL    HW231378   2.801   6.110   2.355  0.4269  0.0028  1.8373
10046SOL     OW31379   1.072   4.608   0.444  0.5292  0.2205 -0.3548
10046SOL    HW131380   1.066   4.702   0.461  3.8487  0.4764 -0.3847
10046SOL    HW231381   1.044   4.598   0.353 -3.1731  0.6827  0.6559
10047SOL     OW31382   6.549   2.158   4.487 -0.2470 -0.3219  0.0115
10047SOL    HW131383   6.510   2.072   4.473 -1.5262  0.4241 -1.1338
10047SOL    HW231384   6.490   2.201   4.550 -0.6690  0.3920 -0.8570
10048SOL     OW31385   3.240   0.419   1.970 -0.1012 -0.0434  0.1115
10048SOL    HW131386   3.261   0.327   1.955  1.5630  0.4924 -0.9530
10048SOL    HW231387   3.325   0.464   1.973 -0.9440  1.7601 -1.5069
10049SOL     OW31388   6.564   8.124   4.255 -0.7891  0.0204  0.5831
10049SOL    HW131389   6.564   8.154   4.346 -1.2386  1.5998  0.0858
10049SOL    HW231390   6.554   8.029   4.261  1.1397 -0.1243  2.2289
10050SOL     OW31391   3.965   3.319   1.621  0.0858  0.0579 -0.4734
10050SOL    HW131392   3.945   3.259   1.692 -1.7964  1.9546  0.6684
10050SOL    HW231393   4.060   3.311   1.609  0.1163 -1.8476  0.7968
10051SOL     OW31394   1.893   1.873   2.306 -0.0176  0.4334 -0.3205
10051SOL    HW131395   1.846   1.879   2.223  0.3607 -0.4070 -0.5986
10051SOL    HW231396   1.977   1.916   2.289 -0.1545  0.7438 -0.2137
10052SOL     OW31397   3.640   4.051   7.539  0.5531  0.4089  0.3061
10052SOL    HW131398   3.592   4.113   7.485  1.2521  0.1681 -0.5936
10052SOL    HW231399   3.571   4.000   7.583 -0.0620 -1.0051 -2.1956
10053SOL     OW31400   0.616   8.300   1.383  0.0248 -0.0675  0.0247
10053SOL    HW131401   0.690   8.266   1.435 -0.4275  0.4728  1.0393
10053SOL    HW231402   0.572   8.221   1.351  0.6640 -0.3999 -0.0519
10054SOL     OW31403   3.470   5.280   5.473 -0.2250  0.1200 -0.0198
10054SOL    HW131404   3.532   5.254   5.405  0.3505  1.3384  0.0164
10054SOL    HW231405   3.485   5.218   5.545 -0.2794 -0.6798 -0.6934
10055SOL     OW31406   3.028   7.344   3.990 -0.1691  0.2593  0.1223
10055SOL    HW131407   3.081   7.312   4.063  0.0211  0.6887  0.1773
10055SOL    HW231408   3.077   7.317   3.912  0.9635  2.0319  0.1946
10056SOL     OW31409   3.723   4.728   0.528  0.1435 -0.1195  0.1039
10056SOL    HW131410   3.731   4.694   0.617 -1.6604  0.7342  0.6261
10056SOL    HW231411   3.709   4.822   0.539  0.8248  0.1297 -1.1212
10057SOL     OW31412   2.884   0.097   2.282 -0.2465 -1.0152 -0.0469
10057SOL    HW131413   2.832   0.034   2.233  0.4465 -1.5221 -0.1307
10057SOL    HW231414   2.824   0.170   2.298 -0.9011 -1.4783 -0.3771
10058SOL     OW31415   3.629   4.980   7.469 -0.0524  0.3936  0.4406
10058SOL    HW131416   3.676   4.905   7.435 -3.8136 -1.3171 -1.3188
10058SOL    HW231417   3.607   5.032   7.391 -2.3780  0.3021  0.9933
10059SOL     OW31418   5.373   6.784   5.450 -0.0967  0.4775 -0.2167
10059SOL    HW131419   5.324   6.824   5.378  0.8628  2.2309  0.0886
10059SOL    HW231420   5.318   6.710   5.477 -0.1956 -0.5827 -3.1187
10060SOL     OW31421   4.921   1.567   1.555 -0.1230  0.2588  0.2718
10060SOL    HW131422   4.893   1.518   1.632 -0.6425  0.2030  0.0494
10060SOL    HW231423   4.840   1.586   1.508  0.1812  0.3831 -0.2038
10061SOL     OW31424   5.164   4.956   1.408 -0.2779 -0.3401 -0.4690
10061SOL    HW131425   5.138   4.971   1.499  0.3362 -2.8993  0.1736
10061SOL    HW231426   5.260   4.965   1.410 -0.3472  0.6280 -1.0981
10062SOL     OW31427   0.986   2.553   1.084  0.6658 -0.2665 -0.0957
10062SOL    HW131428   1.076   2.541   1.116  0.2399 -0.9869  0.8606
10062SOL    HW231429   0.937   2.480   1.123 -0.3588  0.1986 -0.5094
10063SOL     OW31430   4.116   1.765   0.941 -0.1677  0.3949  0.0358
10063SOL    HW131431   4.206   1.787   0.963  0.0833  0.0761 -0.6764
10063SOL    HW231432   4.103   1.801   0.854 -0.7991  0.6284  0.2230
10064SOL     OW31433   2.099   7.804   6.447  0.0452 -0.1899 -0.4632
10064SOL    HW131434   2.092   7.715   6.413 -1.4124 -0.3104  0.1157
10064SOL    HW231435   2.142   7.853   6.377 -1.3049 -0.8172 -1.7655
10065SOL     OW31436   2.596   7.458   7.604 -0.3988 -0.2079 -0.9402
10065SOL    HW131437   2.518   7.496   7.644  0.7718  0.9688  0.2758
10065SOL    HW231438   2.653   7.533   7.585  0.1366 -0.9871 -2.4765
10066SOL     OW31439   2.806   8.150   3.609 -0.0094  0.2374  0.0854
10066SOL    HW131440   2.775   8.192   3.689 -0.3500  1.5005 -0.7050
10066SOL    HW231441   2.792   8.056   3.625  0.6059  0.4149  1.7843
10067SOL     OW31442   4.656   3.326   4.659 -1.4233  0.0746 -0.3485
10067SOL    HW131443   4.563   3.327   4.681 -0.9672  0.4428  1.6081
10067SOL    HW231444   4.701   3.338   4.742  0.3975 -0.3879 -1.2384
10068SOL     OW31445   4.951   7.260   3.444  0.0356  0.2190  0.4742
10068SOL    HW131446   5.031   7.208   3.439 -0.1463 -0.2812  2.3307
10068SOL    HW231447   4.979   7.344   3.480 -0.1511  0.3666  0.2813
10069SOL     OW31448   4.521   5.662   3.813 -0.0096  1.0283  0.3394
10069SOL    HW131449   4.567   5.661   3.729  0.6013 -0.6964  0.6732
10069SOL    HW231450   4.510   5.754   3.833  1.3728  1.4589 -0.8023
10070SOL     OW31451   6.835   2.328   3.560 -0.2668 -0.2406  0.4292
10070SOL    HW131452   6.814   2.237   3.583  0.3396 -0.8934 -1.4601
10070SOL    HW231453   6.870   2.322   3.471  0.3441  1.7844  0.5144
10071SOL     OW31454   0.125   3.703   4.769  0.6060  0.1167  0.9530
10071SOL    HW131455   0.214   3.699   4.734  0.2585  0.0989  0.0654
10071SOL    HW231456   0.087   3.618   4.747  0.0577  0.4796  0.4902
10072SOL     OW31457   0.861   1.417   6.232  0.0872  0.3110  0.3635
10072SOL    HW131458   0.821   1.495   6.194 -0.9890 -0.3506  0.1027
10072SOL    HW231459   0.798   1.389   6.299  0.1077 -0.7666 -0.0644
10073SOL     OW31460   3.060   2.542   4.157 -0.2197 -0.0816 -0.6986
10073SOL    HW131461   3.049   2.616   4.098  2.1192  2.4068  1.8087
10073SOL    HW231462   3.133   2.492   4.120  1.0658  1.3245 -0.1147
10074SOL     OW31463   8.258   4.972   7.155 -0.0378 -0.6416 -0.0188
10074SOL    HW131464   8.184   4.989   7.097  0.9165 -0.2049 -1.1140
10074SOL    HW231465   8.247   5.036   7.226 -0.9809 -0.9246  0.1112
10075SOL     OW31466   1.487   3.382   4.551  0.4798 -0.4931  0.3351
10075SOL    HW131467   1.528   3.463   4.581  1.9804 -0.6177 -1.2959
10075SOL    HW231468   1.540   3.312   4.589 -0.6675 -0.7254  1.5440
10076SOL     OW31469   5.906   5.322   7.067  0.4730 -0.0054  0.4072
10076SOL    HW131470   5.836   5.384   7.046  0.9105  0.4399  0.2692
10076SOL    HW231471   5.865   5.236   7.058  0.1274  0.2391 -0.3300
10077SOL     OW31472   0.960   7.303   7.817 -0.1818  0.1625  0.0938
10077SOL    HW131473   1.015   7.225   7.810 -0.3855 -0.0040  0.2948
10077SOL    HW231474   0.961   7.341   7.729 -2.4433 -1.7023 -0.8170
10078SOL     OW31475   1.515   1.157   4.261 -0.1387 -0.9286 -0.2827
10078SOL    HW131476   1.496   1.074   4.219  0.3471 -0.2694 -1.8168
10078SOL    HW231477   1.531   1.218   4.189 -1.9824  0.8775  0.7587
10079SOL     OW31478   4.970   1.566   7.329  0.1323  0.1703 -0.5571
10079SOL    HW131479   5.049   1.568   7.383 -0.4564 -2.2772  0.4505
10079SOL    HW231480   5.001   1.564   7.239  1.2303 -0.8214 -0.1598
10080SOL     OW31481   0.728   7.477   6.890 -0.0375 -0.0632  0.2574
10080SOL    HW131482   0.701   7.498   6.801 -1.9443  0.8705  1.0225
10080SOL    HW231483   0.662   7.416   6.922  0.8668 -0.7254  0.8912
10081SOL     OW31484   1.750   2.916   6.773 -0.1710  0.1442  0.5909
10081SOL    HW131485   1.762   2.964   6.691  0.0890  0.4005  0.7801
10081SOL    HW231486   1.767   2.825   6.750  1.4516  0.4138  0.7157
10082SOL     OW31487   5.007   2.432   5.996 -0.3778  0.5939 -0.0774
10082SOL    HW131488   5.063   2.428   5.918  1.1485  1.1387  0.9639
10082SOL    HW231489   4.930   2.482   5.968  0.0910  0.6487 -1.2806
10083SOL     OW31490   6.637   6.236   6.476 -0.5927  0.1093 -0.1341
10083SOL    HW131491   6.665   6.303   6.538 -0.5851 -0.3293  0.3464
10083SOL    HW231492   6.690   6.251   6.398 -0.9724  0.9893 -0.2221
10084SOL     OW31493   0.304   1.779   6.293  0.4727  0.1439  0.2389
10084SOL    HW131494   0.233   1.717   6.275 -0.1589  0.7349  0.6725
10084SOL    HW231495   0.384   1.730   6.273 -0.0184 -0.8128  0.5857
10085SOL     OW31496   0.591   6.978   4.403  0.6283 -0.0661 -0.2198
10085SOL    HW131497   0.509   7.027   4.397  1.4670  1.2759 -0.9587
10085SOL    HW231498   0.658   7.045   4.413  1.7910 -1.0616 -1.2088
10086SOL     OW31499   5.145   8.161   5.633  0.1748  0.8355  0.1607
10086SOL    HW131500   5.073   8.213   5.669 -0.4660 -0.0831  0.2428
10086SOL    HW231501   5.224   8.209   5.656 -0.4273  1.9620 -0.0966
10087SOL     OW31502   1.931   4.002   5.006 -0.4727  0.0623 -0.4738
10087SOL    HW131503   1.860   3.953   4.966  0.3340 -0.4919 -1.2457
10087SOL    HW231504   1.920   3.987   5.100 -0.3796 -1.4196 -0.6873
10088SOL     OW31505   7.614   3.174   2.812  0.2943 -0.3362 -0.3563
10088SOL    HW131506   7.535   3.227   2.812 -0.4360 -1.4012  0.0076
10088SOL    HW231507   7.656   3.192   2.896 -1.1575 -2.0757  0.7707
10089SOL     OW31508   1.965   1.538   0.112 -0.0022 -0.5059  0.5454
10089SOL    HW131509   2.011   1.518   0.194 -0.7245 -2.0551  0.6036
10089SOL    HW231510   1.874   1.515   0.131 -0.5288  1.0376 -0.0690
10090SOL     OW31511   6.477   3.613   3.402  0.1741  0.2999  0.0759
10090SOL    HW131512   6.424   3.679   3.448 -1.6961 -1.6559  0.7912
10090SOL    HW231513   6.516   3.561   3.472  2.7355  1.4409 -0.4567
10091SOL     OW31514   0.480   1.208   1.707 -0.4385  0.2168 -0.1329
10091SOL    HW131515   0.409   1.216   1.770 -0.1623 -0.9015  0.3301
10091SOL    HW231516   0.558   1.232   1.756 -0.3646  0.4104 -0.3473
10092SOL     OW31517   5.988   1.201   0.060 -0.3438  0.0856 -0.2039
10092SOL    HW131518   6.002   1.279   0.005 -0.3043 -0.4363 -0.9475
10092SOL    HW231519   6.069   1.151   0.049 -0.3600 -0.0439  0.2998
10093SOL     OW31520   3.341   8.219   3.580  0.0078  0.1414  0.4163
10093SOL    HW131521   3.258   8.174   3.598  0.5813 -1.2987 -0.4665
10093SOL    HW231522   3.383   8.225   3.665 -0.6393  0.1303  0.7446
10094SOL     OW31523   1.883   2.894   8.111 -0.1353 -0.2618  0.2685
10094SOL    HW131524   1.916   2.982   8.126 -2.1482  0.5736 -0.0064
10094SOL    HW231525   1.808   2.887   8.171 -1.1579 -1.0846 -1.0918
10095SOL     OW31526   6.469   1.921   4.357  0.0223  0.5712  0.2958
10095SOL    HW131527   6.385   1.874   4.354 -0.1323  0.9179 -1.0250
10095SOL    HW231528   6.524   1.876   4.293  0.9952  0.0863  1.4508
10096SOL     OW31529   8.247   0.080   4.326  0.5882 -0.1200  0.5450
10096SOL    HW131530   8.254   0.136   4.249 -1.7730  0.9712  1.0756
10096SOL    HW231531   8.292   0.129   4.395 -1.8972  1.4419  1.1320
10097SOL     OW31532   1.660   3.464   8.009 -0.0123  0.4591 -0.0857
10097SOL    HW131533   1.706   3.392   8.050  0.2618  1.4564  1.3899
10097SOL    HW231534   1.724   3.503   7.949  0.0061 -0.1851 -0.4855
10098SOL     OW31535   6.313   4.635   1.292 -0.4122  0.7154  0.5072
10098SOL    HW131536   6.252   4.675   1.353  0.5554  1.5552  0.9203
10098SOL    HW231537   6.353   4.564   1.341 -0.1996  0.8985  0.5942
10099SOL     OW31538   2.783   5.428   3.595  0.5249 -0.3050  0.0279
10099SOL    HW131539   2.747   5.359   3.650  0.0027 -0.4623 -0.5017
10099SOL    HW231540   2.839   5.480   3.653 -0.1530 -0.3696  0.7325
10100SOL     OW31541   3.037   4.566   6.038  0.6991 -0.7755  0.0413
10100SOL    HW131542   3.004   4.622   5.968  2.1584  0.2980  0.1861
10100SOL    HW231543   2.977   4.492   6.041 -1.0905  0.6492 -0.3581
10101SOL     OW31544   8.129   4.935   0.654 -0.2288  0.7727  0.6493
10101SOL    HW131545   8.078   4.991   0.596 -0.8046 -2.8991 -2.5791
10101SOL    HW231546   8.064   4.881   0.699  0.4456  0.7575  1.6255
10102SOL     OW31547   0.858   7.683   7.443  0.0349 -0.4480 -0.0994
10102SOL    HW131548   0.933   7.699   7.386  0.0342 -0.6394 -0.1522
10102SOL    HW231549   0.812   7.610   7.403 -0.9219  0.5378 -0.8017
10103SOL     OW31550   3.091   6.055   3.956  0.4271 -1.0028 -0.3647
10103SOL    HW131551   3.003   6.092   3.942  0.8913 -0.0680 -0.8943
10103SOL    HW231552   3.075   5.964   3.980 -0.7108 -0.7340 -0.0347
10104SOL     OW31553   1.999   1.336   6.575  0.5881 -0.2098  0.0369
10104SOL    HW131554   1.964   1.297   6.495 -0.8112  1.3108 -0.1145
10104SOL    HW231555   2.008   1.263   6.635 -1.1492 -0.9083 -0.5337
10105SOL     OW31556   3.261   4.686   1.589 -0.5176 -0.5990  0.2667
10105SOL    HW131557   3.236   4.768   1.547  1.9292  0.1194  0.1359
10105SOL    HW231558   3.322   4.645   1.527  0.1913 -1.3401  1.4438
10106SOL     OW31559   5.682   7.637   7.657  0.2332  0.1325 -0.1107
10106SOL    HW131560   5.742   7.711   7.669  0.5777 -0.4440  1.9734
10106SOL    HW231561   5.598   7.669   7.689  0.5306 -0.5606  1.4121
10107SOL     OW31562   7.954   3.022   3.517  0.4141  0.3206 -0.5240
10107SOL    HW131563   7.865   2.987   3.523  1.2368 -1.5748  0.9337
10107SOL    HW231564   7.994   3.002   3.601  2.8110 -0.4496 -1.7987
10108SOL     OW31565   0.136   5.072   7.721 -0.1846 -0.1953  0.8350
10108SOL    HW131566   0.116   4.988   7.680  0.6222 -1.1675  2.3732
10108SOL    HW231567   0.231   5.081   7.713 -0.3935  1.1399 -0.3510
10109SOL     OW31568   2.711   7.038   6.490 -0.8014 -0.1022  0.3325
10109SOL    HW131569   2.755   7.100   6.432 -0.8502 -1.1031 -0.7811
10109SOL    HW231570   2.619   7.063   6.488 -0.8506 -0.3408 -0.2712
10110SOL     OW31571   1.935   3.669   5.495 -0.0750 -0.6133  0.1022
10110SOL    HW131572   1.946   3.689   5.588 -0.2699 -1.2726  0.2712
10110SOL    HW231573   1.851   3.707   5.471 -0.7345 -1.7382  0.5764
10111SOL     OW31574   6.569   3.965   5.991  0.0021 -0.4001  0.5691
10111SOL    HW131575   6.528   3.900   5.934 -0.6428  0.5807 -0.1103
10111SOL    HW231576   6.511   4.042   5.985  1.5823  0.7715  0.1195
10112SOL     OW31577   0.055   4.374   6.361  0.3166 -0.2646 -0.1203
10112SOL    HW131578  -0.010   4.360   6.292 -0.1197 -1.1015  0.4455
10112SOL    HW231579   0.011   4.430   6.425  0.6149  0.2562 -0.3651
10113SOL     OW31580   0.679   8.006   4.670  0.0425  0.0323  0.2285
10113SOL    HW131581   0.614   8.030   4.604  1.7981  1.3051 -1.0869
10113SOL    HW231582   0.627   7.987   4.749 -2.0470 -0.9768 -1.3387
10114SOL     OW31583   5.664   4.923   4.466 -0.4204  0.0113  0.0679
10114SOL    HW131584   5.617   4.960   4.540  0.3837  0.1742  0.5047
10114SOL    HW231585   5.645   4.829   4.470  1.6465 -0.3974  2.0206
10115SOL     OW31586   1.892   7.928   7.893  0.3747  0.0192 -0.2164
10115SOL    HW131587   1.977   7.969   7.875 -0.2390  0.6063 -1.9110
10115SOL    HW231588   1.835   8.001   7.917 -0.7053  0.2085 -3.1674
10116SOL     OW31589   5.356   3.409   4.033 -0.6464 -0.8901 -0.2639
10116SOL    HW131590   5.365   3.482   4.094 -0.0740 -0.2655 -1.0889
10116SOL    HW231591   5.378   3.332   4.085 -1.1155 -0.4585  0.5760
10117SOL     OW31592   4.287   5.863   3.558  0.2467  0.3958  0.0122
10117SOL    HW131593   4.248   5.775   3.558  3.2776 -1.0272 -2.0784
10117SOL    HW231594   4.265   5.898   3.644 -0.8924 -2.4682  0.9700
10118SOL     OW31595   0.735   3.706   6.533 -0.3547 -0.5316 -0.0596
10118SOL    HW131596   0.642   3.725   6.537 -0.3107 -0.4728  0.8461
10118SOL    HW231597   0.775   3.785   6.498 -0.5443 -0.2308  0.4079
10119SOL     OW31598   2.184   0.644   5.267 -0.2886 -0.1539 -0.0462
10119SOL    HW131599   2.198   0.662   5.174  0.8559 -1.8331 -0.2173
10119SOL    HW231600   2.272   0.647   5.305 -0.5423 -1.2911  0.6486
10120SOL     OW31601   7.919   7.919   6.482 -0.0113 -0.0593 -0.3067
10120SOL    HW131602   7.861   7.908   6.558 -0.0638 -0.6624 -0.4340
10120SOL    HW231603   7.896   7.847   6.424  0.4809  0.0260 -0.6058
10121SOL     OW31604   6.006   3.675   2.123 -0.2702  0.0427 -0.0150
10121SOL    HW131605   5.995   3.603   2.185  3.4693  0.0340  0.8030
10121SOL    HW231606   6.044   3.634   2.045 -0.0558  0.8230 -0.3269
10122SOL     OW31607   3.474   3.611   2.321  0.3840 -0.1460  0.8060
10122SOL    HW131608   3.544   3.546   2.312  0.3667 -0.0095 -0.4013
10122SOL    HW231609   3.431   3.612   2.236  0.4480  1.5249  0.7675
10123SOL     OW31610   6.099   4.784   5.649 -0.1129  0.1897 -0.0602
10123SOL    HW131611   6.021   4.755   5.600  0.0761  0.1411 -0.3337
10123SOL    HW231612   6.124   4.708   5.701 -0.6287  0.4122  0.5100
10124SOL     OW31613   0.482   0.452   7.323 -0.4847 -0.3283  0.1948
10124SOL    HW131614   0.458   0.430   7.233  0.8130 -1.2971  0.0638
10124SOL    HW231615   0.458   0.543   7.333 -0.8659 -0.2782 -1.0719
10125SOL     OW31616   6.233   8.195   7.583  0.0760 -1.0546 -0.1023
10125SOL    HW131617   6.314   8.220   7.539 -0.1823  0.1255  0.0842
10125SOL    HW231618   6.211   8.270   7.638 -1.6581 -0.9978 -0.8575
10126SOL     OW31619   2.983   2.354   6.653 -0.1988 -0.4614 -0.7098
10126SOL    HW131620   2.962   2.418   6.722 -1.1514 -0.1605 -1.2767
10126SOL    HW231621   2.979   2.404   6.572  0.4163 -0.9368 -1.0379
10127SOL     OW31622   6.793   3.096   1.072 -0.1814  0.6438  0.1083
10127SOL    HW131623   6.868   3.068   1.020  0.7939  3.0156  0.2052
10127SOL    HW231624   6.812   3.064   1.161  0.2363  0.4045 -0.0669
10128SOL     OW31625   0.474   3.108   3.480  0.3310  0.0514 -0.6048
10128SOL    HW131626   0.468   3.061   3.397  0.5908 -1.5825  0.2817
10128SOL    HW231627   0.500   3.041   3.544  3.7138  1.9819  0.1602
10129SOL     OW31628   5.742   5.183   5.101 -0.2973 -0.0986 -0.4411
10129SOL    HW131629   5.837   5.194   5.101 -0.5051  1.9178 -1.7488
10129SOL    HW231630   5.713   5.219   5.185 -0.0202  0.2902 -0.5160
10130SOL     OW31631   2.291   3.338   4.620 -0.8687  0.2153  0.3734
10130SOL    HW131632   2.262   3.421   4.581  1.0756  1.2655  1.0613
10130SOL    HW231633   2.237   3.328   4.698 -0.9889  0.9314  0.3879
10131SOL     OW31634   1.345   4.601   0.474 -0.6088 -0.2321  0.0399
10131SOL    HW131635   1.259   4.592   0.516  0.0661  0.9428  1.7415
10131SOL    HW231636   1.339   4.547   0.395 -2.8781 -0.2342  0.1790
10132SOL     OW31637   6.523   6.207   7.173  0.0707  0.6602 -0.4510
10132SOL    HW131638   6.527   6.301   7.191 -0.2681  0.9654 -1.8718
10132SOL    HW231639   6.533   6.201   7.078 -0.5633 -0.7043 -0.4425
10133SOL     OW31640   4.351   7.566   2.281  0.7642  0.0313  0.0357
10133SOL    HW131641   4.371   7.658   2.302 -0.5788  0.0170  1.4832
10133SOL    HW231642   4.290   7.539   2.350  0.6554 -1.7650 -0.7511
10134SOL     OW31643   2.164   7.167   3.696 -0.0029 -0.8138 -0.6507
10134SOL    HW131644   2.088   7.184   3.640 -0.6241  1.6774  0.8493
10134SOL    HW231645   2.131   7.110   3.765 -0.8111  1.0135  0.5227
10135SOL     OW31646   1.461   5.145   6.701 -0.1870 -0.0066  0.1761
10135SOL    HW131647   1.481   5.063   6.744 -1.1029 -0.1320  0.3717
10135SOL    HW231648   1.543   5.170   6.658  0.8149  0.2420  2.1606
10136SOL     OW31649   4.477   0.735   4.470  0.8041  0.3193 -0.4032
10136SOL    HW131650   4.545   0.802   4.471  0.9511  0.2207 -2.8441
10136SOL    HW231651   4.460   0.719   4.378 -2.2116 -0.0047  0.1761
10137SOL     OW31652   0.572   0.550   1.265 -0.0220  0.4271 -0.2397
10137SOL    HW131653   0.554   0.466   1.307  0.1189  1.1945  1.3907
10137SOL    HW231654   0.529   0.544   1.180 -3.8106  0.3232  1.5919
10138SOL     OW31655   6.844   1.816   5.928 -0.4980 -0.0763  0.1550
10138SOL    HW131656   6.842   1.866   6.009  1.4717 -1.8879  1.3806
10138SOL    HW231657   6.899   1.867   5.869 -2.5449  1.6235 -0.3800
10139SOL     OW31658   1.662   0.719   2.901 -0.6014 -0.1959  0.0337
10139SOL    HW131659   1.681   0.659   2.829  2.5946 -0.5104  1.0825
10139SOL    HW231660   1.731   0.784   2.897 -1.3304  0.7149  1.8319
10140SOL     OW31661   1.472   2.421   5.818  0.6872 -0.7655  0.6361
10140SOL    HW131662   1.456   2.483   5.889  0.5157  0.4580 -0.4519
10140SOL    HW231663   1.386   2.387   5.795  0.5385  0.0644 -0.0675
10141SOL     OW31664   1.259   6.199   8.220 -0.3810  0.0806 -0.4495
10141SOL    HW131665   1.289   6.109   8.236  0.8528  0.5422 -0.1215
10141SOL    HW231666   1.338   6.252   8.227 -1.5176  1.5265  1.9488
10142SOL     OW31667   7.206   6.584   7.227  0.7456  0.0409  0.4036
10142SOL    HW131668   7.290   6.601   7.184  0.5797  0.7336  0.3522
10142SOL    HW231669   7.143   6.639   7.180  0.5363  0.7063  1.4354
10143SOL     OW31670   0.339   7.102   5.493 -0.0597 -0.2760 -0.3514
10143SOL    HW131671   0.282   7.045   5.546  1.9100 -2.1881 -0.2374
10143SOL    HW231672   0.401   7.138   5.556 -0.7884  1.4081 -0.5678
10144SOL     OW31673   4.322   0.168   6.967  0.1777 -0.4665 -0.1209
10144SOL    HW131674   4.275   0.103   7.019  0.6234  0.4063  1.4074
10144SOL    HW231675   4.298   0.149   6.876 -0.7641 -1.8927  0.4185
10145SOL     OW31676   0.198   1.240   2.503 -0.3791  0.7460 -0.2911
10145SOL    HW131677   0.224   1.248   2.595 -1.2213  0.6059 -0.0300
10145SOL    HW231678   0.163   1.151   2.496  0.0627  0.6116 -0.8515
10146SOL     OW31679   0.651   5.069   6.634 -0.3692  0.5371 -0.5768
10146SOL    HW131680   0.622   5.091   6.545  0.0176 -3.1154 -1.6891
10146SOL    HW231681   0.733   5.117   6.645  0.9693 -1.0180 -3.2517
10147SOL     OW31682   3.925   3.540   5.161 -0.0974  0.0583 -0.8250
10147SOL    HW131683   3.976   3.461   5.141 -0.4152 -0.2107 -0.5772
10147SOL    HW231684   3.836   3.517   5.137 -0.0315  0.6748 -1.6471
10148SOL     OW31685   4.836   3.051   2.499 -0.6069  0.2098  0.3818
10148SOL    HW131686   4.813   2.958   2.496 -0.6639  0.2829 -2.5122
10148SOL    HW231687   4.908   3.055   2.561 -0.0348 -1.9092 -0.0865
10149SOL     OW31688   6.364   4.685   7.403  0.1881 -0.5027  0.2232
10149SOL    HW131689   6.431   4.752   7.391 -0.2410  0.0797  1.0060
10149SOL    HW231690   6.413   4.605   7.421  0.6877 -0.1987  0.2318
10150SOL     OW31691   8.125   4.691   1.375  0.7486 -0.0471 -0.2157
10150SOL    HW131692   8.198   4.676   1.315  1.9416  4.1266  0.0683
10150SOL    HW231693   8.049   4.704   1.319  1.0643 -0.1061 -0.6573
10151SOL     OW31694   5.219   5.608   7.628  0.1714  0.2995  0.3178
10151SOL    HW131695   5.141   5.631   7.679 -0.3424 -3.1575  1.2085
10151SOL    HW231696   5.185   5.576   7.545  0.7496  0.5846 -0.0348
10152SOL     OW31697   4.486   5.006   4.962 -0.1212  0.1478  0.2063
10152SOL    HW131698   4.514   4.920   4.993  0.3537 -0.5451 -2.0408
10152SOL    HW231699   4.534   5.068   5.017  2.0117 -1.0393 -0.2727
10153SOL     OW31700   2.619   6.191   0.017 -0.3343  0.1639 -0.2993
10153SOL    HW131701   2.560   6.261  -0.010 -0.8172  0.6903  2.0780
10153SOL    HW231702   2.569   6.111   0.005 -0.9829  0.4916  0.2073
10154SOL     OW31703   2.987   1.297   8.296 -0.5702  0.4056  0.1056
10154SOL    HW131704   3.012   1.263   8.210 -0.7656 -0.2482  0.3045
10154SOL    HW231705   2.897   1.269   8.308 -1.5216  3.0079 -0.7259
10155SOL     OW31706   8.064   6.350   2.613 -0.1943  0.4698 -0.3814
10155SOL    HW131707   8.152   6.344   2.650 -0.2467 -0.9633 -0.4809
10155SOL    HW231708   8.073   6.410   2.540  0.6961  0.3376 -0.3811
10156SOL     OW31709   0.706   1.580   7.430 -0.4533 -0.2574 -0.1717
10156SOL    HW131710   0.732   1.659   7.477  2.6581 -1.3925  0.1632
10156SOL    HW231711   0.768   1.574   7.357 -0.0412 -2.8230  0.3129
10157SOL     OW31712   1.384   6.627   3.211 -0.2003 -0.0635 -0.0765
10157SOL    HW131713   1.321   6.688   3.248  0.1969  0.4219 -0.1926
10157SOL    HW231714   1.469   6.671   3.221  0.2601 -1.1385  1.0229
10158SOL     OW31715   7.742   0.775   1.941  0.5558 -0.1871  0.0744
10158SOL    HW131716   7.763   0.706   2.003  1.4811  0.6561  0.7264
10158SOL    HW231717   7.807   0.844   1.958 -1.0888  1.3626  0.3022
10159SOL     OW31718   4.297   0.794   5.041 -0.3088 -0.3930 -0.0422
10159SOL    HW131719   4.321   0.869   5.095  0.2154 -0.1072 -0.6619
10159SOL    HW231720   4.280   0.724   5.103  0.8740 -0.2320  0.4822
10160SOL     OW31721   3.060   7.794   7.011  0.9198 -0.1257 -0.5506
10160SOL    HW131722   3.033   7.846   7.086  1.0174  1.5909 -1.6642
10160SOL    HW231723   2.981   7.784   6.959  0.9111 -1.0729 -0.3529
10161SOL     OW31724   2.077   1.090   4.558  0.4183 -0.8745 -0.4679
10161SOL    HW131725   2.122   1.146   4.495  0.1555 -0.1006  0.0321
10161SOL    HW231726   2.141   1.022   4.579  1.3642  0.2143  0.2367
10162SOL     OW31727   0.178   6.905   4.490  0.2477  0.0125  0.6046
10162SOL    HW131728   0.225   6.908   4.573 -0.2641 -1.3310  0.9548
10162SOL    HW231729   0.093   6.867   4.512 -0.1535  0.3062 -0.4133
10163SOL     OW31730   4.605   3.444   8.151 -0.7766  0.1159  0.5267
10163SOL    HW131731   4.668   3.457   8.222  0.4509  0.6515 -0.6460
10163SOL    HW231732   4.586   3.350   8.153  2.3565 -0.6112 -0.9798
10164SOL     OW31733   1.728   1.888   7.718 -0.4570 -0.2768  0.1424
10164SOL    HW131734   1.737   1.977   7.751  0.1271 -0.8412  1.5177
10164SOL    HW231735   1.634   1.875   7.709 -0.5274  0.6511 -0.5591
10165SOL     OW31736   3.234   4.588   7.708 -0.4634 -0.1320  0.3607
10165SOL    HW131737   3.310   4.551   7.662  1.2345 -0.0306  2.9961
10165SOL    HW231738   3.221   4.674   7.667  0.9321 -0.0897 -0.0104
10166SOL     OW31739   1.012   7.770   3.282 -0.5619 -0.3794 -0.4416
10166SOL    HW131740   0.971   7.704   3.227 -1.9609  0.4325 -0.3954
10166SOL    HW231741   1.013   7.731   3.370 -0.3293 -0.8005 -0.6315
10167SOL     OW31742   7.572   3.140   0.803  0.0581 -0.1283  0.1440
10167SOL    HW131743   7.604   3.204   0.868  0.4525  0.6629 -0.8187
10167SOL    HW231744   7.477   3.139   0.817  0.1168  0.1791  0.6028
10168SOL     OW31745   2.306   2.884   1.107  0.1547 -0.0198  0.2339
10168SOL    HW131746   2.284   2.844   1.023 -0.6307 -1.5753  1.1587
10168SOL    HW231747   2.388   2.843   1.133 -0.0559 -0.1802  0.6480
10169SOL     OW31748   4.468   5.693   6.572 -0.1711 -0.0180 -0.1157
10169SOL    HW131749   4.440   5.750   6.643 -1.7569  0.5307 -1.1685
10169SOL    HW231750   4.486   5.752   6.499  0.3366 -0.6740 -0.5309
10170SOL     OW31751   6.288   3.392   3.740 -0.9081  0.3541 -0.3811
10170SOL    HW131752   6.315   3.346   3.661 -0.5544 -0.2841  0.1101
10170SOL    HW231753   6.362   3.449   3.761 -0.2033 -0.8931  0.5775
10171SOL     OW31754   2.796   5.095   1.131  0.0861  0.0303  0.4087
10171SOL    HW131755   2.791   5.061   1.220  0.7625  0.3899  0.5924
10171SOL    HW231756   2.758   5.027   1.076  0.5006 -0.5747  0.8746
10172SOL     OW31757   0.197   5.141   3.739 -0.7879  0.0574  0.2297
10172SOL    HW131758   0.126   5.205   3.730 -0.0618  0.8350 -0.0066
10172SOL    HW231759   0.155   5.064   3.778 -1.5744  0.8476  0.9645
10173SOL     OW31760   2.874   4.725   4.815  0.1075 -0.4907 -0.3171
10173SOL    HW131761   2.812   4.654   4.797 -0.9814  0.7017 -1.3507
10173SOL    HW231762   2.942   4.684   4.868 -1.8102 -1.7144  1.2656
10174SOL     OW31763   1.352   0.804   5.217 -0.3823  0.2172 -0.0842
10174SOL    HW131764   1.291   0.817   5.144 -1.0950  0.8382  0.6073
10174SOL    HW231765   1.297   0.782   5.292  0.3293 -0.2767  0.3051
10175SOL     OW31766   2.915   6.561   7.809  0.1005  0.0045  0.6889
10175SOL    HW131767   2.927   6.600   7.723  0.4190  0.1087  0.7822
10175SOL    HW231768   2.964   6.479   7.805 -0.4872 -0.3442  0.5254
10176SOL     OW31769   0.135   4.914   6.765 -0.0954 -0.7322  0.5479
10176SOL    HW131770   0.055   4.877   6.801 -0.9656 -0.2268 -0.8259
10176SOL    HW231771   0.109   4.951   6.681  1.3119  0.6007  0.6694
10177SOL     OW31772   0.816   4.885   1.958  0.2736 -0.0114 -0.1426
10177SOL    HW131773   0.744   4.852   1.904  2.8561  0.1417 -3.8382
10177SOL    HW231774   0.782   4.967   1.994 -1.0997  0.5634 -2.6095
10178SOL     OW31775   3.586   1.180   2.579  0.2292  0.5039 -0.1664
10178SOL    HW131776   3.579   1.263   2.625  0.7261  0.8204 -0.6538
10178SOL    HW231777   3.521   1.123   2.621  1.6484  0.3291  1.8690
10179SOL     OW31778   8.134   3.289   6.874 -0.1189 -0.0907 -0.2509
10179SOL    HW131779   8.228   3.308   6.872 -0.1501  0.2752  1.3345
10179SOL    HW231780   8.120   3.246   6.958 -1.1396 -1.4294 -1.0878
10180SOL     OW31781   5.401   1.456   5.043  0.3309 -0.2978 -0.1229
10180SOL    HW131782   5.325   1.419   4.999 -0.8451  2.4940 -0.5514
10180SOL    HW231783   5.471   1.451   4.979 -0.0560 -0.9203 -0.4929
10181SOL     OW31784   3.559   2.205   4.724  0.8712 -0.0152 -0.1970
10181SOL    HW131785   3.563   2.117   4.688  0.3178  0.1236 -0.6123
10181SOL    HW231786   3.549   2.192   4.819 -0.4754 -0.4208 -0.3815
10182SOL     OW31787   2.555   5.597   5.458  0.4551  0.3686 -0.1868
10182SOL    HW131788   2.573   5.513   5.500  2.1083  0.4712 -0.6716
10182SOL    HW231789   2.465   5.618   5.484  0.6651 -0.6708  1.4193
10183SOL     OW31790   0.639   0.449   6.325 -0.2720  0.1531  0.3844
10183SOL    HW131791   0.703   0.503   6.372  0.6544 -0.6379  0.0699
10183SOL    HW231792   0.557   0.497   6.331  0.3439  1.1592  0.8605
10184SOL     OW31793   7.436   7.353   6.158 -0.1795  0.1127  0.3318
10184SOL    HW131794   7.474   7.314   6.079  3.1828  3.2100  0.2605
10184SOL    HW231795   7.460   7.292   6.228  0.7517 -0.3930 -0.4134
10185SOL     OW31796   4.632   5.237   7.607  0.6579 -0.0044 -0.0170
10185SOL    HW131797   4.612   5.310   7.665  0.1917 -1.4630  1.6748
10185SOL    HW231798   4.713   5.199   7.641  1.3140  0.1788 -1.3424
10186SOL     OW31799   3.312   5.381   0.995 -0.2522  0.4167 -0.0138
10186SOL    HW131800   3.334   5.348   0.908  0.1456 -1.1395  0.6614
10186SOL    HW231801   3.314   5.304   1.051 -3.0312  0.9687  0.9092
10187SOL     OW31802   7.676   4.350   0.760 -0.0082 -0.0009  0.9857
10187SOL    HW131803   7.674   4.308   0.674  2.2337 -0.8596  1.3091
10187SOL    HW231804   7.597   4.404   0.762 -1.6962 -2.2972 -0.4161
10188SOL     OW31805   2.143   7.470   6.651  0.1663  0.5142  0.0063
10188SOL    HW131806   2.158   7.525   6.574  0.1289 -0.9248 -1.0394
10188SOL    HW231807   2.213   7.404   6.648  0.2736  0.5516  1.3027
10189SOL     OW31808   1.945   5.152   0.337 -0.2204 -0.3506  0.2244
10189SOL    HW131809   1.858   5.154   0.377  0.0673 -0.4288  0.8566
10189SOL    HW231810   1.947   5.229   0.281 -0.9588 -0.7335 -0.3486
10190SOL     OW31811   2.348   1.346   5.784 -0.3536  0.2374  0.1417
10190SOL    HW131812   2.308   1.375   5.866 -1.4445 -2.0710  0.4452
10190SOL    HW231813   2.284   1.371   5.717 -0.6278 -0.1409  0.2580
10191SOL     OW31814   6.062   3.424   3.880  0.2614 -0.3721  0.1449
10191SOL    HW131815   6.156   3.429   3.863  0.1284  0.2807 -0.4321
10191SOL    HW231816   6.024   3.394   3.797 -0.0403 -0.6372  0.3775
10192SOL     OW31817   7.492   6.469   1.559  0.5018  0.2073 -0.0087
10192SOL    HW131818   7.474   6.391   1.506 -0.4355  1.0213 -0.8991
10192SOL    HW231819   7.508   6.435   1.647 -0.2647 -0.9629 -0.3145
10193SOL     OW31820   7.312   2.629   0.999 -0.4722  0.6910  0.3388
10193SOL    HW131821   7.258   2.699   0.964  1.7707  1.4713 -1.7145
10193SOL    HW231822   7.312   2.562   0.930  0.8763  0.5495  0.4700
10194SOL     OW31823   4.030   0.116   0.988  0.2441  0.3071  0.1988
10194SOL    HW131824   3.992   0.044   0.938 -0.7347  0.4314  0.7500
10194SOL    HW231825   4.054   0.181   0.922 -0.0420  0.0125 -0.1968
10195SOL     OW31826   2.128   3.916   0.377  0.5494 -0.0881 -0.3950
10195SOL    HW131827   2.069   3.958   0.314 -0.1126  1.8940  1.5046
10195SOL    HW231828   2.095   3.826   0.384 -1.9585  0.8332  0.2334
10196SOL     OW31829   7.916   2.764   3.297 -0.7071  0.2504  0.2567
10196SOL    HW131830   7.880   2.684   3.336 -0.6017 -0.7063 -1.5273
10196SOL    HW231831   7.914   2.829   3.367 -0.9064 -1.2945  1.7074
10197SOL     OW31832   3.133   6.371   4.711  0.6398 -0.0353  0.8839
10197SOL    HW131833   3.163   6.380   4.801  1.8449  0.9880  0.3975
10197SOL    HW231834   3.142   6.278   4.691 -1.5213 -0.6199  2.4496
10198SOL     OW31835   8.271   0.976   6.408  0.1740  0.8280 -0.2754
10198SOL    HW131836   8.192   0.958   6.355 -0.0697  0.6003  0.1653
10198SOL    HW231837   8.268   0.911   6.478  1.5951 -0.2165 -1.1412
10199SOL     OW31838   8.005   0.382   0.756 -0.1690  0.3099 -0.5018
10199SOL    HW131839   7.943   0.454   0.740 -0.7297 -0.2434 -0.8579
10199SOL    HW231840   8.064   0.415   0.824 -1.8036  0.2921  0.9739
10200SOL     OW31841   2.131   7.859   5.679 -0.3811  0.3283 -0.0834
10200SOL    HW131842   2.060   7.901   5.728 -0.7624  0.9379 -1.1563
10200SOL    HW231843   2.131   7.769   5.710 -1.8713  0.2317 -0.3488
10201SOL     OW31844   5.315   4.077   5.543  0.3118 -0.3012 -0.0007
10201SOL    HW131845   5.362   4.079   5.459  0.5788  0.6147  0.1588
10201SOL    HW231846   5.321   3.986   5.572 -2.4233 -1.3210 -2.4373
10202SOL     OW31847   2.628   0.101   6.568  0.1542 -0.2979  1.1118
10202SOL    HW131848   2.551   0.151   6.544 -0.2065 -1.3704 -0.0007
10202SOL    HW231849   2.675   0.157   6.630 -0.2354  1.4009 -0.1117
10203SOL     OW31850   8.179   6.069   7.330  0.9009 -0.1640 -1.0287
10203SOL    HW131851   8.193   6.029   7.244  1.8780 -1.7740 -0.1403
10203SOL    HW231852   8.084   6.077   7.337  0.5601 -3.9035 -0.5629
10204SOL     OW31853   0.930   3.008   6.719 -0.3378 -0.4071  0.9134
10204SOL    HW131854   0.957   3.088   6.673  0.1486 -0.7486  0.6033
10204SOL    HW231855   0.931   3.034   6.812 -0.4257  0.0207  0.7974
10205SOL     OW31856   1.527   1.110   4.516  0.2477  0.1692 -0.0162
10205SOL    HW131857   1.515   1.123   4.422 -0.7207 -0.4708  0.0065
10205SOL    HW231858   1.617   1.076   4.525  0.6520  1.0799 -0.6161
10206SOL     OW31859   4.307   7.975   6.379  0.2609 -0.3568  0.6310
10206SOL    HW131860   4.371   8.009   6.316 -1.4431 -0.0399 -0.9834
10206SOL    HW231861   4.252   8.051   6.399  0.4188 -0.6141  2.0396
10207SOL     OW31862   4.992   7.662   1.773 -0.0424  0.0180  0.2242
10207SOL    HW131863   4.924   7.656   1.706  0.3951  0.3571 -0.2525
10207SOL    HW231864   5.057   7.598   1.747  0.5245  0.7354 -0.1346
10208SOL     OW31865   4.540   0.339   3.770 -0.5733 -0.3119  0.3020
10208SOL    HW131866   4.508   0.395   3.699 -0.7787 -0.1507  0.5243
10208SOL    HW231867   4.548   0.397   3.845  3.4499  0.4477 -0.5847
10209SOL     OW31868   2.237   6.613   3.621  0.0276  0.3802 -0.2267
10209SOL    HW131869   2.184   6.692   3.627 -0.6355  0.0391 -1.4490
10209SOL    HW231870   2.190   6.557   3.559  1.2987 -0.3196 -0.5817
10210SOL     OW31871   4.620   5.672   3.561  0.1424  0.0174  0.4939
10210SOL    HW131872   4.612   5.712   3.474 -1.1606  0.4370  0.7915
10210SOL    HW231873   4.712   5.647   3.567  0.0062 -1.0440 -1.4533
10211SOL     OW31874   4.821   3.233   3.613  0.0474  0.4330 -0.0473
10211SOL    HW131875   4.892   3.223   3.549 -0.1250  1.1392 -0.3571
10211SOL    HW231876   4.798   3.326   3.608 -0.2513  0.4026  0.7432
10212SOL     OW31877   3.873   7.933   4.538  0.4088  0.0345 -0.7272
10212SOL    HW131878   3.947   7.948   4.596 -1.4051  1.4665  1.3068
10212SOL    HW231879   3.805   7.894   4.593 -1.1836  0.9255 -1.9758
10213SOL     OW31880   0.333   0.826   8.216 -0.2023  0.1089 -0.1768
10213SOL    HW131881   0.285   0.906   8.196  0.5596  0.4934 -0.4612
10213SOL    HW231882   0.332   0.776   8.134  0.6738  0.5256 -0.4422
10214SOL     OW31883   5.690   5.600   1.806  0.4481 -0.3020 -0.3980
10214SOL    HW131884   5.765   5.567   1.755  1.2881  2.6504 -1.1648
10214SOL    HW231885   5.721   5.599   1.896  0.4516 -1.5825 -0.3982
10215SOL     OW31886   6.615   4.529   4.649  0.0740  0.7948 -0.2415
10215SOL    HW131887   6.692   4.475   4.628  1.3826  2.6266 -0.3111
10215SOL    HW231888   6.608   4.588   4.574 -1.3157  0.7396 -0.1493
10216SOL     OW31889   2.311   0.797   0.804 -0.5370 -0.2951  0.7625
10216SOL    HW131890   2.400   0.767   0.783 -0.0837  0.7787  1.1152
10216SOL    HW231891   2.324   0.868   0.867 -1.7219 -1.1422  1.9797
10217SOL     OW31892   2.902   6.254   7.527  0.1575  0.0673  0.3328
10217SOL    HW131893   2.952   6.224   7.603 -0.2051  1.0465  0.9668
10217SOL    HW231894   2.811   6.242   7.553  0.0415 -0.7286 -0.4230
10218SOL     OW31895   0.249   5.153   7.255  0.2578  0.3455  0.4944
10218SOL    HW131896   0.324   5.094   7.260  0.3795  0.5689  1.3511
10218SOL    HW231897   0.192   5.114   7.189  1.1580  0.2104 -0.2137
10219SOL     OW31898   7.561   3.768   5.089  0.1005  0.6306 -0.1443
10219SOL    HW131899   7.541   3.718   5.168 -1.2583 -1.9197 -2.0130
10219SOL    HW231900   7.642   3.729   5.055 -0.6384  0.0464 -1.2865
10220SOL     OW31901   8.015   3.134   0.668 -0.3992  0.4253  0.3751
10220SOL    HW131902   8.107   3.129   0.642 -0.3366  1.2861  0.4132
10220SOL    HW231903   7.974   3.185   0.598 -0.5565  1.3245  1.1126
10221SOL     OW31904   1.000   3.917   2.528 -0.2556  0.0313  0.0441
10221SOL    HW131905   1.045   3.966   2.459 -1.0001  1.9383  0.8978
10221SOL    HW231906   1.069   3.897   2.591  0.4609 -1.8439 -1.2727
10222SOL     OW31907   5.394   6.960   3.902 -0.1389 -0.5213 -0.0309
10222SOL    HW131908   5.366   6.920   3.820 -2.5075 -1.4550  1.1737
10222SOL    HW231909   5.458   7.026   3.877 -0.3838 -1.2081 -2.5584
10223SOL     OW31910   6.579   3.927   7.797  0.8867 -0.5681  0.6413
10223SOL    HW131911   6.569   3.929   7.892 -0.6242 -2.0186  0.5341
10223SOL    HW231912   6.673   3.927   7.783  1.1344  0.4466  2.1114
10224SOL     OW31913   1.506   7.874   1.961 -0.2350  0.9151  0.0727
10224SOL    HW131914   1.500   7.959   1.918 -1.6878  1.8650  2.0828
10224SOL    HW231915   1.418   7.838   1.957  0.1229 -0.0150  0.2439
10225SOL     OW31916   4.697   4.724   2.072 -0.1152 -0.2679 -0.8633
10225SOL    HW131917   4.780   4.761   2.101 -0.1036 -2.7643  2.5625
10225SOL    HW231918   4.631   4.777   2.116 -0.2035 -1.0419 -0.0429
10226SOL     OW31919   3.815   1.937   7.033 -0.7239 -0.3304  0.1669
10226SOL    HW131920   3.868   1.999   6.984 -0.5769 -0.5165  0.0877
10226SOL    HW231921   3.724   1.966   7.020 -0.6678 -0.2401 -0.0168
10227SOL     OW31922   6.115   6.758   1.238 -0.0241  0.6966 -0.1081
10227SOL    HW131923   6.191   6.814   1.247  1.4836 -1.3648  0.4403
10227SOL    HW231924   6.108   6.713   1.323 -0.2179 -1.0760 -1.0285
10228SOL     OW31925   4.380   4.131   1.339  0.2382 -0.5311  0.0309
10228SOL    HW131926   4.465   4.089   1.355  2.0272  2.4771 -1.0210
10228SOL    HW231927   4.355   4.101   1.251  0.0233 -1.7095  0.4866
10229SOL     OW31928   4.689   4.229   2.639 -0.0352  0.0608  0.7938
10229SOL    HW131929   4.735   4.312   2.640 -1.0084  0.6101  0.9323
10229SOL    HW231930   4.712   4.189   2.555  1.8250 -0.3367  1.4700
10230SOL     OW31931   0.101   3.600   2.757 -0.2795  0.2455  0.0051
10230SOL    HW131932   0.152   3.564   2.685 -0.3349  1.5009 -0.6717
10230SOL    HW231933   0.151   3.677   2.787 -0.0972 -0.4346  1.5053
10231SOL     OW31934   7.748   4.619   5.268 -0.5769  0.2079 -0.1415
10231SOL    HW131935   7.728   4.566   5.345 -1.3092  1.2112  0.3792
10231SOL    HW231936   7.662   4.638   5.229 -0.4377  1.8911  0.3075
10232SOL     OW31937   3.174   7.931   4.033  0.1314  0.0492 -0.4906
10232SOL    HW131938   3.133   7.988   3.967  0.6498 -1.0533 -1.7840
10232SOL    HW231939   3.150   7.843   4.006  0.4098 -0.4156  0.7816
10233SOL     OW31940   0.863   3.135   5.294  0.0978  0.6318 -0.1670
10233SOL    HW131941   0.782   3.107   5.336 -0.1014  0.4227 -0.6905
10233SOL    HW231942   0.891   3.211   5.345 -0.1557  0.3995  0.3279
10234SOL     OW31943   1.205   3.379   0.925 -0.8089 -0.1484  0.0317
10234SOL    HW131944   1.219   3.348   1.015 -1.2793 -0.5408 -0.0301
10234SOL    HW231945   1.165   3.465   0.936 -0.0306  0.1933  0.2011
10235SOL     OW31946   1.391   4.470   1.381  0.1845 -0.1265 -0.5878
10235SOL    HW131947   1.376   4.502   1.292  2.2554 -0.7042 -1.1589
10235SOL    HW231948   1.481   4.439   1.381  0.0017 -0.7432  1.5420
10236SOL     OW31949   4.324   3.310   2.404 -0.2709  0.0518  0.9366
10236SOL    HW131950   4.294   3.359   2.481  1.0245  0.5517  1.1372
10236SOL    HW231951   4.419   3.307   2.413 -0.2736 -1.9272  0.5610
10237SOL     OW31952   3.456   2.035   0.008 -0.5536 -0.1645 -0.1876
10237SOL    HW131953   3.402   2.106   0.042 -0.8336 -0.2334 -0.4724
10237SOL    HW231954   3.530   2.028   0.068 -0.1025  0.9015 -0.6057
10238SOL     OW31955   7.569   7.135   6.787 -0.8120 -0.5282  0.0286
10238SOL    HW131956   7.581   7.222   6.750  1.3274 -2.1243 -3.2172
10238SOL    HW231957   7.646   7.121   6.842 -0.6241 -0.7868 -0.2993
10239SOL     OW31958   1.392   5.114   1.875  0.0073  0.2941 -0.6707
10239SOL    HW131959   1.484   5.095   1.897  0.1129  0.8392 -0.6317
10239SOL    HW231960   1.393   5.131   1.781  0.4351  3.1555 -0.1724
10240SOL     OW31961   5.211   1.251   1.143 -0.1188  1.1032 -0.1453
10240SOL    HW131962   5.169   1.270   1.227  3.4381 -1.0988  2.2402
10240SOL    HW231963   5.287   1.309   1.141  1.6265 -1.1265 -0.3061
10241SOL     OW31964   1.305   4.315   2.483  0.0762 -1.1462 -0.2967
10241SOL    HW131965   1.380   4.340   2.429  1.9541 -2.0651  1.7938
10241SOL    HW231966   1.246   4.391   2.479  2.4092  0.7685  0.2656
10242SOL     OW31967   5.557   6.304   7.377 -0.1336  0.6570  0.4660
10242SOL    HW131968   5.625   6.357   7.417 -1.8419  2.7299  0.7336
10242SOL    HW231969   5.512   6.262   7.451 -0.6831  1.2291  0.4609
10243SOL     OW31970   3.581   1.379   6.171  0.0856 -0.4372 -0.1141
10243SOL    HW131971   3.588   1.385   6.076 -0.7197 -1.6361 -0.2724
10243SOL    HW231972   3.487   1.367   6.187  0.0582  1.0823  0.9268
10244SOL     OW31973   7.685   0.127   5.663 -0.2371  0.2041  0.1951
10244SOL    HW131974   7.719   0.213   5.639  1.0580 -0.1335  0.7486
10244SOL    HW231975   7.669   0.133   5.757  1.0253 -0.5213  0.4739
10245SOL     OW31976   3.462   7.422   4.828 -0.1598 -0.0312  0.4980
10245SOL    HW131977   3.445   7.408   4.735 -1.3127 -1.8984  0.9752
10245SOL    HW231978   3.551   7.389   4.841  0.0474  0.3363  0.0398
10246SOL     OW31979   0.675   0.058   0.249  0.3342  0.0648  0.5597
10246SOL    HW131980   0.668   0.147   0.214  0.5387 -0.5163 -1.0172
10246SOL    HW231981   0.658   0.002   0.173  1.1670 -1.2362  1.3316
10247SOL     OW31982   4.357   3.181   7.900 -0.2167  0.0175  0.7209
10247SOL    HW131983   4.425   3.113   7.900 -0.2010  0.0132  1.8865
10247SOL    HW231984   4.281   3.139   7.860  0.1585 -0.3068  0.3449
10248SOL     OW31985   1.056   4.534   1.715 -0.2043  0.8883  0.1847
10248SOL    HW131986   1.016   4.567   1.796 -1.0524  0.1737  0.0611
10248SOL    HW231987   0.985   4.489   1.670  0.5568  0.2676 -0.4057
10249SOL     OW31988   3.523   1.413   5.143 -0.4163  0.2828 -0.6566
10249SOL    HW131989   3.551   1.358   5.068 -4.0248 -1.1806 -1.0319
10249SOL    HW231990   3.570   1.376   5.218  2.2205  0.9155 -1.9108
10250SOL     OW31991   7.467   5.385   6.265 -0.2288 -0.2020  0.1549
10250SOL    HW131992   7.425   5.414   6.184  1.1932 -1.5411 -1.0736
10250SOL    HW231993   7.402   5.329   6.307  0.2027 -2.0456 -1.6034
10251SOL     OW31994   4.454   6.138   0.959  0.3138 -0.6604 -0.2057
10251SOL    HW131995   4.364   6.138   0.993 -0.4969 -0.5725 -2.3182
10251SOL    HW231996   4.499   6.074   1.014 -1.1242 -0.9619  0.6654
10252SOL     OW31997   6.935   6.844   8.017  0.1363  0.3036 -0.0960
10252SOL    HW131998   6.956   6.797   7.936  1.2946  1.1158 -0.2862
10252SOL    HW231999   6.879   6.916   7.989 -0.0857  0.1398 -0.0715
10253SOL     OW32000   5.125   3.144   6.549 -0.0065 -0.1281 -0.4098
10253SOL    HW132001   5.055   3.118   6.489 -0.8113  1.3874 -0.1402
10253SOL    HW232002   5.153   3.230   6.518  0.7149 -0.0642  0.3885
10254SOL     OW32003   0.038   7.668   5.615  0.0834 -0.2140 -0.3248
10254SOL    HW132004   0.060   7.637   5.703  2.5592  0.4385 -0.6694
10254SOL    HW232005  -0.057   7.666   5.612 -0.0656  0.1306  2.5212
10255SOL     OW32006   0.813   5.763   5.458 -0.2483  0.2125  0.0947
10255SOL    HW132007   0.834   5.736   5.547 -1.7628 -1.1828  0.0506
10255SOL    HW232008   0.722   5.792   5.461  0.2626  1.9876 -0.6206
10256SOL     OW32009   6.111   8.033   0.351  0.1564 -0.2109 -0.4713
10256SOL    HW132010   6.180   8.045   0.417 -0.0181 -0.6178 -0.2161
10256SOL    HW232011   6.083   8.122   0.331 -0.0875 -0.1043  0.3191
10257SOL     OW32012   1.061   4.167   0.117  0.1560  0.5037  0.4064
10257SOL    HW132013   1.059   4.111   0.040  0.7544 -0.4511  1.0749
10257SOL    HW232014   0.979   4.149   0.163  0.2239  0.3769  0.4784
10258SOL     OW32015   3.579   1.482   3.275  0.0500 -0.4130  0.3589
10258SOL    HW132016   3.550   1.540   3.345  0.4510  0.7547 -0.4220
10258SOL    HW232017   3.636   1.537   3.220  1.6307 -1.9403  0.4170
10259SOL     OW32018   0.996   2.645   3.418  0.1736 -0.0076  0.0709
10259SOL    HW132019   0.981   2.678   3.507  2.8465  1.9394 -0.1500
10259SOL    HW232020   1.069   2.584   3.427 -0.4454 -0.8533 -0.5844
10260SOL     OW32021   4.859   1.555   0.081 -0.0552  0.5879 -0.1544
10260SOL    HW132022   4.954   1.539   0.081 -0.1379  0.0816  1.3315
10260SOL    HW232023   4.848   1.634   0.134 -0.6187 -0.3175  1.0884
10261SOL     OW32024   5.076   3.339   4.748 -0.4668 -0.2713 -0.1653
10261SOL    HW132025   5.158   3.363   4.791 -0.5523 -2.2355  1.1727
10261SOL    HW232026   5.100   3.327   4.656  0.1587  1.8788 -0.2997
10262SOL     OW32027   5.120   6.866   0.810  0.2716 -0.5115 -0.4070
10262SOL    HW132028   5.202   6.830   0.776 -1.1036 -2.0258 -2.2349
10262SOL    HW232029   5.072   6.790   0.842  0.1434  0.5222  2.0107
10263SOL     OW32030   1.896   3.098   5.639 -0.3989  0.1541  0.1234
10263SOL    HW132031   1.920   3.181   5.598 -0.0853  0.2407  0.4690
10263SOL    HW232032   1.961   3.087   5.709 -1.1273  0.1772  0.8106
10264SOL     OW32033   1.023   3.850   1.883  0.4820  0.2026  0.7900
10264SOL    HW132034   1.095   3.906   1.854 -0.0119 -0.2068 -1.2877
10264SOL    HW232035   0.944   3.899   1.862  0.1196  0.0359  1.7574
10265SOL     OW32036   3.081   1.365   0.751 -0.0765 -0.1267  0.0404
10265SOL    HW132037   3.077   1.337   0.843 -1.5621 -0.5093 -0.1266
10265SOL    HW232038   2.995   1.343   0.716  0.0849  1.0903 -1.1487
10266SOL     OW32039   2.235   2.442   0.429  0.0270  0.4925 -0.5434
10266SOL    HW132040   2.253   2.461   0.337  1.7512 -0.1711 -0.3568
10266SOL    HW232041   2.250   2.348   0.437 -0.3566  0.5082  0.3583
10267SOL     OW32042   4.062   6.681   0.583  0.3552  0.4651  0.0361
10267SOL    HW132043   4.136   6.731   0.616  0.7523 -0.5994  0.7990
10267SOL    HW232044   4.059   6.701   0.489  1.8410  0.2311 -0.0721
10268SOL     OW32045   5.100   1.619   2.568 -0.2135 -0.0229 -0.5623
10268SOL    HW132046   5.084   1.565   2.491 -0.2010 -1.2539  0.2849
10268SOL    HW232047   5.070   1.706   2.543  0.6745 -0.2004 -2.2815
10269SOL     OW32048   3.226   0.348   6.066 -0.2120 -0.0110 -0.1654
10269SOL    HW132049   3.263   0.377   6.150  1.0086  0.3980 -0.8363
10269SOL    HW232050   3.207   0.429   6.019 -1.2459 -0.2342 -0.1405
10270SOL     OW32051   4.679   4.835   7.082 -0.2729 -0.5966 -0.7505
10270SOL    HW132052   4.738   4.910   7.080 -0.2296 -0.6478 -1.6305
10270SOL    HW232053   4.711   4.781   7.154  0.6310 -0.5298 -1.0944
10271SOL     OW32054   5.386   3.054   2.780  0.6171 -0.0307  0.6160
10271SOL    HW132055   5.478   3.080   2.785  0.3177  0.8802  1.5838
10271SOL    HW232056   5.342   3.130   2.740  0.5833 -1.2402 -1.7554
10272SOL     OW32057   5.458   1.210   0.164  0.1268 -0.0845  0.4928
10272SOL    HW132058   5.413   1.139   0.210 -0.6767  0.2549  0.2288
10272SOL    HW232059   5.532   1.167   0.122 -0.2794 -0.7504  0.4456
10273SOL     OW32060   5.025   1.298   8.167 -0.6171  0.5206 -0.2462
10273SOL    HW132061   4.935   1.296   8.136 -1.1666  0.9098  1.2988
10273SOL    HW232062   5.033   1.221   8.224 -0.4486  1.3775  0.9027
10274SOL     OW32063   7.455   7.462   4.212 -0.1388 -0.2556 -0.6661
10274SOL    HW132064   7.393   7.391   4.229  0.0219 -0.5381 -1.2445
10274SOL    HW232065   7.425   7.499   4.129 -0.4120  0.5573 -0.2142
10275SOL     OW32066   1.539   2.882   7.233 -0.1964 -0.2757 -0.3090
10275SOL    HW132067   1.629   2.869   7.262  0.8105  0.7604 -2.8205
10275SOL    HW232068   1.510   2.961   7.279  0.6858  0.1911 -0.5386
10276SOL     OW32069   3.802   2.423   4.606  0.0878 -0.8753 -0.2902
10276SOL    HW132070   3.791   2.379   4.521 -0.3560  2.3136 -1.9432
10276SOL    HW232071   3.895   2.446   4.609 -0.2458  0.5439 -0.7013
10277SOL     OW32072   3.156   4.627   3.954  0.2714 -0.3396 -0.0060
10277SOL    HW132073   3.208   4.601   4.030 -0.5131 -0.0334  0.6474
10277SOL    HW232074   3.123   4.544   3.919  1.7186 -0.5942 -0.8231
10278SOL     OW32075   1.029   6.938   6.141  0.3102 -0.0734 -0.2606
10278SOL    HW132076   0.961   7.001   6.163 -0.4578 -0.7608 -0.6592
10278SOL    HW232077   1.109   6.974   6.182 -0.3115  0.6429  0.3428
10279SOL     OW32078   1.809   7.100   7.636  0.3938  0.0760 -0.2707
10279SOL    HW132079   1.885   7.105   7.694  0.5398 -1.1131 -0.3536
10279SOL    HW232080   1.846   7.109   7.548  0.9470 -4.3035 -0.5872
10280SOL     OW32081   6.937   1.595   4.547 -0.0067  0.2579 -0.2001
10280SOL    HW132082   6.850   1.636   4.544  0.1913  0.6550 -0.6462
10280SOL    HW232083   6.984   1.634   4.472  0.6899  0.3525  0.2843
10281SOL     OW32084   0.283   5.908   5.054  0.2560 -1.0011  0.2403
10281SOL    HW132085   0.332   5.866   4.983  0.8467  0.2614 -0.1029
10281SOL    HW232086   0.347   5.923   5.123  0.9320  2.8137 -1.1282
10282SOL     OW32087   7.506   2.658   5.067  0.7024  0.0186 -0.1853
10282SOL    HW132088   7.440   2.705   5.017 -0.8896 -0.5320  1.3566
10282SOL    HW232089   7.530   2.719   5.137  1.1322 -0.1499 -0.1841
10283SOL     OW32090   6.987   7.485   6.947  0.0822 -0.2838 -0.3189
10283SOL    HW132091   7.045   7.457   7.017 -1.1381  0.0381  0.8566
10283SOL    HW232092   6.952   7.569   6.977  1.1228  0.8813 -2.2621
10284SOL     OW32093   2.247   4.200   7.240 -0.2235 -0.5158 -0.8829
10284SOL    HW132094   2.161   4.229   7.270 -0.1978 -0.0404 -1.2704
10284SOL    HW232095   2.242   4.203   7.145  0.8165  1.3001 -0.9055
10285SOL     OW32096   0.505   4.495   5.133  0.0782  0.2085 -0.2091
10285SOL    HW132097   0.462   4.422   5.176 -0.4480  0.6446  0.0064
10285SOL    HW232098   0.536   4.459   5.050  1.6545 -0.8006  0.7861
10286SOL     OW32099   4.123   3.714   3.308 -0.0155 -0.2442 -0.2881
10286SOL    HW132100   4.100   3.627   3.273  0.6597 -0.8128  0.6513
10286SOL    HW232101   4.214   3.704   3.337  0.0846  0.8068 -0.2497
10287SOL     OW32102   2.720   7.264   2.608  0.3147  0.0292 -0.3280
10287SOL    HW132103   2.775   7.213   2.549 -0.8750 -0.4499 -1.0426
10287SOL    HW232104   2.754   7.353   2.600 -0.6381  0.2102 -2.7344
10288SOL     OW32105   1.694   4.153   1.790 -0.5117 -0.2945 -0.0317
10288SOL    HW132106   1.634   4.227   1.798  1.0617  1.1467 -1.2128
10288SOL    HW232107   1.697   4.135   1.696 -1.3887 -2.3117  0.3005
10289SOL     OW32108   5.132   4.712   0.795 -0.0892 -0.1060  0.0137
10289SOL    HW132109   5.166   4.666   0.872  3.1482  1.1997 -0.5395
10289SOL    HW232110   5.070   4.776   0.830 -0.7485 -1.4071  1.2516
10290SOL     OW32111   8.038   2.836   8.187  0.0421 -0.5946  0.3908
10290SOL    HW132112   7.944   2.831   8.207  0.3391 -1.3216  1.6316
10290SOL    HW232113   8.044   2.807   8.096 -0.9783 -0.1721  0.1737
10291SOL     OW32114   4.255   7.013   1.860 -0.6866  0.7944 -0.5786
10291SOL    HW132115   4.240   7.085   1.922 -0.2031  0.1294  0.3236
10291SOL    HW232116   4.203   6.941   1.896 -1.1048  0.6618 -1.4374
10292SOL     OW32117   7.548   5.659   6.313  0.1191  0.4047  0.5311
10292SOL    HW132118   7.625   5.683   6.261 -0.4555  0.2905 -0.3781
10292SOL    HW232119   7.546   5.563   6.310  0.1981  0.3867  0.9425
10293SOL     OW32120   1.963   6.336   1.527 -0.1156  0.3707  0.2349
10293SOL    HW132121   1.910   6.327   1.448  1.1631 -0.2800 -0.5634
10293SOL    HW232122   2.052   6.351   1.495  0.6882 -1.4699  1.4930
10294SOL     OW32123   5.763   4.598   0.932 -0.0597 -0.4519 -0.0071
10294SOL    HW132124   5.713   4.679   0.923  0.2092 -0.2055  0.6671
10294SOL    HW232125   5.830   4.618   0.998  0.1965 -1.1312 -0.0540
10295SOL     OW32126   0.182   6.968   5.652 -0.1957  0.0830 -0.3102
10295SOL    HW132127   0.216   6.881   5.628  0.0092 -0.0755  0.5396
10295SOL    HW232128   0.089   6.964   5.631  0.0161  0.0380 -1.3125
10296SOL     OW32129   5.266   0.183   6.848 -0.0209  0.1107 -0.5965
10296SOL    HW132130   5.329   0.230   6.903  0.0456 -0.6916  0.0168
10296SOL    HW232131   5.231   0.250   6.789 -1.6037  1.4518  1.7698
10297SOL     OW32132   2.742   4.359   1.552 -0.3874  0.0058 -0.2473
10297SOL    HW132133   2.704   4.437   1.511  0.3130  1.6430  2.0780
10297SOL    HW232134   2.818   4.393   1.600 -0.6566 -1.9683  1.6282
10298SOL     OW32135   5.367   2.478   4.977 -0.1077 -0.0710  0.1608
10298SOL    HW132136   5.330   2.395   5.004 -0.7656  0.0845 -0.2543
10298SOL    HW232137   5.432   2.499   5.044  0.8045 -1.4223 -0.2842
10299SOL     OW32138   1.647   3.314   7.600 -0.3682 -0.3384  0.0559
10299SOL    HW132139   1.670   3.401   7.567 -1.0744  0.4735  1.6547
10299SOL    HW232140   1.613   3.330   7.688  0.3264 -2.3402  0.7080
10300SOL     OW32141   2.897   4.888   5.532 -0.5045 -0.2505  0.1487
10300SOL    HW132142   2.961   4.835   5.579  0.8955 -0.0155 -1.4641
10300SOL    HW232143   2.927   4.978   5.541 -0.8989 -0.0834 -0.1663
10301SOL     OW32144   5.002   7.676   0.102 -0.2461 -0.2416 -0.1175
10301SOL    HW132145   4.961   7.711   0.182 -1.9399 -1.6135 -0.3611
10301SOL    HW232146   4.950   7.713   0.031  1.5259  1.3121 -0.6240
10302SOL     OW32147   7.943   5.303   4.896 -0.4648 -0.2643 -0.1476
10302SOL    HW132148   7.932   5.263   4.810  0.6473 -1.6014  0.3190
10302SOL    HW232149   8.026   5.350   4.891 -1.0426  0.7583 -0.2170
10303SOL     OW32150   6.328   7.977   6.447  0.5359 -0.1316  0.2306
10303SOL    HW132151   6.249   7.964   6.396  0.9062 -1.4628 -0.0241
10303SOL    HW232152   6.313   8.059   6.495 -0.9137 -0.2974  0.0704
10304SOL     OW32153   0.756   6.549   7.249  0.2409  0.2132  0.2956
10304SOL    HW132154   0.777   6.546   7.156 -0.5645  0.3290  0.1110
10304SOL    HW232155   0.820   6.609   7.286  1.1360 -0.5182 -0.0274
10305SOL     OW32156   6.186   4.459   5.109  0.5814  0.2915  0.1378
10305SOL    HW132157   6.101   4.442   5.150  1.0803 -0.0915  1.0170
10305SOL    HW232158   6.213   4.375   5.073  0.7493  0.3346  0.1619
10306SOL     OW32159   4.863   1.327   5.430 -0.6662 -0.1340 -0.0906
10306SOL    HW132160   4.948   1.284   5.417 -0.3612 -0.0213  1.3696
10306SOL    HW232161   4.803   1.280   5.373  0.0359 -1.3595  0.1578
10307SOL     OW32162   1.185   0.528   6.560  0.4193  0.2502 -0.1347
10307SOL    HW132163   1.091   0.512   6.565  0.2576  1.0729 -0.4234
10307SOL    HW232164   1.193   0.604   6.502  1.3326 -0.5844 -1.1307
10308SOL     OW32165   4.939   3.447   5.555  0.1139 -0.1095 -0.0289
10308SOL    HW132166   5.010   3.474   5.613  0.4493 -2.0295  0.4975
10308SOL    HW232167   4.860   3.462   5.605  0.3460 -0.7904  0.5540
10309SOL     OW32168   4.375   4.214   2.584  0.5192 -0.4514  0.6024
10309SOL    HW132169   4.428   4.188   2.659  2.2799  0.9820 -0.1157
10309SOL    HW232170   4.340   4.300   2.609 -0.1679 -0.6705  0.4032
10310SOL     OW32171   2.629   1.661   4.193 -0.1377 -0.0074 -0.3986
10310SOL    HW132172   2.630   1.575   4.150 -0.0269 -1.1638  1.8328
10310SOL    HW232173   2.543   1.665   4.235  0.1125  0.6904  0.0556
10311SOL     OW32174   0.323   2.300   6.887  0.1328  0.0529  0.4604
10311SOL    HW132175   0.403   2.303   6.940 -0.0682 -0.7862  0.8135
10311SOL    HW232176   0.354   2.291   6.797  0.4167 -1.8839  0.7289
10312SOL     OW32177   7.568   1.821   4.828 -0.0947  0.1151 -0.2016
10312SOL    HW132178   7.571   1.736   4.784  2.1086  0.2207 -0.3336
10312SOL    HW232179   7.567   1.800   4.921 -0.0470 -0.0534 -0.2389
10313SOL     OW32180   4.239   0.904   4.724 -0.1270  0.0843 -0.0878
10313SOL    HW132181   4.317   0.912   4.778  1.5705  0.7028 -2.5659
10313SOL    HW232182   4.216   0.811   4.728 -0.6066  0.2719  2.4121
10314SOL     OW32183   7.734   3.220   1.908 -0.5904 -0.2538 -0.0181
10314SOL    HW132184   7.764   3.245   1.820  1.2698 -0.9263  0.3959
10314SOL    HW232185   7.698   3.301   1.945 -0.5403  0.2529 -1.0681
10315SOL     OW32186   4.841   0.245   5.648 -0.0699 -0.3665  0.0306
10315SOL    HW132187   4.925   0.251   5.603  1.2281 -0.4010  2.3687
10315SOL    HW232188   4.809   0.335   5.653 -0.0534 -0.3230 -0.6057
10316SOL     OW32189   1.227   3.469   4.458  0.5564 -0.4330  0.7649
10316SOL    HW132190   1.216   3.454   4.364 -1.0622  0.1436  0.8505
10316SOL    HW232191   1.322   3.477   4.469  0.6872  1.0515 -1.0721
10317SOL     OW32192   1.852   2.164   0.174  0.2086  0.0656  0.9676
10317SOL    HW132193   1.894   2.156   0.089 -2.8343 -0.4753 -0.5604
10317SOL    HW232194   1.850   2.075   0.209  0.9534  0.2003  1.3568
10318SOL     OW32195   2.754   2.985   7.801  0.0400  0.2654  0.0716
10318SOL    HW132196   2.723   3.027   7.881  0.0810 -0.1716  0.3196
10318SOL    HW232197   2.759   3.056   7.737 -1.0327  0.4289  0.1518
10319SOL     OW32198   5.914   7.855   0.384 -0.6177  0.0431 -1.1187
10319SOL    HW132199   5.847   7.911   0.345 -0.0753  1.0914 -0.5580
10319SOL    HW232200   5.997   7.890   0.351 -0.0673  1.5811  1.7027
10320SOL     OW32201   7.290   7.251   4.286 -0.2081 -0.1081 -0.0841
10320SOL    HW132202   7.209   7.202   4.272 -0.5464  0.3340  0.3296
10320SOL    HW232203   7.359   7.188   4.266 -0.6117 -1.1087  1.5682
10321SOL     OW32204   1.848   3.301   6.418 -0.0817  0.8027 -0.2294
10321SOL    HW132205   1.921   3.271   6.472  0.0562  0.6870 -0.4813
10321SOL    HW232206   1.870   3.391   6.396 -0.0384  0.7823 -0.2678
10322SOL     OW32207   3.232   3.792   3.898  0.3549  0.1520 -0.4010
10322SOL    HW132208   3.158   3.813   3.956 -0.8053 -2.0736 -1.0139
10322SOL    HW232209   3.267   3.877   3.873  0.1910  1.1870  2.6786
10323SOL     OW32210   5.711   2.963   6.046  0.0898  0.4882  0.1184
10323SOL    HW132211   5.716   2.868   6.044 -1.5438  0.3935 -0.5363
10323SOL    HW232212   5.729   2.990   5.956  1.0672  0.8332  0.4125
10324SOL     OW32213   5.033   2.959   8.026 -0.2333  0.2298  0.3258
10324SOL    HW132214   5.063   2.945   8.116  0.3924  0.9132  0.2306
10324SOL    HW232215   4.945   2.921   8.023  0.1552 -0.7224  0.9408
10325SOL     OW32216   5.731   1.041   3.237 -0.2960  0.4037  0.4570
10325SOL    HW132217   5.753   1.097   3.163  0.3684  2.7322  2.3634
10325SOL    HW232218   5.646   1.003   3.215  1.2523 -1.3058 -2.8115
10326SOL     OW32219   4.007   1.847   8.201  0.3662 -0.3148 -0.3958
10326SOL    HW132220   4.095   1.862   8.167  0.3022  1.1640  0.0849
10326SOL    HW232221   4.012   1.871   8.294 -0.8718  1.1119 -0.6743
10327SOL     OW32222   3.651   3.827   5.003  0.8334 -0.6450 -0.1567
10327SOL    HW132223   3.707   3.869   5.070  0.8180 -0.3409 -0.3344
10327SOL    HW232224   3.708   3.760   4.964  1.4346  0.3876 -1.0849
10328SOL     OW32225   2.115   1.649   1.916  0.3009 -0.0078  0.3827
10328SOL    HW132226   2.205   1.661   1.948  0.0704  1.3956  0.5269
10328SOL    HW232227   2.078   1.583   1.975  0.1807  1.8718  2.4528
10329SOL     OW32228   5.567   5.051   4.688  0.4048  0.6489  0.3653
10329SOL    HW132229   5.595   5.142   4.679  0.8053  0.5231  0.3355
10329SOL    HW232230   5.646   5.004   4.715  0.5940  0.0286 -1.2348
10330SOL     OW32231   0.464   0.645   2.660  0.6920  0.6765 -0.1674
10330SOL    HW132232   0.521   0.610   2.728  1.2151 -0.2363 -1.0538
10330SOL    HW232233   0.449   0.736   2.685 -2.0422 -0.5801  3.1055
10331SOL     OW32234   4.309   2.061   0.818  0.2657  0.3231 -0.3522
10331SOL    HW132235   4.273   1.988   0.768  1.0570 -2.2133  2.6487
10331SOL    HW232236   4.394   2.078   0.778  0.0314 -0.3141 -1.1435
10332SOL     OW32237   0.945   8.176   2.171 -0.1949  0.1008  0.3437
10332SOL    HW132238   0.946   8.200   2.078  1.3855 -0.0080  0.3128
10332SOL    HW232239   0.862   8.131   2.183 -0.3452 -0.0258 -1.0618
10333SOL     OW32240   3.743   5.444   3.650 -0.3355  0.6484  0.0231
10333SOL    HW132241   3.799   5.505   3.697 -0.9243  0.0671  1.5395
10333SOL    HW232242   3.692   5.401   3.719 -3.2298  1.7313 -1.3433
10334SOL     OW32243   4.083   4.527   5.863  0.0302  0.0837  0.6800
10334SOL    HW132244   4.152   4.477   5.819 -0.6947 -0.3930  0.0678
10334SOL    HW232245   4.002   4.481   5.841 -0.8069  2.2939 -0.9915
10335SOL     OW32246   6.462   2.275   7.160  0.4635  0.3534 -0.0097
10335SOL    HW132247   6.502   2.333   7.094  0.1324  1.1484  0.4742
10335SOL    HW232248   6.431   2.200   7.110 -0.2480  1.1874 -0.8498
10336SOL     OW32249   6.130   3.466   2.541 -0.4594  0.3515  0.0643
10336SOL    HW132250   6.070   3.445   2.613  0.1284  2.9097  1.3346
10336SOL    HW232251   6.217   3.451   2.577 -0.2468 -2.3784 -1.4655
10337SOL     OW32252   0.698   3.856   3.108 -0.1076  0.4213  0.7844
10337SOL    HW132253   0.737   3.769   3.104  0.0965  0.5606 -0.4457
10337SOL    HW232254   0.712   3.885   3.198 -1.0777 -1.2243  1.4780
10338SOL     OW32255   0.584   4.146   5.556 -0.2222 -0.2797 -0.3401
10338SOL    HW132256   0.565   4.233   5.522 -0.0562  0.6906  2.0024
10338SOL    HW232257   0.510   4.126   5.613  0.1546 -1.3127 -0.2062
10339SOL     OW32258   3.333   7.649   0.313 -0.4954  0.2341  0.0617
10339SOL    HW132259   3.303   7.654   0.223 -0.8299  0.5188  0.1876
10339SOL    HW232260   3.274   7.707   0.362  3.3255  4.9646 -0.4725
10340SOL     OW32261   3.564   0.025   2.913 -0.1752 -0.2756  0.1158
10340SOL    HW132262   3.632   0.036   2.846  0.6388 -1.1154  0.7850
10340SOL    HW232263   3.528   0.113   2.925  0.8882  0.2090 -0.1648
10341SOL     OW32264   1.206   3.292   5.015 -0.4361 -0.4531  0.2787
10341SOL    HW132265   1.207   3.238   4.936  2.3616  0.5045 -0.4093
10341SOL    HW232266   1.238   3.234   5.084 -1.5714 -0.9024  0.4263
10342SOL     OW32267   3.184   4.062   7.402 -0.2879  0.2087  0.6051
10342SOL    HW132268   3.229   4.107   7.474  1.3271 -1.0401  0.4048
10342SOL    HW232269   3.187   3.970   7.427  0.1065 -0.2198 -0.9578
10343SOL     OW32270   0.203   3.926   3.977  0.0369 -0.4995  0.2997
10343SOL    HW132271   0.297   3.916   3.961 -0.2081 -2.1189 -0.1911
10343SOL    HW232272   0.176   3.842   4.014 -1.2517 -0.0960  0.2921
10344SOL     OW32273   4.499   0.110   6.025  0.4699 -0.2629 -0.5398
10344SOL    HW132274   4.531   0.195   5.996  3.0337 -1.5824 -1.7776
10344SOL    HW232275   4.411   0.103   5.987  1.0131  1.0194 -2.0880
10345SOL     OW32276   4.027   0.535   0.752 -0.0334 -0.3111 -0.5501
10345SOL    HW132277   4.016   0.505   0.662  1.1549  0.6648 -1.0471
10345SOL    HW232278   3.976   0.616   0.757  1.8228  0.9074 -1.0546
10346SOL     OW32279   1.676   5.880   2.276 -0.1162  0.1883 -0.5770
10346SOL    HW132280   1.625   5.959   2.292 -0.1700 -0.2255  1.4648
10346SOL    HW232281   1.653   5.854   2.187 -1.9243  1.1523 -0.4104
10347SOL     OW32282   5.029   2.822   2.277  0.2031  0.1147  0.6419
10347SOL    HW132283   5.063   2.785   2.196  1.1273  1.0066  0.6112
10347SOL    HW232284   4.952   2.769   2.298  0.5745 -0.7815 -0.2529
10348SOL     OW32285   1.471   3.371   7.826 -0.0105 -0.2156 -0.6072
10348SOL    HW132286   1.499   3.356   7.916 -0.8968 -1.3568 -0.5168
10348SOL    HW232287   1.456   3.466   7.820 -1.8178 -0.3892  0.9708
10349SOL     OW32288   6.085   1.403   8.192 -0.0227  0.3648 -0.1159
10349SOL    HW132289   6.019   1.459   8.150  0.1092  0.6684  0.0786
10349SOL    HW232290   6.141   1.464   8.240  0.5108  0.1190 -0.4263
10350SOL     OW32291   1.718   5.451   3.305  0.4371  0.0512 -0.0781
10350SOL    HW132292   1.651   5.501   3.257 -0.2815 -1.2586 -0.4506
10350SOL    HW232293   1.705   5.476   3.396 -1.3359 -1.0539  0.0039
10351SOL     OW32294   4.650   4.893   6.434  0.0705 -0.0252  0.4596
10351SOL    HW132295   4.744   4.872   6.428  0.2494  0.6565  0.9298
10351SOL    HW232296   4.636   4.913   6.526 -0.5879 -0.3476  0.4274
10352SOL     OW32297   1.447   2.621   2.647  0.6591 -0.0793  0.1974
10352SOL    HW132298   1.497   2.629   2.566 -0.1467  1.6118 -0.1694
10352SOL    HW232299   1.375   2.562   2.625 -0.1514  1.1845 -0.6596
10353SOL     OW32300   1.051   7.206   0.099 -0.1830  0.2183 -0.9023
10353SOL    HW132301   1.038   7.202   0.194 -1.0698 -0.2619 -1.0399
10353SOL    HW232302   1.134   7.252   0.088  0.3635 -0.5121  0.1366
10354SOL     OW32303   4.550   8.026   6.215 -0.2540  0.6300 -0.0642
10354SOL    HW132304   4.561   7.957   6.148  0.1638 -0.4851  1.1310
10354SOL    HW232305   4.609   8.095   6.188  1.2427 -0.5563  0.0964
10355SOL     OW32306   1.362   2.020   1.473  0.5010 -0.4072 -0.0647
10355SOL    HW132307   1.447   2.063   1.480  0.3149  0.3878 -2.4455
10355SOL    HW232308   1.382   1.931   1.444  0.5578 -0.4243  0.0264
10356SOL     OW32309   2.123   3.949   1.500 -0.0288  0.0244  0.1724
10356SOL    HW132310   2.127   4.020   1.565 -0.8222  1.4966 -1.3486
10356SOL    HW232311   2.046   3.898   1.525  1.6726 -1.5403  2.4644
10357SOL     OW32312   3.748   5.842   1.367  0.1744  0.3130  0.2667
10357SOL    HW132313   3.824   5.864   1.421  1.4935 -1.9052 -0.6195
10357SOL    HW232314   3.782   5.842   1.277 -0.4847 -2.2299 -0.0107
10358SOL     OW32315   5.382   3.679   5.323 -0.4886  0.0360  0.3090
10358SOL    HW132316   5.307   3.676   5.383 -1.0632  0.8364 -0.3582
10358SOL    HW232317   5.390   3.589   5.291 -0.8335 -0.1668  0.7756
10359SOL     OW32318   8.074   3.502   7.227  0.6229  0.5084  0.1139
10359SOL    HW132319   8.124   3.425   7.202  1.3187  0.7592  0.7224
10359SOL    HW232320   8.139   3.572   7.235  0.1265  0.9281  0.5106
10360SOL     OW32321   2.568   5.761   4.911 -0.9410  0.3464  0.0439
10360SOL    HW132322   2.583   5.719   4.996 -1.0529  1.3004  0.5426
10360SOL    HW232323   2.533   5.847   4.933 -0.4546  0.8050 -0.9698
10361SOL     OW32324   3.263   0.624   0.848 -0.4431 -0.3572  0.1111
10361SOL    HW132325   3.317   0.650   0.773 -0.3578 -0.2217  0.2196
10361SOL    HW232326   3.317   0.560   0.894 -0.4606 -0.3775  0.1029
10362SOL     OW32327   3.880   5.838   3.684  0.1729 -0.1619  0.0268
10362SOL    HW132328   3.797   5.815   3.726  0.0981 -0.3989 -0.2485
10362SOL    HW232329   3.934   5.760   3.692  1.7994  1.2534  3.6584
10363SOL     OW32330   1.241   6.267   1.400  0.1720 -0.0495  0.4768
10363SOL    HW132331   1.324   6.314   1.397  0.2070 -0.1447 -0.0667
10363SOL    HW232332   1.188   6.316   1.462 -0.1728  1.3345 -0.8765
10364SOL     OW32333   6.612   2.228   3.304  0.0377  0.0230 -0.2842
10364SOL    HW132334   6.666   2.182   3.240 -2.5517 -1.7341 -1.3145
10364SOL    HW232335   6.674   2.259   3.370  2.5066 -0.1220 -2.4444
10365SOL     OW32336   4.491   5.927   3.850  0.3546  0.0815  0.5260
10365SOL    HW132337   4.429   5.976   3.796  0.1135 -0.5037  0.2691
10365SOL    HW232338   4.487   5.969   3.936 -0.2814  0.1352  0.4693
10366SOL     OW32339   2.413   7.235   4.545 -0.1575  0.3222  0.3646
10366SOL    HW132340   2.378   7.188   4.469  3.5307 -2.7046  0.3945
10366SOL    HW232341   2.480   7.292   4.508  0.4103  0.1464  1.1206
10367SOL     OW32342   7.915   7.370   3.470  0.0258  0.2930  0.4840
10367SOL    HW132343   7.914   7.401   3.561  1.0406  0.3637  0.4819
10367SOL    HW232344   7.957   7.284   3.475  0.1313  0.3220  0.0765
10368SOL     OW32345   4.818   1.670   6.882  0.0104  0.2080  0.0160
10368SOL    HW132346   4.772   1.720   6.813  1.5883  3.0587  0.9375
10368SOL    HW232347   4.908   1.701   6.877  0.7397 -1.6137  1.5660
10369SOL     OW32348   0.344   7.714   0.390  0.0715  0.2723 -0.6138
10369SOL    HW132349   0.363   7.806   0.409  1.1739 -0.0241 -0.2447
10369SOL    HW232350   0.405   7.690   0.321  0.3702 -0.4204 -0.1197
10370SOL     OW32351   0.453   0.570   0.978  0.5388  0.4744 -0.0246
10370SOL    HW132352   0.471   0.629   0.905 -0.6338  0.1992 -0.5426
10370SOL    HW232353   0.362   0.587   1.001  0.3185 -0.8273  0.0999
10371SOL     OW32354   2.144   0.663   4.771 -0.1179  0.1007 -0.0205
10371SOL    HW132355   2.121   0.579   4.811 -0.2223 -0.9902 -2.3308
10371SOL    HW232356   2.065   0.691   4.726  0.6993  0.1653 -1.4285
10372SOL     OW32357   4.437   1.755   7.291 -0.3359 -0.5762  0.7288
10372SOL    HW132358   4.347   1.741   7.318  0.0288 -1.7083  1.4066
10372SOL    HW232359   4.478   1.669   7.298  1.0422  0.1182  1.3594
10373SOL     OW32360   7.621   6.376   5.900  0.4905  0.6491  0.1868
10373SOL    HW132361   7.595   6.325   5.823  0.9266  0.0428  0.4357
10373SOL    HW232362   7.546   6.433   5.918  1.1660  2.2559 -1.8930
10374SOL     OW32363   1.773   0.021   6.711  0.1047 -0.0598  0.7909
10374SOL    HW132364   1.829   0.080   6.762  0.4182  1.0617 -0.8088
10374SOL    HW232365   1.832  -0.015   6.644 -0.5994 -0.4955  0.4024
10375SOL     OW32366   2.807   6.719   3.121 -0.6398 -0.6631  1.1254
10375SOL    HW132367   2.841   6.688   3.205 -1.2017 -0.9231  1.2614
10375SOL    HW232368   2.815   6.644   3.063 -0.0346 -0.4113  0.8851
10376SOL     OW32369   6.448   6.749   6.514 -0.0645  0.4721  0.0908
10376SOL    HW132370   6.539   6.775   6.527 -0.0874 -0.1069  1.5425
10376SOL    HW232371   6.453   6.670   6.461  0.2944  0.3220  0.3451
10377SOL     OW32372   4.589   0.115   2.542 -0.3032  0.8162  0.1582
10377SOL    HW132373   4.608   0.059   2.468 -0.0110  1.6825 -0.4253
10377SOL    HW232374   4.550   0.194   2.504 -0.0150  1.3270  0.9093
10378SOL     OW32375   2.130   2.861   0.855  0.3403  0.0925 -0.0560
10378SOL    HW132376   2.115   2.786   0.797 -0.3245  0.6864 -0.6511
10378SOL    HW232377   2.058   2.856   0.919  0.9452 -0.4319  0.5989
10379SOL     OW32378   0.353   8.068   2.585 -0.2291 -0.1723  0.3864
10379SOL    HW132379   0.284   8.116   2.541 -0.5387 -0.6673  0.3264
10379SOL    HW232380   0.307   8.005   2.640  0.1640 -0.0169  0.8965
10380SOL     OW32381   6.784   4.225   4.107  0.4635  0.1602 -0.4620
10380SOL    HW132382   6.774   4.252   4.016 -0.4453 -1.5111 -0.8767
10380SOL    HW232383   6.877   4.204   4.116  0.9519  2.2444 -0.4389
10381SOL     OW32384   0.240   7.085   6.952 -0.1874  0.0838  0.2672
10381SOL    HW132385   0.198   7.165   6.983  0.6608  0.6402 -0.0018
10381SOL    HW232386   0.302   7.062   7.021  1.0593  0.8236 -0.5856
10382SOL     OW32387   0.775   8.269   0.515 -0.2153 -0.2153  0.1477
10382SOL    HW132388   0.809   8.285   0.427  0.4163 -1.5093  0.1490
10382SOL    HW232389   0.682   8.291   0.508 -0.8962 -3.4194 -1.7254
10383SOL     OW32390   1.818   7.425   2.142  0.0440 -0.2897  0.0835
10383SOL    HW132391   1.807   7.504   2.089 -2.4126  0.3202  1.4042
10383SOL    HW232392   1.912   7.407   2.139  0.2850  1.0893 -2.4922
10384SOL     OW32393   0.601   0.198   3.156  0.1012 -0.0203 -0.1956
10384SOL    HW132394   0.528   0.246   3.195  0.1630  0.2765 -0.4474
10384SOL    HW232395   0.560   0.124   3.112  0.1942 -1.5700  2.2419
10385SOL     OW32396   8.171   3.189   1.182  0.0225 -0.3303 -0.3553
10385SOL    HW132397   8.219   3.261   1.223  1.1349 -0.7895 -0.8310
10385SOL    HW232398   8.239   3.125   1.159 -0.7966 -0.9096 -1.1883
10386SOL     OW32399   7.225   2.179   2.813  0.1877 -0.1783 -0.2727
10386SOL    HW132400   7.187   2.198   2.899  0.3474 -0.3112 -0.1724
10386SOL    HW232401   7.198   2.089   2.794 -3.1949  1.1597 -2.1323
10387SOL     OW32402   6.761   3.682   2.316 -0.1620 -0.0244  0.4524
10387SOL    HW132403   6.807   3.751   2.268  1.1107 -0.4573  1.0078
10387SOL    HW232404   6.795   3.600   2.280 -0.9953 -0.3584  0.4160
10388SOL     OW32405   6.691   5.074   3.399 -0.7870 -0.7516 -0.2247
10388SOL    HW132406   6.640   5.108   3.473 -0.4623 -2.0913  0.6212
10388SOL    HW232407   6.639   5.097   3.322 -1.2427  0.4588  0.4136
10389SOL     OW32408   2.797   0.342   1.146 -0.4659 -0.9218  0.2493
10389SOL    HW132409   2.703   0.348   1.167 -1.1451 -1.8139 -2.3596
10389SOL    HW232410   2.819   0.429   1.112 -0.6131 -1.0280 -0.1235
10390SOL     OW32411   0.856   4.948   4.858  0.2299 -0.2867 -0.0248
10390SOL    HW132412   0.782   4.991   4.901 -0.4882  1.4656 -2.8767
10390SOL    HW232413   0.932   5.000   4.885 -0.2770  1.1041 -1.1979
10391SOL     OW32414   3.832   6.344   0.877  0.1810 -0.3194  0.2803
10391SOL    HW132415   3.849   6.253   0.900 -0.0043 -1.0864 -2.4763
10391SOL    HW232416   3.912   6.373   0.833  0.8973  1.3969  2.6278
10392SOL     OW32417   2.137   4.561   1.923  0.8578 -0.1137  0.1452
10392SOL    HW132418   2.124   4.483   1.978  2.1828 -0.1278  0.4555
10392SOL    HW232419   2.048   4.587   1.897  0.4292 -1.8863 -0.1947
10393SOL     OW32420   5.210   5.576   2.273 -0.2708 -0.3196 -0.2033
10393SOL    HW132421   5.278   5.523   2.231 -0.5953 -0.7067 -0.2419
10393SOL    HW232422   5.130   5.526   2.260 -0.5071 -0.0302  0.1482
10394SOL     OW32423   1.914   0.899   3.278  0.0713  0.2097 -0.3464
10394SOL    HW132424   1.883   0.811   3.298 -1.5862  0.8558  0.0081
10394SOL    HW232425   1.979   0.917   3.346 -0.3590 -0.3273  0.2141
10395SOL     OW32426   8.044   2.469   1.578 -0.3622  0.1926  0.3834
10395SOL    HW132427   8.106   2.454   1.507 -1.5098  0.0621 -0.6030
10395SOL    HW232428   8.036   2.564   1.584 -0.0020  0.2122  0.5739
10396SOL     OW32429   6.785   4.949   5.794 -0.6446 -0.1644 -0.5663
10396SOL    HW132430   6.877   4.932   5.816 -0.9184  0.5964  1.3147
10396SOL    HW232431   6.785   5.036   5.755 -0.7090  0.3463  0.5571
10397SOL     OW32432   2.384   5.425   8.197  0.1653 -0.1038 -0.0716
10397SOL    HW132433   2.351   5.444   8.109 -0.3016 -1.3985 -0.1902
10397SOL    HW232434   2.316   5.460   8.255  0.4180  0.6493 -0.2185
10398SOL     OW32435   7.020   3.791   1.735 -0.4980 -0.2630  0.1543
10398SOL    HW132436   7.047   3.810   1.646  0.8061 -1.1174  0.3475
10398SOL    HW232437   7.087   3.832   1.790 -1.0954 -0.0517  0.7279
10399SOL     OW32438   2.774   1.416   5.335 -0.8086  0.1873  0.3819
10399SOL    HW132439   2.740   1.504   5.319  0.7348  0.7344  0.0303
10399SOL    HW232440   2.757   1.369   5.253 -1.2509  0.2701  0.4228
10400SOL     OW32441   4.763   4.535   6.591 -0.1137  0.1335 -0.1192
10400SOL    HW132442   4.684   4.570   6.550 -1.1857 -0.3133  1.5225
10400SOL    HW232443   4.780   4.453   6.545  0.4922  1.1358 -1.7339
10401SOL     OW32444   6.121   7.361   7.959 -0.0459 -0.0994  0.5401
10401SOL    HW132445   6.101   7.425   7.890  0.5054  0.2817  0.7344
10401SOL    HW232446   6.039   7.352   8.007  0.0996  1.1073  1.0353
10402SOL     OW32447   5.248   8.031   4.135 -0.0159  0.2610  0.3069
10402SOL    HW132448   5.164   8.035   4.090  0.2875 -2.5870 -0.6405
10402SOL    HW232449   5.311   8.065   4.071 -0.0139 -0.7651 -0.2456
10403SOL     OW32450   7.687   6.423   0.441 -0.6759 -0.1147  0.3412
10403SOL    HW132451   7.666   6.412   0.534 -1.3302  0.5013  0.2785
10403SOL    HW232452   7.778   6.394   0.433  0.9091  3.9937  2.0575
10404SOL     OW32453   1.499   5.081   6.387 -0.5132 -0.3630  0.4399
10404SOL    HW132454   1.465   5.083   6.477  1.1509  1.3818  1.0570
10404SOL    HW232455   1.523   5.172   6.369  2.5849 -1.2971 -0.4334
10405SOL     OW32456   3.891   1.589   4.437 -0.1032 -0.1586  0.3331
10405SOL    HW132457   3.922   1.587   4.347 -1.7413  0.3674 -0.2650
10405SOL    HW232458   3.969   1.572   4.490  0.0247 -5.5973 -1.3461
10406SOL     OW32459   5.309   3.160   2.206  0.2289  0.9924  0.0219
10406SOL    HW132460   5.234   3.107   2.180  0.9269  0.4879 -1.0229
10406SOL    HW232461   5.286   3.194   2.292 -1.0565  0.5846 -0.1493
10407SOL     OW32462   6.794   6.182   2.142 -0.2263  0.1004  0.0212
10407SOL    HW132463   6.855   6.250   2.169  0.6536 -0.3603 -0.8012
10407SOL    HW232464   6.763   6.211   2.056 -1.3705  0.4631  0.5417
10408SOL     OW32465   7.501   2.677   0.347 -0.1113 -0.3766 -0.4508
10408SOL    HW132466   7.467   2.638   0.428  0.7458 -1.7455 -0.7467
10408SOL    HW232467   7.565   2.614   0.314  0.3824  0.6993 -1.6040
10409SOL     OW32468   7.266   4.042   0.747  0.1127 -0.2254  0.1947
10409SOL    HW132469   7.248   4.089   0.829 -0.1198  0.3937 -0.2133
10409SOL    HW232470   7.324   3.970   0.774  0.9672  0.6385  0.7275
10410SOL     OW32471   7.711   3.212   3.601  0.6421 -0.2805 -0.0259
10410SOL    HW132472   7.664   3.141   3.645 -0.4146 -0.4644 -1.4071
10410SOL    HW232473   7.650   3.286   3.605  0.5418 -0.2956 -1.1433
10411SOL     OW32474   3.350   8.213   1.482 -0.3257  0.6024 -0.5426
10411SOL    HW132475   3.370   8.230   1.574 -2.5008 -0.7025  0.2399
10411SOL    HW232476   3.320   8.297   1.447  0.7022  1.1482 -0.1228
10412SOL     OW32477   1.184   3.005   7.074 -0.4307 -0.1143 -0.2587
10412SOL    HW132478   1.221   2.964   7.152  1.3960 -0.2889 -1.1984
10412SOL    HW232479   1.134   2.935   7.031 -0.0353 -0.4695 -0.1349
10413SOL     OW32480   2.549   6.898   2.146  0.2078  0.7300  0.1534
10413SOL    HW132481   2.583   6.986   2.131  0.5140  0.4562 -0.7692
10413SOL    HW232482   2.601   6.842   2.088 -1.0410  0.1475 -0.4222
10414SOL     OW32483   0.292   0.526   4.858  0.0656  0.7943 -0.7519
10414SOL    HW132484   0.361   0.534   4.924 -0.4030  2.3546 -0.4366
10414SOL    HW232485   0.235   0.601   4.874 -2.8181 -1.5371  0.2700
10415SOL     OW32486   2.445   2.970   0.560 -0.3539 -0.0409  0.3258
10415SOL    HW132487   2.381   2.923   0.506  0.9020  0.6486 -1.8434
10415SOL    HW232488   2.411   2.964   0.649 -1.8165 -2.3495 -0.3567
10416SOL     OW32489   1.254   6.192   5.328  0.7037  0.0226  0.1100
10416SOL    HW132490   1.171   6.158   5.362  0.8861 -0.6693 -0.1341
10416SOL    HW232491   1.254   6.284   5.354 -0.7872  0.3840 -1.0571
10417SOL     OW32492   4.041   6.987   4.139  0.5183  0.1113  0.2883
10417SOL    HW132493   4.110   7.044   4.173  0.3495  0.8480 -0.5965
10417SOL    HW232494   3.992   6.960   4.216  2.1754 -0.9478  1.0188
10418SOL     OW32495   0.166   0.262   1.343  0.2449  0.2689  0.8769
10418SOL    HW132496   0.176   0.259   1.247  0.4079 -0.2361  0.9078
10418SOL    HW232497   0.194   0.350   1.367 -0.8908  0.7855  0.3374
10419SOL     OW32498   7.415   5.906   1.351 -0.2138  0.0763  0.5067
10419SOL    HW132499   7.461   5.878   1.430  1.0298 -1.0349 -0.5920
10419SOL    HW232500   7.363   5.829   1.325  2.1970 -0.8343 -1.7895
10420SOL     OW32501   0.189   5.145   6.361 -0.1621  0.5796  0.1911
10420SOL    HW132502   0.096   5.122   6.365  0.0292 -0.5727 -1.2547
10420SOL    HW232503   0.203   5.202   6.436 -1.8825  0.1998  0.8325
10421SOL     OW32504   0.485   0.826   5.680  0.4897  0.1016 -0.8966
10421SOL    HW132505   0.443   0.748   5.717  0.1649 -0.8367 -3.1527
10421SOL    HW232506   0.573   0.796   5.658  0.7101  0.6741 -0.7826
10422SOL     OW32507   0.218   6.844   7.190  0.1498  0.0901 -0.3469
10422SOL    HW132508   0.183   6.806   7.270 -0.2131  2.2919  0.5619
10422SOL    HW232509   0.181   6.932   7.187  2.8409  1.2352 -1.1742
10423SOL     OW32510   4.887   2.514   4.553 -0.3360 -0.0843  0.7611
10423SOL    HW132511   4.858   2.507   4.462 -0.1339  1.0772  0.6080
10423SOL    HW232512   4.900   2.423   4.580 -1.3011 -0.4779 -0.0745
10424SOL     OW32513   2.443   2.249   1.544 -0.2612 -0.3507 -0.1570
10424SOL    HW132514   2.413   2.273   1.456  0.3633 -0.9728 -0.5510
10424SOL    HW232515   2.538   2.261   1.541 -0.2459 -0.3224  0.4486
10425SOL     OW32516   5.742   7.501   5.008 -0.3380  0.1856 -0.2423
10425SOL    HW132517   5.800   7.484   4.933  0.2839 -0.5060  0.3751
10425SOL    HW232518   5.729   7.414   5.048  0.5318  0.7461  1.3023
10426SOL     OW32519   7.652   5.751   1.155 -0.1060 -0.1704  0.4653
10426SOL    HW132520   7.735   5.766   1.201 -0.7381 -0.8853  1.8308
10426SOL    HW232521   7.619   5.839   1.137  1.1500  0.1296 -0.4753
10427SOL     OW32522   0.736   1.298   6.845 -0.5152  0.2935  0.3657
10427SOL    HW132523   0.697   1.243   6.913 -0.1743 -0.0742  0.2654
10427SOL    HW232524   0.675   1.371   6.835 -1.6306 -0.7270 -0.4106
10428SOL     OW32525   5.711   8.192   6.914  0.2879  0.4765  0.0453
10428SOL    HW132526   5.669   8.148   6.840  2.3437 -0.3158 -0.6714
10428SOL    HW232527   5.696   8.286   6.898  0.0730  0.2738 -0.9598
10429SOL     OW32528   5.288   1.772   4.714  0.5931 -0.0398 -0.6339
10429SOL    HW132529   5.270   1.819   4.633  1.3861 -0.6704 -1.1940
10429SOL    HW232530   5.232   1.694   4.709 -2.1944  1.7771  1.2074
10430SOL     OW32531   6.628   0.586   7.160 -0.1043 -0.2346 -0.5713
10430SOL    HW132532   6.533   0.589   7.171 -0.7263 -0.4933 -5.1096
10430SOL    HW232533   6.649   0.493   7.161 -0.0649 -0.2284 -0.8830
10431SOL     OW32534   0.662   7.848   6.036 -0.2145 -0.3156  0.0608
10431SOL    HW132535   0.650   7.943   6.045 -1.5317 -0.5131  0.5733
10431SOL    HW232536   0.646   7.813   6.123  0.9879 -0.9541  0.0337
10432SOL     OW32537   5.265   7.836   6.353 -0.0498  0.3773  0.5034
10432SOL    HW132538   5.292   7.777   6.283 -1.3300 -0.1396  0.4167
10432SOL    HW232539   5.326   7.909   6.349 -0.9180  1.0157 -2.0490
10433SOL     OW32540   3.581   5.476   4.319  0.5145  0.5732 -0.1341
10433SOL    HW132541   3.586   5.428   4.401  0.4692 -0.0873 -0.5149
10433SOL    HW232542   3.505   5.533   4.329 -0.2785 -0.4601 -0.2221
10434SOL     OW32543   3.298   1.588   3.510  0.0502  0.1169  0.0222
10434SOL    HW132544   3.387   1.620   3.491  0.0772 -0.2956 -0.5526
10434SOL    HW232545   3.276   1.532   3.435 -0.6147  0.0505  0.2644
10435SOL     OW32546   1.274   2.227   5.795 -0.8909  0.0093  0.1113
10435SOL    HW132547   1.287   2.210   5.702  0.9277  1.7735  0.0163
10435SOL    HW232548   1.265   2.139   5.834 -1.1673 -0.7559 -1.6214
10436SOL     OW32549   7.708   3.289   4.116  0.1173  0.1953 -0.1811
10436SOL    HW132550   7.676   3.228   4.182  1.3713 -1.3338 -0.9527
10436SOL    HW232551   7.642   3.287   4.047  0.3566 -0.6014 -0.3874
10437SOL     OW32552   5.356   1.572   6.340 -0.1904 -0.5503 -0.6533
10437SOL    HW132553   5.319   1.522   6.413  1.6324 -3.0686 -1.3858
10437SOL    HW232554   5.435   1.612   6.375 -1.5901  1.8333 -0.0989
10438SOL     OW32555   1.440   4.461   2.255 -0.5477 -0.5554 -0.2100
10438SOL    HW132556   1.472   4.485   2.168  0.0728  3.7575  1.0946
10438SOL    HW232557   1.509   4.405   2.291  0.5632  0.0559 -1.3602
10439SOL     OW32558   7.778   4.976   4.018  0.1046 -0.4036 -0.5910
10439SOL    HW132559   7.867   4.976   4.052  0.1737 -0.1736 -0.7719
10439SOL    HW232560   7.774   4.899   3.961 -0.2529 -1.2520  0.5618
10440SOL     OW32561   1.383   1.704   7.931 -0.0906 -0.0738  0.2724
10440SOL    HW132562   1.452   1.699   7.997 -0.6285  0.2461  0.8640
10440SOL    HW232563   1.307   1.664   7.973 -0.2556 -0.4538 -0.3897
10441SOL     OW32564   3.839   7.552   6.256  0.1625 -0.3345  0.1843
10441SOL    HW132565   3.785   7.481   6.222 -0.3346  0.1560 -0.0697
10441SOL    HW232566   3.879   7.592   6.178 -2.2702  1.8329 -0.0182
10442SOL     OW32567   5.964   7.548   7.530 -0.3403 -0.2426  0.1397
10442SOL    HW132568   5.891   7.487   7.519 -0.1893  0.1427 -3.4029
10442SOL    HW232569   5.928   7.633   7.504  0.3104  0.6902  2.1455
10443SOL     OW32570   6.168   7.465   6.010  0.1722  0.0707 -0.2414
10443SOL    HW132571   6.250   7.483   6.057  0.9547 -1.2106 -1.1002
10443SOL    HW232572   6.116   7.414   6.072  0.3272  0.2125  0.0105
10444SOL     OW32573   2.730   0.555   8.197  0.0702 -0.2229 -0.0201
10444SOL    HW132574   2.809   0.502   8.204 -0.8387 -1.8046 -1.4740
10444SOL    HW232575   2.671   0.518   8.263  0.5409  1.0142  1.1278
10445SOL     OW32576   7.527   2.475   2.128 -0.0038  0.0381  0.3135
10445SOL    HW132577   7.573   2.435   2.201  0.6890 -0.2697 -0.2839
10445SOL    HW232578   7.461   2.411   2.102 -0.1414  0.0795  0.5541
10446SOL     OW32579   3.551   5.160   6.342  0.1420  0.3607  0.1515
10446SOL    HW132580   3.541   5.152   6.437 -0.1399 -1.1496  0.0179
10446SOL    HW232581   3.612   5.090   6.318  0.2649  0.7707 -0.7690
10447SOL     OW32582   6.450   3.162   2.395  0.0984  0.0511 -0.1347
10447SOL    HW132583   6.358   3.184   2.408  0.0504 -0.6329  0.7406
10447SOL    HW232584   6.449   3.069   2.373  0.6150 -0.0695  0.3459
10448SOL     OW32585   4.541   6.063   0.516 -0.0463 -0.1439 -0.2877
10448SOL    HW132586   4.453   6.067   0.553  0.2273  0.1922  0.3368
10448SOL    HW232587   4.530   6.020   0.431 -0.5485 -1.7369  0.5669
10449SOL     OW32588   2.825   1.682   2.073  0.4593 -0.0166  0.3662
10449SOL    HW132589   2.843   1.619   2.004  1.2079 -1.5703  1.9233
10449SOL    HW232590   2.874   1.760   2.048 -1.0351  0.2245 -1.9359
10450SOL     OW32591   4.231   6.224   2.730 -0.2766 -1.0396  0.7117
10450SOL    HW132592   4.253   6.228   2.637  0.3552  0.9143  0.9334
10450SOL    HW232593   4.306   6.264   2.774 -0.1427 -2.7980  2.1537
10451SOL     OW32594   2.469   0.452   4.254  0.0094  0.2289 -0.1418
10451SOL    HW132595   2.553   0.474   4.213 -0.7533  2.2074 -0.6464
10451SOL    HW232596   2.492   0.383   4.317  1.9412  0.4369 -0.5681
10452SOL     OW32597   4.169   7.142   1.624 -0.0499 -0.0211  1.0108
10452SOL    HW132598   4.088   7.092   1.611  0.4944 -0.3649 -1.1462
10452SOL    HW232599   4.201   7.113   1.709 -1.2149 -1.2605  1.0440
10453SOL     OW32600   4.493   8.083   5.444  0.4176 -0.3557 -0.1009
10453SOL    HW132601   4.412   8.122   5.476  0.9265  0.2767  0.4407
10453SOL    HW232602   4.482   7.989   5.457 -0.2209 -0.2664 -0.0122
10454SOL     OW32603   3.946   0.069   4.413 -0.0760 -0.1883  0.3822
10454SOL    HW132604   3.976  -0.016   4.381  0.0490 -0.2788  0.7345
10454SOL    HW232605   3.999   0.085   4.492 -0.2627  0.1056  0.4490
10455SOL     OW32606   5.170   0.295   4.698  0.4813  0.0071  0.0692
10455SOL    HW132607   5.119   0.218   4.674  0.9752  0.1172 -1.3541
10455SOL    HW232608   5.117   0.370   4.669  1.5697  0.1144 -1.7035
10456SOL     OW32609   1.102   7.779   7.341  0.2348 -0.1154 -0.1845
10456SOL    HW132610   1.114   7.874   7.339 -0.7811  0.0256 -0.2890
10456SOL    HW232611   1.190   7.743   7.338  0.6334  0.8295 -0.0480
10457SOL     OW32612   2.371   2.674   3.958  0.6665 -0.7106 -0.3327
10457SOL    HW132613   2.370   2.732   3.882 -0.7494  1.5160  1.3209
10457SOL    HW232614   2.293   2.619   3.948 -0.4751  0.7498  0.3428
10458SOL     OW32615   4.921   1.192   1.388  0.3962 -0.0757 -0.2134
10458SOL    HW132616   4.855   1.213   1.455  1.0663 -3.3561  1.6016
10458SOL    HW232617   4.968   1.274   1.374 -1.8198  1.4682  0.9981
10459SOL     OW32618   8.142   4.692   4.296 -0.0055 -0.0157  0.1998
10459SOL    HW132619   8.084   4.633   4.249  0.1397  0.5067 -0.6413
10459SOL    HW232620   8.164   4.645   4.377  0.8520 -1.5022 -0.8848
10460SOL     OW32621   3.732   0.111   7.474  0.1990  0.1226 -0.2434
10460SOL    HW132622   3.693   0.197   7.491 -1.3141 -0.0294 -2.7491
10460SOL    HW232623   3.673   0.049   7.517  1.1681  0.2915  1.3700
10461SOL     OW32624   4.209   3.561   1.100  0.5329  0.0740  0.2046
10461SOL    HW132625   4.224   3.500   1.171 -0.3333  1.7440  1.8659
10461SOL    HW232626   4.134   3.525   1.052 -0.8455  0.5105  1.9814
10462SOL     OW32627   8.022   7.809   3.627  0.7307  0.1158  0.2114
10462SOL    HW132628   7.955   7.828   3.562  0.8754 -1.6283 -0.4820
10462SOL    HW232629   8.010   7.875   3.695 -0.7816  0.6648 -0.5807
10463SOL     OW32630   5.434   6.791   4.999 -0.2754  0.0395 -0.1166
10463SOL    HW132631   5.390   6.831   5.075 -0.8217  1.1095 -0.9752
10463SOL    HW232632   5.380   6.818   4.924 -0.4033 -1.9889 -0.7726
10464SOL     OW32633   1.028   5.734   1.824  0.2338 -0.3756  0.2923
10464SOL    HW132634   1.058   5.644   1.832  0.4492 -0.2919  0.4460
10464SOL    HW232635   0.965   5.732   1.752  0.1388 -0.6718  0.3845
10465SOL     OW32636   7.312   7.784   6.397  0.9830 -0.1300  0.4106
10465SOL    HW132637   7.263   7.704   6.377  0.1541  0.1731  1.2393
10465SOL    HW232638   7.287   7.845   6.328 -0.2294  0.2058  1.1430
10466SOL     OW32639   2.013   2.708   1.427  0.2342  0.0174 -0.0874
10466SOL    HW132640   2.028   2.751   1.343 -1.3557 -1.0619 -0.9442
10466SOL    HW232641   2.028   2.615   1.410 -1.0371 -0.3266  0.5488
10467SOL     OW32642   3.897   6.607   3.308  0.2393 -0.1545 -0.5275
10467SOL    HW132643   3.875   6.560   3.228  1.6222 -0.9613 -0.4531
10467SOL    HW232644   3.879   6.699   3.289 -1.0960 -0.5418 -1.1712
10468SOL     OW32645   7.194   1.737   6.234  0.2624  0.0385 -0.0182
10468SOL    HW132646   7.120   1.741   6.296 -0.0033  0.3847 -0.3567
10468SOL    HW232647   7.226   1.647   6.242  1.8626  0.7652  2.5385
10469SOL     OW32648   2.614   0.383   0.799  0.0199  0.2232  0.0790
10469SOL    HW132649   2.592   0.476   0.794  3.4834  1.0401 -1.0576
10469SOL    HW232650   2.575   0.354   0.881  1.9289  3.5617  2.2666
10470SOL     OW32651   0.619   6.961   5.267  0.4305  0.3595 -0.1379
10470SOL    HW132652   0.525   6.968   5.284  0.1832 -3.8541  0.9021
10470SOL    HW232653   0.624   6.928   5.177  0.8566 -0.5084  0.2010
10471SOL     OW32654   3.011   6.904   5.221 -0.1707 -0.3938 -0.6732
10471SOL    HW132655   2.978   6.989   5.251 -1.6146 -1.1756  0.0222
10471SOL    HW232656   3.051   6.922   5.136  0.7313  1.2188  0.0727
10472SOL     OW32657   3.676   6.322   2.559  0.4592 -0.4221 -0.0740
10472SOL    HW132658   3.736   6.394   2.579 -0.5491  0.7522 -1.1652
10472SOL    HW232659   3.592   6.365   2.544 -0.5344 -1.9945  0.9170
10473SOL     OW32660   0.505   2.136   4.665 -0.3418  0.1092 -0.0527
10473SOL    HW132661   0.542   2.156   4.579  1.8588  1.0714  1.0836
10473SOL    HW232662   0.549   2.055   4.691 -0.4523  0.2218  0.4832
10474SOL     OW32663   5.145   1.866   2.095  0.0795  0.1537  0.1888
10474SOL    HW132664   5.156   1.956   2.064  0.3274  0.1458  0.2528
10474SOL    HW232665   5.232   1.841   2.128  0.2476 -0.4306 -0.6836
10475SOL     OW32666   1.448   8.247   6.514 -0.0707  0.0770 -0.0518
10475SOL    HW132667   1.482   8.335   6.532  0.6403 -0.3911  0.9021
10475SOL    HW232668   1.509   8.210   6.450  0.1094 -0.0445  0.1919
10476SOL     OW32669   4.078   0.084   5.360 -0.0479  0.3629  0.1108
10476SOL    HW132670   3.989   0.111   5.383 -0.0906 -0.3991  0.8725
10476SOL    HW232671   4.119   0.163   5.325 -0.6187  1.0368  0.9569
10477SOL     OW32672   0.839   0.316   3.880 -0.0211  0.2586  0.3205
10477SOL    HW132673   0.755   0.288   3.918 -1.0356  1.5968 -0.8679
10477SOL    HW232674   0.872   0.382   3.942  1.1868 -1.7333  1.8539
10478SOL     OW32675   2.112   3.333   5.848 -0.1097  0.1196 -0.5708
10478SOL    HW132676   2.166   3.380   5.912  0.9610 -0.1592 -1.2636
10478SOL    HW232677   2.121   3.383   5.768 -1.5074  0.5011 -0.4931
10479SOL     OW32678   0.853   1.215   7.949  0.4172  0.6779 -0.5476
10479SOL    HW132679   0.870   1.304   7.919  0.3609  0.7558 -0.3428
10479SOL    HW232680   0.810   1.225   8.034 -1.4306  0.5246 -1.4253
10480SOL     OW32681   7.977   4.244   0.535 -0.7444 -0.3287 -0.1537
10480SOL    HW132682   7.967   4.153   0.563 -1.1484  0.0042  0.8108
10480SOL    HW232683   8.072   4.258   0.533 -0.6938 -0.6163  0.2079
10481SOL     OW32684   5.522   4.885   8.013  0.6004 -0.2438 -0.5058
10481SOL    HW132685   5.520   4.793   7.988 -2.4649 -0.0800 -1.0486
10481SOL    HW232686   5.539   4.932   7.931  0.3124 -0.2315 -0.5589
10482SOL     OW32687   5.439   3.057   0.629 -0.5293  0.0826 -0.0533
10482SOL    HW132688   5.351   3.039   0.663 -0.1408 -0.8469  0.4981
10482SOL    HW232689   5.452   3.151   0.643 -1.2121  0.1137  0.3953
10483SOL     OW32690   4.607   8.093   6.515  0.4035 -0.0949  0.1618
10483SOL    HW132691   4.578   8.072   6.426  2.6611 -0.7352 -0.4534
10483SOL    HW232692   4.619   8.188   6.513 -1.2648  0.1291  0.3222
10484SOL     OW32693   3.671   3.962   0.819  0.4049 -0.1770 -0.0703
10484SOL    HW132694   3.758   3.956   0.777  0.8819  2.0103  0.5361
10484SOL    HW232695   3.688   3.945   0.911 -0.1147 -1.6029 -0.2346
10485SOL     OW32696   5.431   2.530   5.694  0.1730  0.1015 -0.4607
10485SOL    HW132697   5.463   2.474   5.623 -0.1899  0.1291 -0.6498
10485SOL    HW232698   5.353   2.484   5.727  1.2172 -0.6975  0.9397
10486SOL     OW32699   3.947   6.133   5.619  0.4369  0.4097  0.0076
10486SOL    HW132700   3.881   6.203   5.616  0.0924  0.3988  4.6846
10486SOL    HW232701   3.897   6.055   5.641  1.7271  0.0323  1.6505
10487SOL     OW32702   4.401   1.137   7.172  0.3617 -0.7142 -0.1201
10487SOL    HW132703   4.361   1.126   7.258  0.1088  0.1745 -0.1212
10487SOL    HW232704   4.341   1.094   7.111 -1.4582  2.0452 -0.3282
10488SOL     OW32705   5.238   5.316   1.523 -0.7889 -0.1827 -0.4640
10488SOL    HW132706   5.255   5.402   1.484  0.0375 -0.8818 -1.6755
10488SOL    HW232707   5.144   5.316   1.540 -1.4345 -0.2990 -3.6568
10489SOL     OW32708   7.143   1.092   7.789 -0.2323  0.4611 -0.1575
10489SOL    HW132709   7.173   1.006   7.760  1.0665  0.9271 -0.2384
10489SOL    HW232710   7.098   1.129   7.713  1.3486  0.8353 -0.9352
10490SOL     OW32711   2.831   0.411   5.489  0.3120 -0.0876 -0.4170
10490SOL    HW132712   2.876   0.451   5.564 -0.2084 -0.2317 -0.0188
10490SOL    HW232713   2.748   0.379   5.526 -0.1255  0.2032 -1.1389
10491SOL     OW32714   3.769   8.111   7.245  0.5466 -0.2893  0.1007
10491SOL    HW132715   3.823   8.109   7.324 -0.0926 -1.6017  0.5210
10491SOL    HW232716   3.726   8.197   7.248  1.6246  0.2492  0.4177
10492SOL     OW32717   7.329   6.754   4.128  0.2271  0.1650 -0.2775
10492SOL    HW132718   7.243   6.730   4.094 -0.2932 -0.0346  1.1565
10492SOL    HW232719   7.389   6.693   4.086 -0.2847  0.5022 -1.5246
10493SOL     OW32720   7.120   5.514   0.762  0.0930  0.9272  0.6374
10493SOL    HW132721   7.192   5.450   0.762 -0.3458  0.4246  0.8913
10493SOL    HW232722   7.133   5.565   0.682  0.5900  0.6779  0.5556
10494SOL     OW32723   1.084   0.105   5.449  0.2552 -0.0441 -0.0318
10494SOL    HW132724   1.101   0.187   5.403  1.3996 -0.0944  0.2871
10494SOL    HW232725   1.047   0.131   5.533 -0.9479  0.0794 -0.5876
10495SOL     OW32726   1.958   4.912   7.930  0.0104 -0.0652  0.1130
10495SOL    HW132727   1.939   4.911   7.836  0.3363 -0.5500  0.0524
10495SOL    HW232728   1.888   4.966   7.968 -0.4328 -0.3213 -0.3360
10496SOL     OW32729   0.100   3.328   6.816  0.1833 -0.7402 -0.2488
10496SOL    HW132730   0.148   3.246   6.800  0.3236 -0.6692 -0.1893
10496SOL    HW232731   0.166   3.396   6.810  0.3031 -0.7341  0.9502
10497SOL     OW32732   1.499   8.263   0.046  0.2101  0.4388  0.4854
10497SOL    HW132733   1.513   8.297  -0.042  0.6468  0.6278  0.6273
10497SOL    HW232734   1.563   8.309   0.100 -0.7538  1.1016  1.0920
10498SOL     OW32735   6.553   4.046   0.545  0.2496  0.2821  0.4304
10498SOL    HW132736   6.649   4.051   0.552  0.2977  1.5021 -0.7704
10498SOL    HW232737   6.522   4.062   0.634  1.1544  0.7319  0.6760
10499SOL     OW32738   5.891   4.280   6.402  0.1797 -0.2363 -0.6710
10499SOL    HW132739   5.894   4.223   6.479 -0.3610  1.0045  0.2899
10499SOL    HW232740   5.949   4.353   6.425 -0.6412  0.5528 -1.0877
10500SOL     OW32741   4.053   2.902   6.455 -0.4404  0.2848 -0.0464
10500SOL    HW132742   4.111   2.895   6.531  0.5789  1.6921 -0.6780
10500SOL    HW232743   4.059   2.817   6.412  0.1781  0.0087  0.5800
10501SOL     OW32744   3.382   8.233   0.158  0.5226  0.7032 -0.1343
10501SOL    HW132745   3.416   8.164   0.102  1.3347  1.4914 -0.6279
10501SOL    HW232746   3.326   8.188   0.221  0.8450 -0.3689 -0.6109
10502SOL     OW32747   1.483   5.113   2.427  0.6206  0.2515  0.0035
10502SOL    HW132748   1.408   5.103   2.486 -0.3100 -0.3528 -1.2572
10502SOL    HW232749   1.488   5.208   2.411  0.4295  0.3457  0.4837
10503SOL     OW32750   0.888   5.548   4.272  0.3162 -0.4538 -0.4628
10503SOL    HW132751   0.880   5.556   4.177 -0.7280 -1.5945 -0.4918
10503SOL    HW232752   0.826   5.479   4.295  1.8088 -1.3804  0.8463
10504SOL     OW32753   5.505   6.932   7.275  0.2992 -0.3210  0.5061
10504SOL    HW132754   5.536   6.885   7.352 -0.1065 -0.9753  0.2763
10504SOL    HW232755   5.410   6.941   7.290  0.1937 -0.6007  0.0055
10505SOL     OW32756   6.576   2.358   4.190 -0.5021  0.3079 -0.0280
10505SOL    HW132757   6.647   2.358   4.125  0.6614 -0.0666  1.2106
10505SOL    HW232758   6.601   2.289   4.252 -1.7632  0.4466  0.6466
10506SOL     OW32759   7.462   1.141   6.061 -0.5099 -0.4691 -0.0271
10506SOL    HW132760   7.547   1.186   6.066 -1.1467  0.9257 -1.3016
10506SOL    HW232761   7.485   1.049   6.047  0.8818  0.3163 -3.6894
10507SOL     OW32762   2.750   7.893   3.785 -0.0102 -0.8551  0.3750
10507SOL    HW132763   2.729   7.815   3.734  0.4501 -1.2558  0.7942
10507SOL    HW232764   2.665   7.931   3.808 -0.2190 -0.3165 -1.2312
10508SOL     OW32765   3.085   1.723   7.167  0.2675  0.4089 -0.0684
10508SOL    HW132766   3.174   1.740   7.136  0.7434  0.2735  1.1840
10508SOL    HW232767   3.029   1.749   7.094  1.2472  2.0779 -0.2627
10509SOL     OW32768   4.750   6.133   2.782 -0.1654 -0.0165  0.3995
10509SOL    HW132769   4.754   6.039   2.768 -2.0880  0.2050 -1.8333
10509SOL    HW232770   4.842   6.160   2.791  0.3851 -2.0648  1.1254
10510SOL     OW32771   3.435   3.702   7.541  0.0097  0.4356 -0.4573
10510SOL    HW132772   3.475   3.633   7.593  0.8118  0.9000 -0.4431
10510SOL    HW232773   3.442   3.672   7.451 -1.7927 -0.5782 -0.2697
10511SOL     OW32774   7.902   6.268   3.079  0.4892  0.5152  0.5175
10511SOL    HW132775   7.962   6.319   3.025 -0.6462  0.9664 -0.3433
10511SOL    HW232776   7.915   6.301   3.168  1.0386  1.0488  0.2429
10512SOL     OW32777   4.168   2.706   1.319  0.2754 -0.1134  0.1950
10512SOL    HW132778   4.134   2.641   1.257  1.2371 -0.1860 -0.2641
10512SOL    HW232779   4.156   2.789   1.275  1.5553 -0.2241 -0.3520
10513SOL     OW32780   1.098   1.558   0.573 -0.0487  0.2064  0.5855
10513SOL    HW132781   1.127   1.624   0.636 -1.4048  1.8913 -0.5017
10513SOL    HW232782   1.008   1.584   0.551  0.1751 -0.7090 -1.5229
10514SOL     OW32783   1.618   5.693   3.804  0.2024  0.4287 -0.0942
10514SOL    HW132784   1.629   5.686   3.898  1.1139  0.9788 -0.1523
10514SOL    HW232785   1.530   5.730   3.793  0.4078  1.1232  0.5686
10515SOL     OW32786   2.822   6.452   1.614  0.0992  0.2248 -0.5942
10515SOL    HW132787   2.770   6.398   1.555 -1.8957  2.1992 -0.6993
10515SOL    HW232788   2.897   6.480   1.561  0.2660 -1.0407 -1.0439
10516SOL     OW32789   4.971   8.264   5.836 -0.2196 -0.6509  0.1477
10516SOL    HW132790   5.015   8.346   5.860  1.9678 -1.5324 -0.7625
10516SOL    HW232791   4.885   8.270   5.877  0.3939  1.5409  1.1611
10517SOL     OW32792   6.837   6.230   7.268 -0.4110  0.1337  0.2606
10517SOL    HW132793   6.911   6.177   7.240 -0.7006 -0.5829  0.8482
10517SOL    HW232794   6.808   6.275   7.188 -0.0025 -0.3889 -0.1808
10518SOL     OW32795   1.632   0.645   7.409  0.1550 -0.1895 -0.7057
10518SOL    HW132796   1.645   0.573   7.347  0.3961 -0.5667 -0.2255
10518SOL    HW232797   1.562   0.614   7.467  1.0676 -0.5307  0.2288
10519SOL     OW32798   4.708   6.182   7.246 -0.4041 -0.0060 -0.1846
10519SOL    HW132799   4.697   6.152   7.336  0.7882  1.9921  0.6495
10519SOL    HW232800   4.690   6.276   7.249 -0.3987  0.0756 -2.0402
10520SOL     OW32801   0.264   5.378   8.181 -0.7598 -0.5378  0.5273
10520SOL    HW132802   0.358   5.367   8.176 -0.6518  0.3559  0.3805
10520SOL    HW232803   0.233   5.366   8.091 -0.5380  1.1606  0.2056
10521SOL     OW32804   6.427   0.225   4.070  0.1553  0.1143  0.8169
10521SOL    HW132805   6.379   0.260   3.995  1.4044 -1.0748 -0.5655
10521SOL    HW232806   6.483   0.297   4.099 -1.6530  1.1629  1.7772
10522SOL     OW32807   4.682   0.048   1.705 -0.9634  0.2193 -0.3231
10522SOL    HW132808   4.761   0.095   1.731 -1.6785  1.8142 -0.9360
10522SOL    HW232809   4.629   0.043   1.784 -1.0768  0.8811 -0.3487
10523SOL     OW32810   3.309   6.949   1.734  0.1570  0.0787 -0.1043
10523SOL    HW132811   3.216   6.940   1.711 -0.6283  1.8574  2.2307
10523SOL    HW232812   3.310   7.010   1.808  3.1883 -0.0254 -0.0010
10524SOL     OW32813   4.106   6.954   0.176  0.4234 -0.4634  0.2342
10524SOL    HW132814   4.126   6.990   0.089 -0.5248 -3.6887 -1.4360
10524SOL    HW232815   4.010   6.956   0.181  0.4874 -0.0111  1.3543
10525SOL     OW32816   5.420   0.845   3.833  0.3182 -0.0795 -0.3246
10525SOL    HW132817   5.488   0.888   3.883  0.6733 -1.3524  0.2952
10525SOL    HW232818   5.343   0.901   3.844  1.7081  2.3706 -2.5584
10526SOL     OW32819   1.797   4.485   4.470  0.5509 -0.2746  0.0675
10526SOL    HW132820   1.839   4.570   4.483 -1.1089  0.2609  2.0767
10526SOL    HW232821   1.733   4.501   4.401  0.8315 -0.1021 -0.1557
10527SOL     OW32822   3.817   2.968   0.016  0.4682  0.2930  0.3155
10527SOL    HW132823   3.876   3.016   0.074 -1.1380  0.1954  2.0672
10527SOL    HW232824   3.758   3.035  -0.018  0.4839  0.1094 -0.0760
10528SOL     OW32825   1.207   5.334   7.099 -0.4006  0.2544  0.3262
10528SOL    HW132826   1.228   5.242   7.082  0.1011  0.4770 -0.2577
10528SOL    HW232827   1.152   5.332   7.178 -0.8997 -0.5968 -0.0359
10529SOL     OW32828   1.784   2.943   6.486 -0.3878  0.3441 -0.2828
10529SOL    HW132829   1.819   2.934   6.397 -0.3455  0.2694 -0.2594
10529SOL    HW232830   1.738   2.860   6.501 -0.9860  0.6418 -0.4963
10530SOL     OW32831   4.538   5.318   1.871  0.4914  0.1096  0.0115
10530SOL    HW132832   4.485   5.305   1.793  0.8679  2.9126 -0.7909
10530SOL    HW232833   4.528   5.237   1.921 -2.4930 -0.4153 -1.2997
10531SOL     OW32834   6.265   7.150   7.283 -0.5692 -0.5702 -0.2293
10531SOL    HW132835   6.234   7.185   7.199 -1.3180  1.1433  0.7411
10531SOL    HW232836   6.346   7.197   7.300 -0.4421 -0.8883  0.0423
10532SOL     OW32837   5.010   6.583   0.766  0.0480  0.4731  0.2619
10532SOL    HW132838   4.927   6.613   0.804  1.1698  3.1556  0.7070
10532SOL    HW232839   5.013   6.490   0.787 -1.1497  1.0801  3.4994
10533SOL     OW32840   8.130   2.504   5.812  0.0807 -0.0637  0.5722
10533SOL    HW132841   8.196   2.536   5.874  0.8238 -0.0248 -0.2228
10533SOL    HW232842   8.115   2.579   5.754  0.8142 -0.7118 -0.4671
10534SOL     OW32843   1.814   1.142   3.506 -0.1281  0.2510 -0.1621
10534SOL    HW132844   1.755   1.129   3.431 -1.1215  1.2840  0.4356
10534SOL    HW232845   1.757   1.175   3.575  0.9416  0.0676  0.8020
10535SOL     OW32846   2.252   2.642   2.281 -0.8302  0.4240 -0.4327
10535SOL    HW132847   2.243   2.678   2.193  1.0655 -0.5312 -1.0437
10535SOL    HW232848   2.241   2.548   2.270  1.0611  0.1263  0.0756
10536SOL     OW32849   1.322   1.602   6.054 -0.1628  0.7863 -0.1300
10536SOL    HW132850   1.417   1.616   6.062 -0.2576  1.4070 -0.0751
10536SOL    HW232851   1.311   1.508   6.065  0.3418  0.8336  0.8518
10537SOL     OW32852   1.747   2.263   4.959  0.3624  0.0404 -0.1758
10537SOL    HW132853   1.834   2.271   4.997  1.1008  0.2986 -1.8996
10537SOL    HW232854   1.757   2.289   4.868 -1.2590 -1.1651 -0.7320
10538SOL     OW32855   1.162   6.647   7.810  0.0648  0.1315  0.2451
10538SOL    HW132856   1.245   6.690   7.790 -0.3539  2.0944  2.5094
10538SOL    HW232857   1.096   6.715   7.796 -1.0268 -0.9778 -0.0983
10539SOL     OW32858   6.325   1.919   6.769  0.3588  0.3541 -0.3704
10539SOL    HW132859   6.313   1.965   6.687  0.7141 -0.9642 -1.1833
10539SOL    HW232860   6.346   1.829   6.743 -1.1294 -0.4628  1.1810
10540SOL     OW32861   0.704   2.337   1.595  0.1843  0.6804 -0.3055
10540SOL    HW132862   0.797   2.351   1.580  0.4073 -1.1834 -0.8834
10540SOL    HW232863   0.665   2.340   1.508  0.2104 -1.6816 -0.4475
10541SOL     OW32864   2.136   8.017   7.868 -0.1047  0.1511  0.1112
10541SOL    HW132865   2.181   7.934   7.887  0.4341  0.1139 -1.2425
10541SOL    HW232866   2.157   8.034   7.776 -1.3112  1.1161  0.0135
10542SOL     OW32867   2.585   2.810   4.082 -0.0280 -0.2423  0.2718
10542SOL    HW132868   2.643   2.799   4.007  0.6643 -0.7606  0.8823
10542SOL    HW232869   2.500   2.780   4.051  0.2810 -0.5453 -0.2761
10543SOL     OW32870   4.024   2.659   2.580 -0.5599 -0.1249 -0.1165
10543SOL    HW132871   4.061   2.738   2.540  0.2745 -1.0619 -1.2236
10543SOL    HW232872   3.982   2.612   2.508 -0.4639 -1.0198  0.3966
10544SOL     OW32873   3.051   4.180   8.082 -0.3119  0.0049 -0.4871
10544SOL    HW132874   3.065   4.127   8.003 -0.3426  0.1825 -0.6125
10544SOL    HW232875   3.075   4.269   8.055  0.0642 -0.0045 -0.1803
10545SOL     OW32876   5.553   8.057   5.671  0.4109 -0.2860 -0.2305
10545SOL    HW132877   5.550   8.117   5.597  0.6122 -1.0766 -0.8977
10545SOL    HW232878   5.626   8.087   5.725  0.4538  0.1116 -0.5157
10546SOL     OW32879   7.556   1.413   1.119 -0.3862  0.2061  0.0300
10546SOL    HW132880   7.493   1.465   1.169  0.7993  0.8918  0.8510
10546SOL    HW232881   7.641   1.439   1.155  0.2389 -2.1679  0.3008
10547SOL     OW32882   7.974   3.024   4.510  0.1945  0.0381  0.0664
10547SOL    HW132883   7.917   3.004   4.585  0.3086  0.9832  0.4125
10547SOL    HW232884   8.020   2.942   4.493  1.2485  0.1859  1.9778
10548SOL     OW32885   3.216   7.635   1.342 -0.4260  0.1601  0.0557
10548SOL    HW132886   3.125   7.664   1.344 -0.4341  0.3185 -1.7586
10548SOL    HW232887   3.212   7.541   1.355 -0.7951  0.2574  0.6609
10549SOL     OW32888   1.376   5.518   0.490  0.2638 -0.3290 -0.1077
10549SOL    HW132889   1.345   5.485   0.574 -0.2542  0.5372  0.0573
10549SOL    HW232890   1.309   5.492   0.427  0.5111 -0.7347 -0.2014
10550SOL     OW32891   7.437   6.959   4.582 -0.3719 -0.0628  0.2940
10550SOL    HW132892   7.417   6.960   4.676 -2.6802 -0.9499 -0.1538
10550SOL    HW232893   7.408   6.873   4.552  0.5200  0.1396 -1.2271
10551SOL     OW32894   5.104   0.041   4.627  0.3624 -0.5831  0.5702
10551SOL    HW132895   5.154  -0.010   4.691 -0.7471 -1.1791  0.9774
10551SOL    HW232896   5.020   0.057   4.669 -0.2903 -0.7697 -0.6429
10552SOL     OW32897   2.675   3.576   1.554  0.0134 -0.0822 -0.2777
10552SOL    HW132898   2.738   3.648   1.560 -0.9988  0.7489  0.4853
10552SOL    HW232899   2.634   3.588   1.469 -0.0791  0.1813 -0.1971
10553SOL     OW32900   5.320   7.366   6.711  0.5190 -0.4647 -0.9224
10553SOL    HW132901   5.259   7.364   6.784  1.8739 -0.6420  0.2171
10553SOL    HW232902   5.300   7.448   6.665  0.9173  0.5712  0.7368
10554SOL     OW32903   3.889   6.252   4.661  0.0047 -0.9036  0.2752
10554SOL    HW132904   3.807   6.225   4.621 -1.1458  0.4644  1.6879
10554SOL    HW232905   3.886   6.217   4.750  0.5880 -0.1533  0.6012
10555SOL     OW32906   5.078   5.283   2.982 -0.3254 -0.7795 -0.1095
10555SOL    HW132907   5.057   5.332   3.061  2.2682  1.2930 -0.6000
10555SOL    HW232908   5.050   5.340   2.911  2.6240  0.0362 -0.6940
10556SOL     OW32909   5.718   3.223   1.372  0.1572 -0.2454 -0.3531
10556SOL    HW132910   5.624   3.208   1.366  0.1426 -0.4543  0.3574
10556SOL    HW232911   5.757   3.137   1.354  0.1410 -0.6489  1.3934
10557SOL     OW32912   2.962   5.599   5.607  0.3672 -0.2257 -0.1688
10557SOL    HW132913   2.927   5.552   5.531 -1.6622  0.5136  0.2630
10557SOL    HW232914   2.889   5.601   5.669  0.3738  3.4698 -0.1639
10558SOL     OW32915   7.214   0.249   7.730 -0.2172  0.4156 -0.1755
10558SOL    HW132916   7.273   0.321   7.707 -1.4651  1.9725  1.3303
10558SOL    HW232917   7.243   0.176   7.675  2.3995  1.4480 -0.2742
10559SOL     OW32918   5.054   1.811   6.916  0.5690 -0.6511 -0.3462
10559SOL    HW132919   5.111   1.824   6.992  0.4343 -0.7992 -0.2162
10559SOL    HW232920   5.035   1.899   6.885 -0.0060 -0.5467  0.2743
10560SOL     OW32921   5.252   0.892   1.585 -0.4789 -0.2772  0.2499
10560SOL    HW132922   5.220   0.874   1.674 -0.2410  0.4135  0.4765
10560SOL    HW232923   5.344   0.913   1.596 -0.7365  1.0351 -0.0062
10561SOL     OW32924   0.297   0.940   2.701  0.2899 -0.2187 -0.1555
10561SOL    HW132925   0.256   0.867   2.748 -0.2808  0.5351  0.5359
10561SOL    HW232926   0.233   0.963   2.633  0.2381 -0.0385 -0.0474
10562SOL     OW32927   4.030   4.158   2.549 -0.1190  0.1175  0.5073
10562SOL    HW132928   4.085   4.081   2.533  0.1384  0.5891 -0.9659
10562SOL    HW232929   4.007   4.152   2.641 -0.1276 -1.7439  0.3999
10563SOL     OW32930   3.221   3.973   5.625 -0.1257 -0.6473  0.2619
10563SOL    HW132931   3.249   3.948   5.713  2.4328 -0.0760 -0.3328
10563SOL    HW232932   3.273   3.917   5.567 -0.8706 -0.1408 -0.9093
10564SOL     OW32933   4.878   0.895   2.067 -0.6310  0.7328  0.4290
10564SOL    HW132934   4.899   0.988   2.056 -3.4058  1.6073  1.8178
10564SOL    HW232935   4.960   0.854   2.091  0.2546  3.2317  1.8563
10565SOL     OW32936   1.238   0.774   6.715  0.0424 -0.2682 -0.0718
10565SOL    HW132937   1.285   0.705   6.761 -0.2532 -0.2406  0.2840
10565SOL    HW232938   1.147   0.763   6.743 -0.1284 -0.2116 -0.6089
10566SOL     OW32939   3.429   1.665   6.073  0.2966 -0.6810  0.0651
10566SOL    HW132940   3.457   1.618   5.994 -1.9504  0.7977 -1.6723
10566SOL    HW232941   3.349   1.620   6.101 -0.2848  0.3281  0.0525
10567SOL     OW32942   2.415   0.297   4.909  0.7308 -0.8335 -0.0577
10567SOL    HW132943   2.343   0.237   4.889  1.1593 -1.9301  1.6263
10567SOL    HW232944   2.424   0.293   5.004  2.3898  0.0173 -0.1618
10568SOL     OW32945   4.622   2.497   8.113 -0.1919 -0.0234 -0.4368
10568SOL    HW132946   4.613   2.517   8.206 -2.0424  0.5019 -0.7139
10568SOL    HW232947   4.664   2.411   8.110 -1.3712 -0.6490  0.8930
10569SOL     OW32948   6.249   3.419   6.643  0.1213  0.2763  0.1973
10569SOL    HW132949   6.343   3.425   6.660  0.3183  0.3288 -0.9049
10569SOL    HW232950   6.211   3.389   6.726  0.9965  1.1967  0.9367
10570SOL     OW32951   2.429   4.572   4.372 -0.5910 -0.5329 -0.0297
10570SOL    HW132952   2.408   4.612   4.288 -1.9798 -1.3201 -0.0788
10570SOL    HW232953   2.467   4.487   4.350  1.0617  0.1618  0.1015
10571SOL     OW32954   7.986   2.133   2.718 -0.0297 -0.2693 -0.2659
10571SOL    HW132955   7.973   2.055   2.773 -1.3334 -0.1622 -0.4129
10571SOL    HW232956   7.959   2.105   2.630  0.8541 -0.0687 -0.6029
10572SOL     OW32957   6.274   6.330   1.253  0.6650  0.0008 -0.3484
10572SOL    HW132958   6.283   6.254   1.311  0.1190  1.0778  1.1553
10572SOL    HW232959   6.182   6.356   1.261  0.2820 -0.5146 -2.5793
10573SOL     OW32960   4.363   7.548   5.871  0.3645  0.1912  0.0170
10573SOL    HW132961   4.364   7.600   5.790 -0.3759  0.2868  0.0634
10573SOL    HW232962   4.286   7.491   5.861  0.5359 -0.1159  0.4578
10574SOL     OW32963   1.632   6.103   6.908  0.4299 -0.0364  0.0906
10574SOL    HW132964   1.718   6.145   6.921  0.9934 -0.6962 -1.4388
10574SOL    HW232965   1.617   6.055   6.990  1.3993  0.2807  0.4709
10575SOL     OW32966   1.909   1.859   6.329 -0.3527  0.4034 -1.0820
10575SOL    HW132967   1.895   1.822   6.416  0.8424  0.7743 -0.7145
10575SOL    HW232968   1.849   1.934   6.324  0.0351  0.7697 -0.3247
10576SOL     OW32969   5.250   3.935   7.196 -0.0471  0.3282  0.2102
10576SOL    HW132970   5.291   3.870   7.138 -0.1316 -0.0624  0.5863
10576SOL    HW232971   5.180   3.973   7.143  0.6790  0.8635 -0.3762
10577SOL     OW32972   7.987   4.494   6.888 -0.1723  0.4758  0.4179
10577SOL    HW132973   8.061   4.543   6.922 -0.3187  1.1357 -0.2019
10577SOL    HW232974   7.951   4.549   6.818  0.3300 -0.9859 -1.0403
10578SOL     OW32975   6.295   6.923   0.871 -0.0900  0.0940  0.3909
10578SOL    HW132976   6.380   6.885   0.849  0.0102  0.6571 -0.2286
10578SOL    HW232977   6.231   6.861   0.835  0.0710  0.2277 -0.1380
10579SOL     OW32978   5.338   8.282   4.786  0.2386  0.0903  0.3025
10579SOL    HW132979   5.420   8.272   4.833  1.6789  0.5179 -2.0301
10579SOL    HW232980   5.272   8.293   4.854  2.0201 -0.8841  2.2179
10580SOL     OW32981   3.539   7.975   5.710  0.0322 -0.0964 -0.3332
10580SOL    HW132982   3.571   8.056   5.750  1.5894 -1.0381  0.3848
10580SOL    HW232983   3.610   7.947   5.652 -0.4724 -0.9559 -0.5516
10581SOL     OW32984   4.742   0.146   2.115 -0.5690  0.0139  0.0176
10581SOL    HW132985   4.654   0.121   2.086 -0.1410 -1.4655 -0.0333
10581SOL    HW232986   4.750   0.107   2.202  0.4195 -0.7416 -0.4065
10582SOL     OW32987   5.975   5.730   7.079  0.2649 -0.0422  0.6973
10582SOL    HW132988   6.003   5.639   7.072 -1.5979 -0.6389  0.7239
10582SOL    HW232989   5.976   5.762   6.989  1.9395  0.2368  0.8071
10583SOL     OW32990   3.203   7.463   7.114 -0.0959  0.2618 -0.1831
10583SOL    HW132991   3.195   7.433   7.205  0.1733 -1.0567 -0.5818
10583SOL    HW232992   3.134   7.529   7.104 -0.2818  0.2427  0.9021
10584SOL     OW32993   1.468   4.510   5.690  0.1528  0.0965 -0.0111
10584SOL    HW132994   1.457   4.473   5.602  0.1489  0.0539  0.0077
10584SOL    HW232995   1.472   4.605   5.675 -2.9555  0.3283  0.2290
10585SOL     OW32996   6.496   5.666   5.534 -0.2083 -0.5234 -0.0917
10585SOL    HW132997   6.574   5.658   5.589  0.8647  1.7550 -1.2098
10585SOL    HW232998   6.451   5.743   5.569 -2.1642 -2.0038  0.7523
10586SOL     OW32999   2.191   2.687   6.880  0.1734  0.1089  0.3232
10586SOL    HW133000   2.282   2.705   6.854 -0.3030  1.3265 -0.5129
10586SOL    HW233001   2.151   2.651   6.801  0.0185 -0.7655  0.8001
10587SOL     OW33002   2.842   3.972   0.994  0.8624  0.2390 -0.1539
10587SOL    HW133003   2.924   3.933   1.025  0.8911  1.0283  0.7912
10587SOL    HW233004   2.779   3.953   1.064 -0.0215 -1.2055 -1.3054
10588SOL     OW33005   2.401   2.504   7.903  0.9170 -0.1507  0.6328
10588SOL    HW133006   2.445   2.420   7.887  0.8738  0.1644 -1.2549
10588SOL    HW233007   2.456   2.568   7.858 -1.6104  0.1973 -2.1202
10589SOL     OW33008   7.651   7.543   6.194 -0.4816  0.3109  0.1624
10589SOL    HW133009   7.642   7.635   6.170 -0.4753  1.0185  2.7480
10589SOL    HW233010   7.570   7.502   6.163 -1.2512  1.5269  0.5560
10590SOL     OW33011   6.091   6.443   3.107 -0.3119 -0.0267  0.5137
10590SOL    HW133012   6.154   6.413   3.040  0.3944 -0.2201  1.2546
10590SOL    HW233013   6.015   6.473   3.057 -0.7210 -2.3122 -0.2883
10591SOL     OW33014   3.646   1.921   8.072  0.4731  0.1537 -0.4043
10591SOL    HW133015   3.624   1.981   8.001 -2.6476  0.7454  0.9784
10591SOL    HW233016   3.630   1.972   8.152  1.9749 -1.1375  0.7483
10592SOL     OW33017   2.536   1.896   6.110  0.3101 -0.2283  0.6464
10592SOL    HW133018   2.611   1.860   6.158  1.5201 -0.2156 -1.1616
10592SOL    HW233019   2.576   1.947   6.040 -1.3947 -0.8643 -0.8225
10593SOL     OW33020   6.871   4.607   6.024  0.1748  0.0082 -0.0943
10593SOL    HW133021   6.925   4.598   5.945 -0.7834  1.6558 -0.9592
10593SOL    HW233022   6.804   4.539   6.015 -0.3251  0.6181 -1.0338
10594SOL     OW33023   0.219   5.569   1.641  0.0682  0.1005  0.5919
10594SOL    HW133024   0.247   5.506   1.707  0.1444 -0.1047  0.3623
10594SOL    HW233025   0.286   5.637   1.643  0.5410 -0.3518  0.0946
10595SOL     OW33026   4.473   4.307   0.796 -0.6044 -0.1897 -0.0829
10595SOL    HW133027   4.512   4.362   0.728 -0.0376  0.5759  0.8628
10595SOL    HW233028   4.453   4.224   0.751  0.8886 -0.1219 -0.8974
10596SOL     OW33029   0.930   2.633   6.023  0.4525  0.1902  0.0427
10596SOL    HW133030   0.962   2.626   6.113  0.2010 -1.3520  0.0218
10596SOL    HW233031   0.928   2.543   5.991  1.4464  0.8219 -1.8376
10597SOL     OW33032   3.392   4.296   4.439 -0.1816 -0.4156  0.5289
10597SOL    HW133033   3.305   4.321   4.469 -0.4095 -1.6908  0.9785
10597SOL    HW233034   3.394   4.320   4.347 -1.2048 -0.8756  0.3850
10598SOL     OW33035   1.356   3.487   7.302  0.7978  0.0559 -0.1373
10598SOL    HW133036   1.311   3.431   7.239  0.8611 -0.3923  0.2126
10598SOL    HW233037   1.440   3.444   7.318 -0.4119 -1.4368  2.4972
10599SOL     OW33038   5.194   2.522   0.579  0.4799  0.5807  0.1206
10599SOL    HW133039   5.254   2.476   0.520  0.5547  1.0382 -0.1678
10599SOL    HW233040   5.210   2.484   0.665 -1.2268 -1.6741 -0.5274
10600SOL     OW33041   7.184   6.170   1.844 -0.1151  0.4459 -0.7662
10600SOL    HW133042   7.153   6.218   1.921  0.0833 -2.7115  1.3577
10600SOL    HW233043   7.105   6.133   1.805  0.0458 -0.1325 -0.5492
10601SOL     OW33044   3.626   7.085   2.834 -0.2488 -0.5152 -0.3688
10601SOL    HW133045   3.552   7.132   2.872  0.4905 -1.6820  2.6607
10601SOL    HW233046   3.703   7.119   2.880  0.6830 -1.9687 -0.8206
10602SOL     OW33047   3.101   3.347   5.910  0.7527 -0.1499 -0.4072
10602SOL    HW133048   3.125   3.259   5.881 -0.1489 -0.4742 -0.1791
10602SOL    HW233049   3.059   3.333   5.995 -0.1197  0.4204 -0.7428
10603SOL     OW33050   2.595   5.233   2.971 -0.2111  0.3273  0.1335
10603SOL    HW133051   2.631   5.290   2.903 -0.0094  1.5295  1.2133
10603SOL    HW233052   2.670   5.184   3.004  0.1170  1.4104  1.0393
10604SOL     OW33053   4.921   6.743   2.640  0.2757 -0.2136 -0.0635
10604SOL    HW133054   4.968   6.763   2.721 -0.0568  0.9779 -0.1684
10604SOL    HW233055   4.891   6.827   2.608 -1.6676 -0.9376 -0.1755
10605SOL     OW33056   1.380   5.735   1.901 -0.3374 -0.5263 -0.0065
10605SOL    HW133057   1.313   5.795   1.935  0.3075 -0.1512  0.5907
10605SOL    HW233058   1.363   5.732   1.806 -1.7525 -1.1069  0.2539
10606SOL     OW33059   7.392   3.265   5.861 -0.3476  0.0997  0.1736
10606SOL    HW133060   7.476   3.311   5.863 -0.0988 -0.3948  1.5854
10606SOL    HW233061   7.407   3.185   5.912 -0.7716 -1.5582 -2.2003
10607SOL     OW33062   6.283   5.630   6.901  0.1722 -0.8776  0.2275
10607SOL    HW133063   6.373   5.657   6.918 -0.3579  0.8332  0.4835
10607SOL    HW233064   6.277   5.541   6.936  0.9801  0.0509  2.8673
10608SOL     OW33065   7.310   5.297   4.359 -0.1789 -0.3042  0.7008
10608SOL    HW133066   7.350   5.370   4.312  0.7431 -0.9821  0.4147
10608SOL    HW233067   7.227   5.282   4.314  0.0504 -0.0299  0.1775
10609SOL     OW33068   8.206   2.424   5.274 -0.1930  0.3255  0.2875
10609SOL    HW133069   8.266   2.491   5.307 -1.1325 -0.0823  2.8824
10609SOL    HW233070   8.216   2.351   5.335 -1.2485 -0.8357 -0.9049
10610SOL     OW33071   0.956   2.298   3.207  0.1293 -0.1052 -0.9654
10610SOL    HW133072   1.042   2.310   3.247 -0.2831 -0.7998  0.1528
10610SOL    HW233073   0.895   2.341   3.267 -0.3140  0.3423 -1.7275
10611SOL     OW33074   4.755   1.627   1.103  0.5078  0.3192  0.5008
10611SOL    HW133075   4.732   1.717   1.083 -2.4524 -0.3170  0.7772
10611SOL    HW233076   4.730   1.615   1.194 -1.7955 -1.5383 -0.3173
10612SOL     OW33077   2.828   2.122   6.208 -0.7105  0.2627  0.3124
10612SOL    HW133078   2.785   2.099   6.126 -1.1677 -1.0808  0.9109
10612SOL    HW233079   2.761   2.168   6.258 -1.5031 -1.8552  1.2561
10613SOL     OW33080   5.771   2.250   4.886 -0.4516  0.2928 -0.0150
10613SOL    HW133081   5.793   2.291   4.970 -0.2093  2.8944 -1.3009
10613SOL    HW233082   5.686   2.209   4.901 -0.0436  0.0349  1.7218
10614SOL     OW33083   4.489   3.642   2.904 -0.3155  0.3069 -0.8300
10614SOL    HW133084   4.579   3.620   2.927  0.2168  0.8620 -2.3719
10614SOL    HW233085   4.436   3.575   2.949  0.8477  0.0227  0.1262
10615SOL     OW33086   0.808   3.049   6.329 -0.4044 -0.5096 -0.1473
10615SOL    HW133087   0.858   3.007   6.260 -2.0810 -1.2949 -0.8986
10615SOL    HW233088   0.874   3.090   6.385  1.0168 -0.7688 -1.6120
10616SOL     OW33089   6.999   0.248   2.797  0.4850 -0.3596 -0.0305
10616SOL    HW133090   6.982   0.165   2.753 -0.3583  0.5993 -1.5480
10616SOL    HW233091   6.961   0.237   2.884  1.2129 -1.8957  0.1001
10617SOL     OW33092   1.487   2.108   2.949 -0.0236  0.7486  0.3226
10617SOL    HW133093   1.494   2.039   2.883  0.5707 -0.7745  1.9527
10617SOL    HW233094   1.394   2.133   2.946 -0.3718 -0.5113  0.1168
10618SOL     OW33095   1.256   1.420   4.870 -0.4382  0.1400 -0.5740
10618SOL    HW133096   1.169   1.384   4.886 -2.0478  2.7858 -3.1036
10618SOL    HW233097   1.306   1.346   4.836 -1.4173 -1.5941  1.5954
10619SOL     OW33098   1.036   4.333   2.054 -0.1517  0.5141  0.1038
10619SOL    HW133099   1.120   4.379   2.050 -0.5995  1.4126  0.7762
10619SOL    HW233100   0.973   4.401   2.078 -1.1983  0.0155 -1.1848
10620SOL     OW33101   6.221   1.884   6.373  1.0220  0.3183  0.1570
10620SOL    HW133102   6.304   1.857   6.335  1.8957  1.5535  1.1769
10620SOL    HW233103   6.244   1.946   6.442 -0.7334  0.6277  0.5012
10621SOL     OW33104   3.602   3.466   5.131  0.3332  0.2226  0.4081
10621SOL    HW133105   3.536   3.532   5.153  0.1158 -0.0970  0.7324
10621SOL    HW233106   3.596   3.456   5.036  0.5326  0.8414  0.3282
10622SOL     OW33107   4.328   6.670   1.766  0.0477  0.1221  0.0615
10622SOL    HW133108   4.276   6.665   1.686  1.0513  0.1386 -0.5996
10622SOL    HW233109   4.389   6.742   1.750  0.4215 -0.0404  0.7424
10623SOL     OW33110   8.116   0.080   3.100 -0.1752  0.4840  0.1765
10623SOL    HW133111   8.206   0.059   3.077 -0.0584  0.6622  0.4765
10623SOL    HW233112   8.102   0.169   3.066 -0.9423 -0.3945 -1.8695
10624SOL     OW33113   2.041   7.020   6.436 -0.1111  0.3215 -0.6242
10624SOL    HW133114   2.015   7.048   6.524 -1.0942 -1.0771 -0.4622
10624SOL    HW233115   1.979   6.952   6.413  1.8009 -1.2224 -1.3073
10625SOL     OW33116   5.440   6.684   3.626 -0.3349 -0.1173  0.0882
10625SOL    HW133117   5.374   6.649   3.566  0.1876  0.2712 -0.7165
10625SOL    HW233118   5.396   6.759   3.667 -0.5990 -0.2218 -0.0011
10626SOL     OW33119   4.658   7.233   1.928 -0.6195  0.2812  0.2100
10626SOL    HW133120   4.652   7.299   1.997  2.4395  0.3660  0.4373
10626SOL    HW233121   4.613   7.272   1.853 -1.7327  1.2299  1.3598
10627SOL     OW33122   5.681   2.333   5.288  0.2151  0.2294 -0.1988
10627SOL    HW133123   5.633   2.270   5.234 -0.2012  0.7478 -0.4344
10627SOL    HW233124   5.772   2.304   5.283  0.0321 -0.3136 -0.3617
10628SOL     OW33125   0.778   6.404   1.550  0.4509  0.4233  0.1965
10628SOL    HW133126   0.728   6.357   1.484  0.7944  0.8835 -0.4023
10628SOL    HW233127   0.783   6.344   1.624  0.8094 -0.4355 -0.5212
10629SOL     OW33128   3.905   8.011   3.116 -0.2131  0.4857  0.4653
10629SOL    HW133129   3.897   8.103   3.139 -1.8573  0.3335  0.5565
10629SOL    HW233130   3.819   7.988   3.079  0.3119 -0.9006  0.0738
10630SOL     OW33131   2.753   4.994   3.073  0.1893 -0.2232  0.0533
10630SOL    HW133132   2.701   4.942   3.134 -0.4914 -0.1624 -0.4682
10630SOL    HW233133   2.842   4.958   3.081 -0.1408 -1.0243  0.1886
10631SOL     OW33134   0.047   5.965   2.223  0.0736  0.3276  0.1845
10631SOL    HW133135   0.017   6.055   2.206 -1.0056  0.2369  1.4883
10631SOL    HW233136   0.112   5.948   2.155  0.2423  2.0767 -0.1225
10632SOL     OW33137   0.656   6.305   5.961  0.3434  0.6485  0.8648
10632SOL    HW133138   0.636   6.214   5.981 -0.1981  0.6367  0.2735
10632SOL    HW233139   0.642   6.351   6.044  0.1594  0.2698  1.0458
10633SOL     OW33140   7.940   2.767   2.300  0.4198 -0.0284  0.4703
10633SOL    HW133141   7.898   2.731   2.378  0.3837 -0.2925  0.3305
10633SOL    HW233142   7.881   2.745   2.228  1.5668 -1.8442  0.0400
10634SOL     OW33143   2.821   5.982   1.645 -0.3176  0.7347 -0.2950
10634SOL    HW133144   2.882   6.054   1.628 -0.3908  1.1567  1.1961
10634SOL    HW233145   2.738   6.013   1.610  0.0787  0.5919 -1.3807
10635SOL     OW33146   6.622   6.542   6.000 -0.1192 -0.5340  0.9420
10635SOL    HW133147   6.558   6.491   6.050 -0.0930 -0.9913  0.5237
10635SOL    HW233148   6.581   6.628   5.989 -0.3492 -0.5954  1.2950
10636SOL     OW33149   5.730   0.941   6.334  0.0724 -0.6237  0.1478
10636SOL    HW133150   5.790   0.997   6.382 -2.1032  0.8026  1.2691
10636SOL    HW233151   5.787   0.890   6.276  2.1308  2.5346 -0.7314
10637SOL     OW33152   1.209   1.495   6.533 -0.2047 -0.0738 -0.1508
10637SOL    HW133153   1.244   1.448   6.608 -0.2961 -0.2863 -0.2392
10637SOL    HW233154   1.212   1.588   6.558  1.0857 -0.0287 -0.4347
10638SOL     OW33155   3.378   5.061   3.076  0.2802  0.1678 -0.6393
10638SOL    HW133156   3.308   5.039   3.015  0.2388  2.0527 -1.3235
10638SOL    HW233157   3.376   5.157   3.081 -0.2680  0.0318  2.9667
10639SOL     OW33158   1.796   0.673   3.748  0.4801  0.0446  0.0923
10639SOL    HW133159   1.791   0.663   3.843  2.0236 -4.2062 -0.1579
10639SOL    HW233160   1.707   0.654   3.717  0.3224 -0.0936  0.6216
10640SOL     OW33161   2.213   3.660   2.332  0.2772  0.1215 -0.6147
10640SOL    HW133162   2.145   3.637   2.396  1.3821 -3.4161 -0.5629
10640SOL    HW233163   2.167   3.710   2.264 -1.4356  1.6518  1.5968
10641SOL     OW33164   1.310   2.205   5.534  0.2246 -0.4565  0.1375
10641SOL    HW133165   1.236   2.164   5.488 -1.3395  0.6430  1.6382
10641SOL    HW233166   1.318   2.291   5.494  1.2482 -0.8738 -0.5851
10642SOL     OW33167   2.834   6.499   6.876  0.3435  0.0971  0.4011
10642SOL    HW133168   2.884   6.429   6.917 -0.3954 -0.4979  0.3105
10642SOL    HW233169   2.824   6.471   6.785  1.1146  0.9267  0.0535
10643SOL     OW33170   1.133   6.496   1.156  0.3001  0.0779  0.7744
10643SOL    HW133171   1.197   6.566   1.145  0.3725 -0.1828 -0.5326
10643SOL    HW233172   1.110   6.499   1.249  1.7783  0.5402  1.1395
10644SOL     OW33173   0.340   5.888   8.170 -0.2512 -0.3601  0.3538
10644SOL    HW133174   0.258   5.924   8.136  0.1443  2.1257  1.9057
10644SOL    HW233175   0.317   5.799   8.197 -2.3699  0.1759  0.4643
10645SOL     OW33176   2.621   7.513   1.319  0.4635  0.2627 -0.1837
10645SOL    HW133177   2.663   7.503   1.234  0.8150 -2.5886  0.2464
10645SOL    HW233178   2.638   7.430   1.364 -1.5864  0.8524  1.8276
10646SOL     OW33179   4.852   8.116   6.756  0.1326  0.3584 -0.2180
10646SOL    HW133180   4.815   8.028   6.765  1.3290 -0.0066  1.3763
10646SOL    HW233181   4.788   8.174   6.798  0.3352 -0.0236  0.6388
10647SOL     OW33182   7.357   3.768   6.985 -0.1552  0.4013  0.5393
10647SOL    HW133183   7.412   3.744   6.911  2.6309  0.9587  2.3379
10647SOL    HW233184   7.406   3.837   7.030 -2.9363  1.8195  1.5418
10648SOL     OW33185   2.308   1.775   6.057 -0.2672  0.0936  0.7281
10648SOL    HW133186   2.257   1.794   6.135 -0.7205 -0.4369  0.5675
10648SOL    HW233187   2.388   1.827   6.067 -1.5572  2.2681  0.1928
10649SOL     OW33188   4.677   3.946   7.198 -0.0428  0.5098 -0.0806
10649SOL    HW133189   4.678   3.941   7.294  1.8356 -1.6189 -0.1803
10649SOL    HW233190   4.689   4.040   7.179 -0.2842  0.9278  1.7619
10650SOL     OW33191   1.536   0.908   4.116 -0.2678 -0.1625 -0.7613
10650SOL    HW133192   1.485   0.833   4.083  0.4086 -0.0411 -2.1471
10650SOL    HW233193   1.620   0.870   4.141 -0.9197 -0.3199  1.2839
10651SOL     OW33194   2.043   5.348   0.608  0.7519 -0.7479  0.7660
10651SOL    HW133195   2.025   5.388   0.522 -1.5382  0.4539  1.7516
10651SOL    HW233196   2.080   5.419   0.660 -0.0468 -0.8393  1.4661
10652SOL     OW33197   4.287   4.859   2.634 -0.6552 -0.4078 -0.0342
10652SOL    HW133198   4.341   4.938   2.631 -0.9975 -0.1770 -0.2026
10652SOL    HW233199   4.199   4.889   2.609 -0.7463 -0.8738 -0.2909
10653SOL     OW33200   0.288   2.653   1.811  0.0607 -0.2228  0.6296
10653SOL    HW133201   0.225   2.582   1.805  1.3094 -1.4705  1.9379
10653SOL    HW233202   0.355   2.622   1.872  1.1395  1.6825  0.4845
10654SOL     OW33203   0.514   2.617   1.974  0.1195  0.5706 -0.0342
10654SOL    HW133204   0.593   2.573   1.943 -0.8387  0.3915 -2.3060
10654SOL    HW233205   0.527   2.709   1.951  0.4172  0.8287  1.1586
10655SOL     OW33206   8.092   6.053   2.055  0.2240  0.5224 -0.0631
10655SOL    HW133207   8.036   5.977   2.068  0.7735 -0.0645 -1.1070
10655SOL    HW233208   8.115   6.081   2.144 -0.1384 -0.3980  0.3280
10656SOL     OW33209   6.805   1.418   3.914 -0.0668  0.2430  0.4317
10656SOL    HW133210   6.801   1.374   3.829  1.5737 -0.1146  0.5114
10656SOL    HW233211   6.898   1.439   3.925 -0.2569  0.2452  2.1595
10657SOL     OW33212   6.927   7.049   0.012  0.3081  0.1217 -0.7304
10657SOL    HW133213   6.960   7.128   0.054  1.0932 -1.4586  1.7189
10657SOL    HW233214   6.906   6.990   0.084  2.2400 -2.8865 -2.5197
10658SOL     OW33215   4.681   6.486   5.855  0.3196 -0.3849 -0.2071
10658SOL    HW133216   4.714   6.445   5.935 -1.1348 -0.7125  0.2396
10658SOL    HW233217   4.637   6.415   5.809  1.3759 -0.2532 -1.4330
10659SOL     OW33218   2.133   1.677   3.681 -0.6832  0.6327 -0.2167
10659SOL    HW133219   2.081   1.649   3.757 -1.0575  0.6541 -0.4645
10659SOL    HW233220   2.106   1.618   3.611 -0.6155  0.8624 -0.4351
10660SOL     OW33221   3.322   6.396   6.365 -0.4526 -0.6075  0.4566
10660SOL    HW133222   3.335   6.383   6.271 -0.0595 -0.0099  0.4280
10660SOL    HW233223   3.353   6.485   6.382  1.6832 -1.5271  1.5510
10661SOL     OW33224   0.627   2.792   0.053  0.1348  0.3017  0.0628
10661SOL    HW133225   0.544   2.839   0.046  0.5330  1.1024  0.6358
10661SOL    HW233226   0.683   2.850   0.104  1.2372  0.0127 -0.8126
10662SOL     OW33227   2.896   3.892   2.691  0.0749  0.2846  0.1881
10662SOL    HW133228   2.879   3.861   2.780 -0.6674 -0.3582 -0.1768
10662SOL    HW233229   2.824   3.953   2.673 -1.0596 -1.3007 -0.8001
10663SOL     OW33230   3.891   0.930   2.683 -0.3182  0.0142 -0.3740
10663SOL    HW133231   3.958   0.878   2.638 -0.1655 -0.2888  0.2056
10663SOL    HW233232   3.826   0.948   2.615 -0.8077 -1.6639 -0.3848
10664SOL     OW33233   6.120   4.307   5.502  0.1550  0.6200  1.0662
10664SOL    HW133234   6.049   4.296   5.438 -0.2845 -1.4053  1.8478
10664SOL    HW233235   6.194   4.263   5.461  0.3796  0.8981  1.1751
10665SOL     OW33236   6.054   5.447   6.777  0.5486  0.2311  0.1640
10665SOL    HW133237   6.088   5.419   6.862 -1.9912  1.0409  1.4939
10665SOL    HW233238   5.996   5.521   6.798 -1.5456 -0.7307 -2.0600
10666SOL     OW33239   2.106   4.531   0.959  0.0222  0.1620 -0.1188
10666SOL    HW133240   2.122   4.616   0.919 -0.7385 -0.0882 -0.9832
10666SOL    HW233241   2.150   4.468   0.901  1.9555  0.0990  1.3968
10667SOL     OW33242   4.826   6.087   0.853  0.0729 -0.8325 -0.7346
10667SOL    HW133243   4.784   6.157   0.803  0.8139  0.8805  0.9641
10667SOL    HW233244   4.753   6.043   0.897 -0.5262 -2.0149 -2.8612
10668SOL     OW33245   3.103   4.387   3.484  0.3813 -0.0841 -0.1764
10668SOL    HW133246   3.111   4.384   3.388  0.5520  0.7848 -0.1868
10668SOL    HW233247   3.124   4.297   3.512 -1.0323 -0.7139 -1.0529
10669SOL     OW33248   5.596   2.025   7.466  0.2325  0.7401  0.0597
10669SOL    HW133249   5.690   2.024   7.448 -0.0052  0.3121 -1.2025
10669SOL    HW233250   5.577   2.116   7.489  0.9355  0.8552  0.1992
10670SOL     OW33251   4.163   8.100   2.027  0.1158 -0.3510 -0.7862
10670SOL    HW133252   4.185   8.187   2.060  0.4501 -0.3227 -1.0853
10670SOL    HW233253   4.100   8.066   2.091 -0.8182  0.5123 -1.2222
10671SOL     OW33254   3.320   7.931   2.250  0.1416 -0.0065  0.8630
10671SOL    HW133255   3.236   7.952   2.209  0.3659  0.8423  0.8405
10671SOL    HW233256   3.385   7.970   2.192  0.5455 -0.4475  1.0151
10672SOL     OW33257   3.472   4.614   0.075 -0.5831 -0.8016  0.6403
10672SOL    HW133258   3.483   4.702   0.039 -0.3519 -0.4806  1.4917
10672SOL    HW233259   3.383   4.589   0.048 -0.6106 -0.3557  0.2977
10673SOL     OW33260   5.903   4.605   7.807  0.3109 -0.0913  0.0107
10673SOL    HW133261   5.874   4.610   7.898 -0.2445  1.0264 -0.2218
10673SOL    HW233262   5.922   4.512   7.793 -1.3336 -0.5491  0.7240
10674SOL     OW33263   2.224   7.959   7.019  0.5674  0.0294 -0.0306
10674SOL    HW133264   2.278   8.038   7.008  1.0929 -0.5630 -1.8535
10674SOL    HW233265   2.214   7.924   6.930  0.5175 -2.0872  0.7834
10675SOL     OW33266   1.230   7.427   0.217  0.2668 -0.0415 -0.3601
10675SOL    HW133267   1.196   7.425   0.307 -0.0295  0.1256 -0.4664
10675SOL    HW233268   1.276   7.344   0.207 -0.6093 -0.5246 -0.4086
10676SOL     OW33269   4.341   6.634   2.703 -0.1167  0.5456 -0.6065
10676SOL    HW133270   4.387   6.707   2.662  1.3433 -0.1577 -0.2387
10676SOL    HW233271   4.353   6.562   2.642  2.3619 -0.6064  1.1612
10677SOL     OW33272   3.392   5.904   7.762  0.0345 -0.2718  0.0792
10677SOL    HW133273   3.313   5.851   7.775  0.3087 -0.7071  0.0005
10677SOL    HW233274   3.459   5.840   7.736  0.2632  0.1766 -0.4411
10678SOL     OW33275   2.912   0.513   6.051  0.1460  0.3085 -0.5972
10678SOL    HW133276   2.867   0.562   6.119  1.1093  1.4039 -0.7296
10678SOL    HW233277   2.842   0.476   5.997 -0.6084 -0.0421  0.6177
10679SOL     OW33278   2.907   1.271   6.900  0.5463  0.1299  0.3592
10679SOL    HW133279   2.849   1.205   6.937 -0.5679  0.0360 -1.5225
10679SOL    HW233280   2.898   1.347   6.958  0.1389 -0.5831  1.2396
10680SOL     OW33281   1.924   7.861   5.195  0.8838 -0.3779  0.4002
10680SOL    HW133282   1.887   7.878   5.282  0.4301  0.3651  0.0577
10680SOL    HW233283   2.007   7.909   5.195  1.0417 -0.6478  0.5403
10681SOL     OW33284   4.245   5.775   0.785  0.2320  0.7094 -0.3140
10681SOL    HW133285   4.274   5.830   0.713  1.4377  1.1975  0.5259
10681SOL    HW233286   4.318   5.715   0.801 -0.2381  0.2524  0.1610
10682SOL     OW33287   6.666   2.344   5.905 -0.3427  0.2628  0.5787
10682SOL    HW133288   6.587   2.291   5.911  0.1719 -0.4198  1.4571
10682SOL    HW233289   6.636   2.429   5.875 -1.2159 -0.4474 -0.5723
10683SOL     OW33290   3.228   4.896   0.821 -0.0587  0.2177 -0.7806
10683SOL    HW133291   3.226   4.807   0.857 -1.2317  0.7897  0.6165
10683SOL    HW233292   3.233   4.883   0.726  0.3013 -1.3315 -0.5666
10684SOL     OW33293   1.808   7.067   3.027 -0.2129 -0.1306  0.8809
10684SOL    HW133294   1.871   7.129   3.064 -0.3854  0.2882  0.4731
10684SOL    HW233295   1.736   7.121   2.996  0.3966 -0.3697 -1.0487
10685SOL     OW33296   4.934   4.240   5.830 -0.3999 -0.5562 -0.4844
10685SOL    HW133297   4.992   4.295   5.882 -1.3621 -2.7090  3.0284
10685SOL    HW233298   4.989   4.208   5.759  1.8613 -0.0652  1.0057
10686SOL     OW33299   5.449   4.090   3.294  0.2100  0.2552  0.3494
10686SOL    HW133300   5.502   4.052   3.364 -1.1207  0.9509  1.7645
10686SOL    HW233301   5.375   4.132   3.339  0.3526  2.4213 -1.3132
10687SOL     OW33302   5.403   3.120   3.348  0.1668 -0.2628 -0.3009
10687SOL    HW133303   5.418   3.125   3.442 -2.0020  0.2644  0.0410
10687SOL    HW233304   5.412   3.211   3.317 -0.3192 -0.2407 -0.3915
10688SOL     OW33305   2.169   0.942   0.264 -0.2314 -0.3486  0.0515
10688SOL    HW133306   2.198   0.931   0.174  1.9474  0.3333  0.6473
10688SOL    HW233307   2.117   0.863   0.282 -0.4377 -0.6234 -1.6913
10689SOL     OW33308   1.924   3.400   0.522 -0.5995  0.0109 -0.0422
10689SOL    HW133309   1.981   3.341   0.473 -0.5314 -0.8369  1.0294
10689SOL    HW233310   1.975   3.423   0.600 -1.0556  0.6152  0.0785
10690SOL     OW33311   3.637   2.390   5.885  0.2367  0.2083 -0.5183
10690SOL    HW133312   3.695   2.439   5.827  0.6833  0.5756  0.2263
10690SOL    HW233313   3.564   2.449   5.902  0.0641  0.0683 -0.7765
10691SOL     OW33314   0.209   6.704   3.941 -0.4186 -0.0060  0.3434
10691SOL    HW133315   0.276   6.652   3.897  1.8784  2.3728  0.9052
10691SOL    HW233316   0.126   6.670   3.908  1.0995 -2.1149 -1.4028
10692SOL     OW33317   5.913   2.897   0.469 -0.8784  0.6132  0.3313
10692SOL    HW133318   5.877   2.810   0.484 -1.8073  0.9038 -0.1238
10692SOL    HW233319   5.905   2.942   0.553  0.5581 -0.0620  0.8479
10693SOL     OW33320   1.823   0.346   2.762  0.4625 -0.3225  0.2079
10693SOL    HW133321   1.781   0.430   2.749  2.0533  0.4559 -0.0208
10693SOL    HW233322   1.858   0.350   2.851 -0.2368 -1.1035  0.5291
10694SOL     OW33323   2.212   3.788   5.497 -0.1622  0.3668 -0.1302
10694SOL    HW133324   2.130   3.801   5.450 -0.0207 -0.5515 -0.6555
10694SOL    HW233325   2.206   3.845   5.573 -1.1313  0.5736 -0.3575
10695SOL     OW33326   6.826   1.773   0.122 -0.6152  0.1631 -0.0560
10695SOL    HW133327   6.921   1.782   0.110 -0.5799 -0.6326 -0.3867
10695SOL    HW233328   6.797   1.726   0.044 -1.2966  0.4784  0.0083
10696SOL     OW33329   5.604   3.521   2.887 -0.0346  0.0701 -0.0293
10696SOL    HW133330   5.676   3.459   2.899 -0.5459 -0.5025  0.1069
10696SOL    HW233331   5.610   3.578   2.963 -0.4196 -0.6803  0.5695
10697SOL     OW33332   6.280   2.473   2.338 -0.1997 -0.0396 -0.2803
10697SOL    HW133333   6.245   2.482   2.426  2.0861 -0.2009  0.6773
10697SOL    HW233334   6.263   2.381   2.315 -0.6383 -0.0457  0.0522
10698SOL     OW33335   1.483   1.237   2.345 -0.0884 -0.1293  0.2157
10698SOL    HW133336   1.443   1.307   2.293 -0.1069 -0.7720 -0.6572
10698SOL    HW233337   1.568   1.222   2.304 -0.2111 -0.8261  0.2013
10699SOL     OW33338   7.273   3.579   7.448  0.1463 -0.2089 -0.2970
10699SOL    HW133339   7.183   3.612   7.446  0.3620  0.3827 -0.2948
10699SOL    HW233340   7.327   3.658   7.446  0.6546 -0.5279  0.7030
10700SOL     OW33341   3.047   1.786   3.953  0.0680  0.1929 -0.2100
10700SOL    HW133342   3.094   1.776   3.870 -0.3767  0.8861 -0.5494
10700SOL    HW233343   2.964   1.740   3.940 -0.7787  1.8249 -0.7984
10701SOL     OW33344   6.512   5.847   3.591  0.3454  0.1878  0.6714
10701SOL    HW133345   6.486   5.774   3.534  0.5004 -1.1498  2.2932
10701SOL    HW233346   6.438   5.907   3.586 -0.0568 -0.3576 -0.1896
10702SOL     OW33347   7.118   1.805   3.896 -0.5063 -0.1805  0.3858
10702SOL    HW133348   7.042   1.811   3.839 -0.6946 -1.3409  0.5068
10702SOL    HW233349   7.107   1.722   3.943  1.5045 -1.0499 -0.6050
10703SOL     OW33350   2.735   8.041   0.746  0.1575 -0.4753  0.3368
10703SOL    HW133351   2.697   8.122   0.781  0.1427 -0.6750  0.7861
10703SOL    HW233352   2.742   8.057   0.652 -0.5487 -0.2317  0.3182
10704SOL     OW33353   3.489   4.845   6.678 -0.0126  0.5693 -0.1440
10704SOL    HW133354   3.575   4.864   6.716 -0.1958  0.1729  0.4797
10704SOL    HW233355   3.481   4.906   6.605  1.1990 -0.0150 -0.7900
10705SOL     OW33356   6.280   1.032   7.136  0.1783 -0.2415  0.6195
10705SOL    HW133357   6.241   0.991   7.059  1.3888 -0.8953  0.3295
10705SOL    HW233358   6.351   0.972   7.161  1.4655  1.2658  0.6849
10706SOL     OW33359   2.439   0.579   5.243 -0.5021  0.2055  0.3206
10706SOL    HW133360   2.499   0.579   5.317 -0.7984 -0.4374  0.5628
10706SOL    HW233361   2.466   0.655   5.190 -0.7771  1.1086  1.4737
10707SOL     OW33362   5.445   6.632   4.394 -0.3199 -0.0853  0.0215
10707SOL    HW133363   5.468   6.640   4.301  0.0429 -0.8620  0.0377
10707SOL    HW233364   5.521   6.665   4.441  0.8341 -2.6758  0.0744
10708SOL     OW33365   1.156   8.073   2.821 -0.2313  0.1330 -0.0119
10708SOL    HW133366   1.123   7.987   2.848  0.8284  0.2906  1.8617
10708SOL    HW233367   1.103   8.136   2.870 -1.4039  0.5848 -1.8249
10709SOL     OW33368   3.611   7.833   2.919 -0.3910 -0.1304 -0.0424
10709SOL    HW133369   3.615   7.751   2.969 -3.0765 -0.6601 -0.5746
10709SOL    HW233370   3.575   7.896   2.981 -2.1802 -0.3864 -0.7847
10710SOL     OW33371   4.764   2.537   5.882  0.3142 -0.2996 -0.3391
10710SOL    HW133372   4.670   2.553   5.892  0.6255  0.8717  1.0090
10710SOL    HW233373   4.785   2.570   5.795 -0.4578 -0.2103 -0.4953
10711SOL     OW33374   1.461   2.563   1.205  0.2980 -0.0528 -0.0631
10711SOL    HW133375   1.513   2.576   1.285 -1.5153 -0.1951  1.1662
10711SOL    HW233376   1.441   2.652   1.175 -0.9827  0.0307  0.9731
10712SOL     OW33377   7.069   5.884   5.170  0.0987  0.2499  0.3412
10712SOL    HW133378   7.069   5.976   5.194  0.9653  0.6808 -1.2352
10712SOL    HW233379   6.988   5.871   5.121  0.2531  0.3050  0.0713
10713SOL     OW33380   3.286   6.319   7.181  0.7389  0.2999  0.0733
10713SOL    HW133381   3.289   6.412   7.204  0.3001 -0.0552  1.6468
10713SOL    HW233382   3.243   6.317   7.096  1.1871  1.5801 -0.1933
10714SOL     OW33383   4.191   8.261   0.768 -0.1361  0.2625  0.1058
10714SOL    HW133384   4.111   8.313   0.777 -0.7769 -1.0757  2.6046
10714SOL    HW233385   4.164   8.185   0.715 -1.3385 -1.7078  3.4239
10715SOL     OW33386   0.879   0.622   5.904 -0.4150  0.0576  0.2693
10715SOL    HW133387   0.835   0.599   5.986  0.4465 -1.3194  0.3568
10715SOL    HW233388   0.962   0.573   5.906 -1.2520 -1.5576 -2.3256
10716SOL     OW33389   8.080   2.484   0.744 -0.2075 -0.0235 -0.2293
10716SOL    HW133390   8.000   2.433   0.754 -1.2978  1.6845  0.0879
10716SOL    HW233391   8.102   2.512   0.833 -0.8827  1.8637 -0.6168
10717SOL     OW33392   7.632   3.977   2.052  0.2267 -0.3509  0.2600
10717SOL    HW133393   7.666   4.010   2.136  0.6641  0.1026 -0.0913
10717SOL    HW233394   7.707   3.934   2.012  0.7106  1.5715 -1.0000
10718SOL     OW33395   3.499   1.081   3.038 -0.0920  0.2401  0.1115
10718SOL    HW133396   3.502   1.176   3.041  0.0064  0.2149  1.4400
10718SOL    HW233397   3.432   1.057   3.102  0.8767 -0.6196  0.8299
10719SOL     OW33398   0.754   6.476   2.292 -0.6788  0.1297  0.1155
10719SOL    HW133399   0.795   6.518   2.367  0.1530 -0.0533 -0.2330
10719SOL    HW233400   0.819   6.414   2.260 -0.9871  0.2710 -0.8159
10720SOL     OW33401   4.783   2.389   0.421 -0.1919 -0.2780 -0.0765
10720SOL    HW133402   4.858   2.338   0.392  0.0747  0.9146 -1.5611
10720SOL    HW233403   4.819   2.475   0.444 -0.9367 -0.0624  0.3433
10721SOL     OW33404   8.111   0.156   7.470  0.4630 -0.1285  0.1458
10721SOL    HW133405   8.135   0.141   7.562 -3.1149  0.6763  1.2950
10721SOL    HW233406   8.181   0.115   7.420  3.1637  0.5172  3.2347
10722SOL     OW33407   1.786   6.677   5.607  0.5222 -0.0292 -0.2277
10722SOL    HW133408   1.758   6.647   5.693 -0.3612  2.2323  0.3263
10722SOL    HW233409   1.878   6.650   5.600  0.2278 -1.3601  0.8635
10723SOL     OW33410   2.478   7.697   8.043  0.1947 -1.0960  0.2335
10723SOL    HW133411   2.521   7.616   8.014  0.6741 -1.3087  1.5502
10723SOL    HW233412   2.504   7.708   8.134 -0.1847  0.3496  0.1800
10724SOL     OW33413   1.182   1.756   6.655 -0.0259  0.2180 -0.2258
10724SOL    HW133414   1.147   1.728   6.739 -0.5271 -0.8893 -0.8044
10724SOL    HW233415   1.234   1.834   6.676 -0.7323  0.3696  0.9962
10725SOL     OW33416   1.336   1.414   0.845 -0.3442 -0.2274 -0.2180
10725SOL    HW133417   1.321   1.358   0.922 -0.9372  1.0744  0.6259
10725SOL    HW233418   1.389   1.486   0.878 -0.8015  0.4692 -0.9912
10726SOL     OW33419   6.021   4.596   0.303  0.3336 -0.1728  0.4309
10726SOL    HW133420   5.940   4.556   0.272  0.9389 -0.6988 -0.4687
10726SOL    HW233421   6.079   4.522   0.321  0.4182  0.1784  1.6321
10727SOL     OW33422   2.217   7.261   7.569  0.7710  0.5543  0.0008
10727SOL    HW133423   2.289   7.200   7.586  1.2618  1.1918  0.2115
10727SOL    HW233424   2.250   7.346   7.597 -0.3863  0.7072  0.9259
10728SOL     OW33425   1.553   2.080   7.941  0.9759 -0.8316  0.0487
10728SOL    HW133426   1.600   2.050   8.019  0.6888  0.5449  0.7639
10728SOL    HW233427   1.621   2.109   7.881  1.0869  0.3589  0.7435
10729SOL     OW33428   7.118   4.957   4.010 -0.4277 -0.7984  0.7376
10729SOL    HW133429   7.108   4.986   3.919  2.7885  2.5786  1.3636
10729SOL    HW233430   7.028   4.942   4.040 -1.8936  2.4610 -1.6659
10730SOL     OW33431   3.474   5.700   8.154  0.2187 -0.2493  0.4998
10730SOL    HW133432   3.395   5.667   8.111  0.1452  0.6427 -0.0626
10730SOL    HW233433   3.503   5.773   8.099 -0.2256  1.3133  2.2931
10731SOL     OW33434   4.463   4.873   2.152  0.2024 -0.5551 -0.8138
10731SOL    HW133435   4.481   4.909   2.239  0.2193  1.3866 -1.5920
10731SOL    HW233436   4.372   4.844   2.156 -0.0231  0.2020 -0.3655
10732SOL     OW33437   1.637   5.736   4.328  0.3270 -0.3793  0.3134
10732SOL    HW133438   1.693   5.704   4.257  1.0897  2.2117 -0.3274
10732SOL    HW233439   1.598   5.817   4.293 -2.4097 -1.1665  1.4240
10733SOL     OW33440   0.143   3.025   4.682 -0.0370  0.6690  0.0748
10733SOL    HW133441   0.221   2.972   4.695  0.3141  0.6730 -1.7856
10733SOL    HW233442   0.163   3.079   4.605 -2.8400 -1.2638 -2.0930
10734SOL     OW33443   3.445   7.451   3.396  1.0846 -0.1992 -0.0919
10734SOL    HW133444   3.375   7.407   3.347  0.6683  0.5067 -0.1377
10734SOL    HW233445   3.445   7.407   3.482  0.6461 -0.2610 -0.1217
10735SOL     OW33446   3.267   4.071   8.265 -0.1148  0.0860 -0.1222
10735SOL    HW133447   3.220   4.078   8.348  0.6216  0.8643  0.2309
10735SOL    HW233448   3.206   4.106   8.200 -0.5769 -0.2528  0.1292
10736SOL     OW33449   5.503   4.017   2.084  0.0634  0.0619 -0.1716
10736SOL    HW133450   5.598   4.016   2.076  0.1401 -1.1867  0.7750
10736SOL    HW233451   5.486   3.995   2.176 -1.1043  1.6060  0.0223
10737SOL     OW33452   4.817   6.997   5.841  0.2204 -0.4352  0.1081
10737SOL    HW133453   4.840   7.038   5.924  0.1280  0.8943 -0.5080
10737SOL    HW233454   4.841   6.906   5.852  2.7429  0.2570  0.6370
10738SOL     OW33455   7.405   5.889   5.629  0.4404 -0.1878  0.5130
10738SOL    HW133456   7.396   5.867   5.722 -2.3020 -1.5106  0.0008
10738SOL    HW233457   7.386   5.807   5.584 -1.0480  1.0833 -1.2600
10739SOL     OW33458   4.767   0.694   8.144  0.5140 -0.3670  0.1602
10739SOL    HW133459   4.698   0.758   8.127  1.3426  0.4814 -0.0762
10739SOL    HW233460   4.721   0.614   8.167 -0.5468  0.1877 -0.0128
10740SOL     OW33461   5.275   1.894   2.636 -0.1673  0.1511  0.0029
10740SOL    HW133462   5.271   1.800   2.649  1.1932  0.1757  0.6570
10740SOL    HW233463   5.205   1.929   2.692 -0.6371 -0.4568 -0.2015
10741SOL     OW33464   5.091   1.786   5.946  0.2600  0.0137  0.2574
10741SOL    HW133465   5.122   1.851   5.883  2.3165 -0.9874  0.1893
10741SOL    HW233466   5.039   1.725   5.893 -0.4223  0.7681  0.0559
10742SOL     OW33467   4.492   2.037   5.320  0.1240 -0.3750 -0.3263
10742SOL    HW133468   4.414   1.990   5.291  0.9478 -0.5738 -2.3002
10742SOL    HW233469   4.481   2.126   5.287 -0.0787  0.0709  0.9101
10743SOL     OW33470   4.908   0.844   2.738 -0.6387 -0.2838  0.4138
10743SOL    HW133471   4.852   0.907   2.693  0.1238  0.3053  0.2782
10743SOL    HW233472   4.946   0.791   2.667 -0.5284 -0.2578  0.4519
10744SOL     OW33473   0.993   5.765   3.090  0.1975  0.0726  0.2031
10744SOL    HW133474   1.007   5.780   2.996  0.1719 -1.0869 -0.0006
10744SOL    HW233475   0.920   5.823   3.112  0.8588  1.0947 -0.2648
10745SOL     OW33476   0.986   3.975   8.231 -0.0254  0.5262  0.2106
10745SOL    HW133477   1.041   3.941   8.160 -3.3731  2.5663 -3.5478
10745SOL    HW233478   0.930   3.901   8.255  1.6669 -0.4170  1.4418
10746SOL     OW33479   7.054   3.349   1.072  0.6000 -0.3690  0.2672
10746SOL    HW133480   7.055   3.299   0.991  1.9116 -2.0699  1.2883
10746SOL    HW233481   7.139   3.392   1.075  1.9652 -3.0438  2.3217
10747SOL     OW33482   0.323   7.082   4.347 -0.0343 -0.0855 -0.0719
10747SOL    HW133483   0.262   7.136   4.298 -0.8831  0.9494  2.0267
10747SOL    HW233484   0.268   7.018   4.393  0.7486 -1.1996 -0.6576
10748SOL     OW33485   6.013   3.855   1.868 -0.0277 -0.2569 -0.6234
10748SOL    HW133486   5.989   3.929   1.923  2.4265 -1.4424  2.1396
10748SOL    HW233487   5.930   3.812   1.848 -1.2304  1.8966 -0.3799
10749SOL     OW33488   4.836   0.330   4.023 -0.2332  0.1187 -0.4608
10749SOL    HW133489   4.807   0.379   4.100  0.4406 -1.3706  0.7528
10749SOL    HW233490   4.781   0.252   4.022  0.8027 -0.6194 -0.5949
10750SOL     OW33491   4.519   5.374   6.341 -0.4680 -0.4444  0.4262
10750SOL    HW133492   4.506   5.304   6.406 -0.8994 -1.2753 -0.5454
10750SOL    HW233493   4.603   5.353   6.300  0.3550  0.7025  1.4521
10751SOL     OW33494   2.131   1.429   5.985 -0.2011 -1.2802 -0.6186
10751SOL    HW133495   2.069   1.479   6.038  0.1397 -1.5558  0.0493
10751SOL    HW233496   2.085   1.348   5.964 -1.0552 -0.3655 -2.3805
10752SOL     OW33497   5.831   2.472   7.837  0.3714  0.2986  0.5695
10752SOL    HW133498   5.840   2.386   7.797 -0.0532  0.0483  1.0050
10752SOL    HW233499   5.786   2.455   7.920  1.3177  0.8025  1.1851
10753SOL     OW33500   1.844   5.033   6.978  0.3218 -0.5135  0.0776
10753SOL    HW133501   1.844   5.111   6.922 -0.3924 -0.1244  0.5978
10753SOL    HW233502   1.885   4.965   6.926 -1.8998 -0.6175 -1.5697
10754SOL     OW33503   1.612   8.200   6.278  0.0505 -0.5505 -0.8387
10754SOL    HW133504   1.582   8.119   6.237  0.2383  0.0958 -2.2735
10754SOL    HW233505   1.563   8.269   6.234 -2.0152 -0.0012  2.1011
10755SOL     OW33506   0.387   1.637   0.397 -0.0065 -0.4296  0.2377
10755SOL    HW133507   0.363   1.546   0.383  1.5904 -0.7565 -0.5131
10755SOL    HW233508   0.393   1.646   0.492 -0.1519 -1.1032  0.3144
10756SOL     OW33509   4.363   5.620   0.147  0.1818  0.6685  0.1389
10756SOL    HW133510   4.380   5.698   0.096  0.7342 -1.7849 -3.6008
10756SOL    HW233511   4.449   5.592   0.178 -0.2665  2.8030  3.6135
10757SOL     OW33512   1.641   7.193   6.334 -0.5239 -0.1929 -0.4330
10757SOL    HW133513   1.603   7.167   6.250 -0.6072 -1.4295 -0.0299
10757SOL    HW233514   1.582   7.155   6.400  0.2024 -0.2593  0.1857
10758SOL     OW33515   2.856   5.947   1.204 -0.4665  0.0879 -0.3476
10758SOL    HW133516   2.918   5.939   1.277  0.2338  1.7342 -0.7215
10758SOL    HW233517   2.855   5.861   1.163 -0.6138 -0.7682  1.4048
10759SOL     OW33518   6.278   3.419   0.624  0.2825 -0.0957 -0.3573
10759SOL    HW133519   6.311   3.373   0.546  1.2469 -0.8267  0.4635
10759SOL    HW233520   6.357   3.452   0.667 -0.0412 -1.6356  1.4890
10760SOL     OW33521   2.344   6.460   5.081  0.0828  0.1423 -0.4250
10760SOL    HW133522   2.392   6.508   5.014  2.1304 -1.3185 -0.0568
10760SOL    HW233523   2.284   6.525   5.118  1.8576  2.0820 -0.8203
10761SOL     OW33524   4.417   3.234   7.470 -0.2412  0.6216  0.3492
10761SOL    HW133525   4.497   3.188   7.496 -1.7872 -0.7605  2.8985
10761SOL    HW233526   4.362   3.166   7.431 -1.3407  0.9055  1.3601
10762SOL     OW33527   5.721   1.760   2.542  0.1263  0.3998 -0.4252
10762SOL    HW133528   5.648   1.714   2.582  0.0318 -0.0846 -1.1437
10762SOL    HW233529   5.691   1.850   2.532  0.3762  0.6729  1.1510
10763SOL     OW33530   2.737   2.677   2.879 -0.2920 -0.3144 -0.0890
10763SOL    HW133531   2.723   2.583   2.893  1.1900 -0.7060 -1.1925
10763SOL    HW233532   2.817   2.697   2.928  0.4229 -0.0176 -1.3657
10764SOL     OW33533   0.452   3.377   5.169 -0.6259  0.4360  0.7805
10764SOL    HW133534   0.503   3.421   5.237 -0.7900  1.3812  0.2876
10764SOL    HW233535   0.428   3.293   5.208  0.1090  0.5731  1.5349
10765SOL     OW33536   2.766   3.332   0.905 -0.0837 -0.8628  0.2795
10765SOL    HW133537   2.827   3.397   0.942  0.8304 -0.9508 -1.0292
10765SOL    HW233538   2.808   3.305   0.823 -1.3917 -1.7045 -0.1136
10766SOL     OW33539   6.708   8.238   6.646 -0.1528 -0.3715  0.5999
10766SOL    HW133540   6.695   8.152   6.688 -1.0363 -0.7104 -0.3568
10766SOL    HW233541   6.694   8.301   6.716 -0.6341 -0.9713  1.0451
10767SOL     OW33542   0.463   3.009   4.011  0.0925 -0.2394 -0.3833
10767SOL    HW133543   0.412   3.066   4.068 -0.2655  0.7085 -1.6338
10767SOL    HW233544   0.441   2.920   4.040 -1.0376  0.2039  0.1424
10768SOL     OW33545   6.545   4.631   3.944 -0.0578  0.0890  0.2564
10768SOL    HW133546   6.503   4.694   3.885  2.0279  0.2573 -1.0997
10768SOL    HW233547   6.528   4.546   3.904  0.3925  0.1107  0.0177
10769SOL     OW33548   1.002   4.706   5.007 -0.1084 -0.0973  0.2060
10769SOL    HW133549   0.945   4.778   4.979 -1.6868 -1.2202  0.4978
10769SOL    HW233550   1.089   4.744   5.008 -0.6146  1.2247 -1.8496
10770SOL     OW33551   2.097   3.678   7.501 -0.1953  0.0987 -0.4450
10770SOL    HW133552   2.045   3.654   7.424  0.8389 -1.2017 -0.7747
10770SOL    HW233553   2.120   3.594   7.541  0.7638  0.6897  0.2708
10771SOL     OW33554   3.859   2.571   3.239 -0.7551 -0.2694  0.4586
10771SOL    HW133555   3.928   2.638   3.238 -0.8894 -0.1213  1.1772
10771SOL    HW233556   3.792   2.607   3.298 -0.4874 -1.3879  1.4428
10772SOL     OW33557   6.374   1.397   6.780  0.0764 -0.1811  0.0182
10772SOL    HW133558   6.286   1.399   6.816  0.7382 -0.4553  1.6669
10772SOL    HW233559   6.417   1.323   6.822  1.2397  0.2148 -0.4305
10773SOL     OW33560   7.425   6.289   0.917  0.4767  0.0882  0.3521
10773SOL    HW133561   7.421   6.274   0.822  0.6856  1.0633  0.1835
10773SOL    HW233562   7.450   6.381   0.926 -0.6858  0.3226  1.3577
10774SOL     OW33563   5.734   5.751   2.269  0.2929  0.0983 -0.3407
10774SOL    HW133564   5.749   5.808   2.193 -0.3383  0.3387 -0.2936
10774SOL    HW233565   5.783   5.791   2.340  1.3416 -0.4358 -0.7578
10775SOL     OW33566   1.122   6.455   1.750  0.7132 -0.4892 -0.1695
10775SOL    HW133567   1.060   6.501   1.807  0.2977  0.1048 -1.0954
10775SOL    HW233568   1.071   6.430   1.673  0.9348 -2.5072  0.3072
10776SOL     OW33569   6.258   2.336   5.177  0.1263  0.3283 -0.0023
10776SOL    HW133570   6.345   2.315   5.143 -0.7993 -1.5741 -1.3200
10776SOL    HW233571   6.244   2.427   5.153  0.7695 -0.0750 -2.0385
10777SOL     OW33572   6.081   0.369   2.442 -0.3457  0.3107 -0.1685
10777SOL    HW133573   5.997   0.404   2.413 -0.7413  1.4750  2.2331
10777SOL    HW233574   6.137   0.446   2.451  0.8163 -0.4027 -1.2107
10778SOL     OW33575   8.277   3.540   7.863 -0.5875  0.2599 -0.0820
10778SOL    HW133576   8.255   3.632   7.845 -2.5125 -0.3940 -1.1306
10778SOL    HW233577   8.268   3.496   7.779 -0.2909 -1.0307  0.5463
10779SOL     OW33578   6.628   6.297   7.951 -0.6177 -0.1940 -0.2373
10779SOL    HW133579   6.615   6.348   8.031 -2.6991  0.1841 -0.7979
10779SOL    HW233580   6.649   6.362   7.885  3.0602 -0.6764  0.3667
10780SOL     OW33581   2.319   0.452   3.944  0.1742  0.1509 -0.5891
10780SOL    HW133582   2.367   0.504   3.879 -0.4731 -0.8670 -1.9139
10780SOL    HW233583   2.380   0.443   4.017  1.5286 -0.0546 -1.7202
10781SOL     OW33584   6.334   2.359   5.986 -0.3245 -0.2384  0.3058
10781SOL    HW133585   6.391   2.421   6.030 -1.1960  1.0186 -0.3064
10781SOL    HW233586   6.245   2.385   6.013 -0.6764 -1.4974  0.4048
10782SOL     OW33587   1.184   6.376   7.835  0.0713 -0.1485  0.5717
10782SOL    HW133588   1.183   6.467   7.807  2.0049 -0.3847 -0.3553
10782SOL    HW233589   1.092   6.352   7.842 -0.4711  1.0311 -1.9404
10783SOL     OW33590   2.572   5.076   1.827  0.3158  0.4223 -0.6174
10783SOL    HW133591   2.575   4.981   1.826  2.7032  0.4685 -1.0300
10783SOL    HW233592   2.502   5.097   1.889 -1.5543 -1.5777 -2.0195
10784SOL     OW33593   5.474   2.401   4.707 -0.5195  0.1458  0.0357
10784SOL    HW133594   5.506   2.311   4.718 -0.4491  0.0464 -0.9386
10784SOL    HW233595   5.433   2.422   4.791 -0.0186 -0.5875  0.4700
10785SOL     OW33596   5.639   7.990   1.033 -0.0730  0.5280 -0.1744
10785SOL    HW133597   5.696   8.052   0.988 -0.0438  0.4330 -0.2661
10785SOL    HW233598   5.695   7.951   1.101  0.2518 -0.2912 -0.9042
10786SOL     OW33599   5.192   5.138   0.953 -0.1909 -0.0647  0.0715
10786SOL    HW133600   5.140   5.101   1.024  1.2700  0.7356  1.6042
10786SOL    HW233601   5.132   5.197   0.908 -1.3963 -1.2837  0.0682
10787SOL     OW33602   7.757   5.964   4.354  0.4038 -0.1532 -0.5846
10787SOL    HW133603   7.787   6.050   4.323  0.0021 -0.8219 -2.9085
10787SOL    HW233604   7.744   5.913   4.274  2.0216 -2.8644  0.8354
10788SOL     OW33605   5.313   0.391   2.517  0.4516  0.1055 -0.4407
10788SOL    HW133606   5.323   0.451   2.443 -2.5885  0.5376 -0.5573
10788SOL    HW233607   5.367   0.428   2.586  1.8129  0.7383 -1.8117
10789SOL     OW33608   5.736   6.523   4.413 -0.4416  0.1472 -0.1823
10789SOL    HW133609   5.685   6.447   4.441  0.5565 -0.9128 -1.1578
10789SOL    HW233610   5.708   6.594   4.470  0.8520 -1.6858  2.8675
10790SOL     OW33611   4.647   0.526   7.503 -0.2299  0.1912  0.0588
10790SOL    HW133612   4.566   0.523   7.450  0.7284  2.4814 -1.6377
10790SOL    HW233613   4.717   0.523   7.438  0.9904  2.8962  1.1732
10791SOL     OW33614   5.211   4.363   0.604  0.2326  0.2177 -0.6374
10791SOL    HW133615   5.131   4.407   0.631 -0.3343 -1.5392  0.6638
10791SOL    HW233616   5.194   4.336   0.513 -0.7083 -0.2496 -0.3322
10792SOL     OW33617   2.232   1.362   2.854 -0.2127 -0.1785 -0.2911
10792SOL    HW133618   2.323   1.366   2.883 -0.4399  1.2041  0.2536
10792SOL    HW233619   2.210   1.452   2.830 -1.7046 -0.3339  0.4434
10793SOL     OW33620   5.315   6.558   1.067  0.0976  0.0181  0.1495
10793SOL    HW133621   5.313   6.649   1.096  0.4532  0.1289 -0.1685
10793SOL    HW233622   5.325   6.508   1.148  0.7188  0.3078  0.2555
10794SOL     OW33623   6.819   2.868   7.699  0.4811 -0.0612  0.0338
10794SOL    HW133624   6.815   2.799   7.766 -1.0079 -0.4683 -0.4465
10794SOL    HW233625   6.750   2.929   7.724 -0.0116 -0.1603 -1.0689
10795SOL     OW33626   6.555   1.484   7.478  0.4826  0.6177  0.1416
10795SOL    HW133627   6.479   1.426   7.472 -0.4104  1.9528 -1.9153
10795SOL    HW233628   6.598   1.458   7.560 -0.4240 -2.2672 -0.2436
10796SOL     OW33629   4.600   6.227   0.747  0.0746  0.2523  0.3175
10796SOL    HW133630   4.593   6.171   0.670 -0.1827  0.1372  0.4252
10796SOL    HW233631   4.533   6.194   0.808  0.5803  0.0564  0.7702
10797SOL     OW33632   0.546   3.023   0.324  0.2752 -0.4218 -0.2259
10797SOL    HW133633   0.621   2.975   0.361  1.4629  1.1899 -0.4842
10797SOL    HW233634   0.470   2.972   0.350  1.3246 -1.1022  1.6448
10798SOL     OW33635   3.565   4.398   3.504 -0.0184  0.4882  0.2658
10798SOL    HW133636   3.521   4.462   3.560  1.5651  0.5354  1.5103
10798SOL    HW233637   3.639   4.368   3.557 -0.0449 -1.4868 -0.7702
10799SOL     OW33638   6.676   0.898   2.368  0.4305 -0.4162 -0.7593
10799SOL    HW133639   6.685   0.907   2.463  0.7452 -1.5665 -0.6766
10799SOL    HW233640   6.701   0.808   2.350  1.0605  0.0043 -2.0238
10800SOL     OW33641   3.462   4.064   3.493 -0.2640  0.3146 -0.8090
10800SOL    HW133642   3.498   4.150   3.515  1.8207 -0.6483 -0.2504
10800SOL    HW233643   3.482   4.053   3.400  0.0185  0.1903 -0.7346
10801SOL     OW33644   8.001   2.074   8.303 -0.2023 -0.1189  0.4541
10801SOL    HW133645   8.032   2.059   8.214 -2.6486  2.1541 -0.8417
10801SOL    HW233646   7.948   1.997   8.323  0.2144 -0.5616 -0.1347
10802SOL     OW33647   3.301   5.819   0.959  0.1131 -0.6790 -0.4695
10802SOL    HW133648   3.370   5.785   1.016 -1.2636 -0.9371  1.0511
10802SOL    HW233649   3.302   5.913   0.972  0.5908 -0.6125 -0.9406
10803SOL     OW33650   5.770   1.853   4.157 -0.7650  0.7447 -0.7399
10803SOL    HW133651   5.860   1.821   4.151 -0.8936  0.3403 -0.4613
10803SOL    HW233652   5.732   1.834   4.071  0.0421  2.8016 -1.5984
10804SOL     OW33653   6.078   2.677   6.137 -0.1182 -0.2282 -0.9917
10804SOL    HW133654   6.075   2.583   6.153 -2.0402 -0.1357 -0.7041
10804SOL    HW233655   6.159   2.707   6.179 -0.1220 -1.5546 -0.0280
10805SOL     OW33656   5.927   7.243   4.830 -0.3751 -0.2158 -0.5737
10805SOL    HW133657   5.879   7.320   4.801 -1.6148 -0.9076 -0.3715
10805SOL    HW233658   5.980   7.274   4.903 -0.2723  0.6175 -0.9976
10806SOL     OW33659   1.501   8.241   1.423 -0.2221 -0.3300 -0.7114
10806SOL    HW133660   1.538   8.153   1.428  0.6242 -0.0046 -1.1379
10806SOL    HW233661   1.577   8.298   1.415 -0.6184  0.6464  1.8329
10807SOL     OW33662   5.754   8.138   7.461  0.4381  0.0135  0.3409
10807SOL    HW133663   5.837   8.177   7.434  1.1771 -0.3657  1.9861
10807SOL    HW233664   5.753   8.053   7.419  1.4881 -0.4980  1.3217
10808SOL     OW33665   5.960   6.435   7.186  0.1441  0.0646  0.3672
10808SOL    HW133666   5.958   6.510   7.126 -0.6652  0.5770  1.0220
10808SOL    HW233667   6.051   6.405   7.184  0.2876  0.5431 -0.5391
10809SOL     OW33668   0.042   2.188   6.568 -0.8194  0.1157  0.0687
10809SOL    HW133669   0.103   2.185   6.495 -0.2335  1.0151  0.5187
10809SOL    HW233670  -0.001   2.273   6.560 -1.5726 -0.2509  0.1214
10810SOL     OW33671   7.278   5.516   4.133  0.0633  0.0780  0.8977
10810SOL    HW133672   7.343   5.543   4.068  0.8590  1.0816  2.1031
10810SOL    HW233673   7.199   5.500   4.082  0.9267 -0.0480 -0.4405
10811SOL     OW33674   5.609   1.696   5.057  0.0473 -0.4991  0.0633
10811SOL    HW133675   5.682   1.750   5.087 -1.9465  1.9636  0.6717
10811SOL    HW233676   5.565   1.669   5.138 -1.0589 -0.0102 -0.3682
10812SOL     OW33677   1.383   1.174   4.902 -0.4174  0.1643 -0.0663
10812SOL    HW133678   1.420   1.183   4.990 -1.6721  0.7216  0.4109
10812SOL    HW233679   1.452   1.131   4.852 -0.6599 -2.6187  1.8541
10813SOL     OW33680   2.917   5.573   0.055  0.1531  0.4114  0.1134
10813SOL    HW133681   2.861   5.506   0.014  0.7167 -0.0412  0.0832
10813SOL    HW233682   2.865   5.607   0.128 -0.4284  0.4592 -0.3187
10814SOL     OW33683   3.023   1.881   5.681 -0.0526 -0.0661 -0.2561
10814SOL    HW133684   3.095   1.894   5.742  0.5070 -0.0019 -0.9270
10814SOL    HW233685   3.065   1.869   5.596 -0.7335 -2.5182 -0.2650
10815SOL     OW33686   6.717   1.558   0.624 -0.1944 -0.2965  0.4204
10815SOL    HW133687   6.684   1.555   0.534  0.8273  2.2866 -0.0686
10815SOL    HW233688   6.639   1.543   0.678 -1.5238  1.8374 -0.8190
10816SOL     OW33689   4.077   5.737   2.726 -0.4461 -0.8138  0.3487
10816SOL    HW133690   4.033   5.657   2.752  1.4838 -1.5677  1.4132
10816SOL    HW233691   4.122   5.715   2.644  1.3777 -1.3158  1.4606
10817SOL     OW33692   5.970   3.978   6.653  0.6003  0.2570 -0.1465
10817SOL    HW133693   6.040   4.031   6.692 -0.3912  1.2830  0.2754
10817SOL    HW233694   5.986   3.983   6.559 -0.1859  2.3549 -0.1999
10818SOL     OW33695   4.317   1.974   7.860 -0.3998 -0.3217  0.3788
10818SOL    HW133696   4.411   1.989   7.851 -0.2018 -2.2659 -1.1203
10818SOL    HW233697   4.276   2.040   7.804  0.2203 -1.5587 -1.5710
10819SOL     OW33698   2.520   2.638   0.166  1.0352 -0.2944  0.1574
10819SOL    HW133699   2.600   2.686   0.146  0.9302  0.1936  0.9029
10819SOL    HW233700   2.549   2.548   0.183  1.1415 -0.7198 -2.0753
10820SOL     OW33701   3.698   8.142   6.956  0.0056 -0.2890  0.2256
10820SOL    HW133702   3.732   8.060   6.919  1.5715  0.4743 -0.0578
10820SOL    HW233703   3.752   8.156   7.034 -0.2482  0.5003  0.2566
10821SOL     OW33704   2.857   5.754   5.148  0.3303  0.4431  0.0120
10821SOL    HW133705   2.819   5.830   5.192 -0.8446  1.5852 -2.8423
10821SOL    HW233706   2.798   5.682   5.169 -0.5399  1.1049 -0.1280
10822SOL     OW33707   5.446   6.458   7.715 -0.1070  0.0374 -0.2884
10822SOL    HW133708   5.445   6.363   7.708  1.5072 -0.0425  0.1447
10822SOL    HW233709   5.489   6.475   7.799  0.6870  1.1489 -0.8948
10823SOL     OW33710   7.879   1.049   5.971  1.1098  0.0686  0.3456
10823SOL    HW133711   7.872   0.992   6.048 -0.0371 -1.1806 -0.6522
10823SOL    HW233712   7.873   1.138   6.006  1.3148 -0.4601  1.7674
10824SOL     OW33713   3.130   2.654   7.066  0.3779  0.2561 -0.0024
10824SOL    HW133714   3.171   2.698   6.992 -1.6020  1.1654 -0.6013
10824SOL    HW233715   3.060   2.714   7.093  0.7329 -0.3232  2.2481
10825SOL     OW33716   5.456   4.842   5.690 -0.5961  0.6083 -0.3707
10825SOL    HW133717   5.472   4.937   5.687  2.0033  0.1932 -0.5781
10825SOL    HW233718   5.517   4.809   5.756 -1.9254 -0.8674  0.1609
10826SOL     OW33719   6.350   5.375   7.695 -0.1100  0.0101 -0.0184
10826SOL    HW133720   6.393   5.369   7.780  0.2382  0.3967 -0.1691
10826SOL    HW233721   6.338   5.469   7.680 -0.5231 -0.0722 -0.2165
10827SOL     OW33722   2.443   8.246   0.685  0.3791  0.7767  0.0652
10827SOL    HW133723   2.517   8.263   0.743 -0.1424 -1.8177  1.5285
10827SOL    HW233724   2.477   8.267   0.597  2.5038  0.6140  0.8089
10828SOL     OW33725   1.028   6.154   3.282 -0.5666 -0.5076  0.0993
10828SOL    HW133726   1.066   6.208   3.213  0.4844 -0.3105  0.8162
10828SOL    HW233727   1.074   6.070   3.275  0.8845  0.1165  1.7178
10829SOL     OW33728   1.610   4.648   6.822  0.7704  0.0280 -0.6967
10829SOL    HW133729   1.677   4.636   6.755  0.8527 -3.1522 -0.1574
10829SOL    HW233730   1.564   4.564   6.826  0.7360  0.1023  3.1294
10830SOL     OW33731   3.322   6.755   0.760 -0.2300  0.0946  0.5484
10830SOL    HW133732   3.358   6.830   0.809  0.3041  1.1446 -1.3918
10830SOL    HW233733   3.300   6.791   0.674 -1.1927 -1.7056  0.0200
10831SOL     OW33734   7.036   2.487   0.668 -0.4698  0.1425  0.0627
10831SOL    HW133735   7.060   2.573   0.634 -1.3059  0.0398 -0.8268
10831SOL    HW233736   7.026   2.432   0.590  1.5996 -1.1828  0.7021
10832SOL     OW33737   6.536   5.711   6.300 -0.4021 -0.0533  0.3495
10832SOL    HW133738   6.474   5.775   6.264 -1.8629 -1.9069 -0.5362
10832SOL    HW233739   6.600   5.698   6.229  0.6196  1.3159  0.9935
10833SOL     OW33740   4.508   1.499   7.327 -0.1112 -0.1956  0.0709
10833SOL    HW133741   4.461   1.419   7.304  1.4970 -0.9549 -0.6831
10833SOL    HW233742   4.560   1.475   7.404  2.1392 -0.6067 -1.5097
10834SOL     OW33743   3.998   5.199   3.260  0.3134  0.1116  0.2634
10834SOL    HW133744   4.080   5.185   3.307 -0.5710 -2.5567  1.1234
10834SOL    HW233745   4.026   5.222   3.171  1.9955 -0.2604  0.6646
10835SOL     OW33746   0.521   5.431   8.185  0.1414  0.6329 -0.5812
10835SOL    HW133747   0.543   5.367   8.253 -0.3859 -0.4888 -1.4527
10835SOL    HW233748   0.554   5.514   8.219 -0.1126  0.0894  1.0437
10836SOL     OW33749   5.339   3.325   5.277  0.5561  0.3506 -0.2250
10836SOL    HW133750   5.291   3.253   5.237  1.5091 -0.9336  0.8974
10836SOL    HW233751   5.338   3.305   5.371  0.7299  1.8705  0.1200
10837SOL     OW33752   6.947   5.370   2.352 -0.4470 -0.3095  0.5988
10837SOL    HW133753   7.042   5.382   2.349 -0.5373  0.2493 -0.0951
10837SOL    HW233754   6.936   5.287   2.400  0.3893 -0.4530  0.5671
10838SOL     OW33755   7.604   6.731   6.579 -0.2979  0.7233 -0.5365
10838SOL    HW133756   7.663   6.806   6.572  0.7877 -0.0875 -0.2183
10838SOL    HW233757   7.653   6.659   6.542 -1.0528  0.0132 -0.1649
10839SOL     OW33758   1.723   4.933   2.512 -0.7500 -0.1622  0.2039
10839SOL    HW133759   1.691   4.947   2.423  1.1385 -0.6010 -0.5655
10839SOL    HW233760   1.706   5.016   2.557  2.0105  1.5263 -1.7270
10840SOL     OW33761   6.443   4.469   6.320 -0.0643  0.5213  0.0079
10840SOL    HW133762   6.404   4.510   6.243  0.9357  1.4077 -0.0313
10840SOL    HW233763   6.421   4.376   6.311 -0.9135  0.7842 -0.7605
10841SOL     OW33764   6.170   2.131   4.641  0.2075  0.4137  0.3583
10841SOL    HW133765   6.108   2.079   4.590  2.3457 -2.0693  0.2484
10841SOL    HW233766   6.142   2.119   4.732 -0.7097  1.0215  0.1743
10842SOL     OW33767   0.089   4.610   2.707 -0.0629 -0.0532  0.0813
10842SOL    HW133768   0.123   4.618   2.619 -2.0640 -1.9347 -0.9163
10842SOL    HW233769  -0.001   4.643   2.701 -0.7709 -1.7252  0.9943
10843SOL     OW33770   3.890   4.513   4.887 -0.2926  0.7204  0.2617
10843SOL    HW133771   3.795   4.509   4.872  0.3083 -0.6426 -3.7990
10843SOL    HW233772   3.922   4.572   4.819  2.0060 -0.4379  0.2923
10844SOL     OW33773   2.118   6.831   5.882 -0.0821  0.3024  0.3034
10844SOL    HW133774   2.058   6.851   5.810  0.5382 -0.5390 -0.4576
10844SOL    HW233775   2.205   6.842   5.845  0.2463 -0.7446  0.7311
10845SOL     OW33776   1.798   4.784   6.575  0.2917  0.1335  0.4442
10845SOL    HW133777   1.752   4.727   6.513  0.0727  0.4498  0.3161
10845SOL    HW233778   1.790   4.872   6.537  0.1200  0.3325  0.9433
10846SOL     OW33779   0.088   5.067   4.158 -0.3979 -0.1712 -0.1305
10846SOL    HW133780   0.171   5.027   4.132  0.2343  0.9668  0.0796
10846SOL    HW233781   0.035   4.994   4.190  0.4938 -0.9251 -0.3459
10847SOL     OW33782   4.922   2.167   2.496 -0.1643 -0.1263  0.3673
10847SOL    HW133783   4.943   2.145   2.587 -0.2265 -0.9885  0.1714
10847SOL    HW233784   4.982   2.114   2.444 -0.1274  0.3685 -0.0975
10848SOL     OW33785   4.787   7.758   8.218  0.1657 -0.7479  0.0593
10848SOL    HW133786   4.744   7.810   8.286  1.7605  2.1340 -1.0488
10848SOL    HW233787   4.736   7.773   8.139  0.9769 -0.3754 -0.4017
10849SOL     OW33788   2.019   5.572   2.630  0.5797 -0.1868 -0.1935
10849SOL    HW133789   2.109   5.573   2.596  0.9229 -0.0647  0.6864
10849SOL    HW233790   1.998   5.664   2.646  0.0039 -0.1534 -1.1490
10850SOL     OW33791   3.537   5.869   3.182 -0.3145  0.2890  0.4820
10850SOL    HW133792   3.569   5.955   3.155  0.0186  0.5264  1.5800
10850SOL    HW233793   3.459   5.888   3.234 -0.5813 -0.1122  0.2322
10851SOL     OW33794   4.010   6.602   2.739  0.0618 -0.3634  0.3997
10851SOL    HW133795   4.056   6.523   2.768  0.2876 -0.3844 -0.0019
10851SOL    HW233796   3.918   6.575   2.734  0.0813 -0.4802  0.6711
10852SOL     OW33797   7.258   2.041   2.059 -0.7015 -0.4963 -0.4050
10852SOL    HW133798   7.286   2.077   1.975  0.6418  0.4204  0.4294
10852SOL    HW233799   7.216   2.114   2.104  1.1704 -0.1981  0.8982
10853SOL     OW33800   8.179   2.850   7.691  0.6971 -0.1188 -0.4171
10853SOL    HW133801   8.181   2.904   7.611  0.7615 -0.9079 -0.9538
10853SOL    HW233802   8.159   2.762   7.660  0.5570 -0.4016  0.4641
10854SOL     OW33803   0.793   1.520   3.874  0.6333 -0.0266 -0.7528
10854SOL    HW133804   0.837   1.588   3.924 -0.2606 -1.7172  2.4585
10854SOL    HW233805   0.701   1.546   3.874  0.3090 -1.1193  0.3741
10855SOL     OW33806   6.176   7.765   6.611  0.2151 -0.7786  0.3048
10855SOL    HW133807   6.156   7.842   6.664 -0.8161 -0.8747  0.0641
10855SOL    HW233808   6.138   7.784   6.525  0.9727 -1.0632 -0.1044
10856SOL     OW33809   3.011   3.531   0.649 -0.0505  0.4049  0.5871
10856SOL    HW133810   2.999   3.437   0.664 -0.3332  0.2260 -0.7041
10856SOL    HW233811   3.011   3.540   0.554 -0.9140  1.8273  0.7109
10857SOL     OW33812   6.804   2.222   5.529  0.0457  0.0167 -0.8615
10857SOL    HW133813   6.815   2.193   5.620 -1.3241 -0.4455 -0.8233
10857SOL    HW233814   6.860   2.299   5.522 -0.6870  0.7349  0.7165
10858SOL     OW33815   1.291   6.984   3.718 -0.5641  0.1805 -0.1041
10858SOL    HW133816   1.225   7.022   3.776  0.1225  0.0525  0.7800
10858SOL    HW233817   1.245   6.914   3.672 -1.0511  0.0994  0.4954
10859SOL     OW33818   0.460   3.241   7.796 -0.4049  0.1678  0.3175
10859SOL    HW133819   0.465   3.157   7.750  1.5068  0.2062  0.4111
10859SOL    HW233820   0.370   3.270   7.783 -0.4718 -0.8254 -1.6208
10860SOL     OW33821   8.218   5.396   0.836 -0.2027  0.2390 -0.0774
10860SOL    HW133822   8.195   5.363   0.923  1.2373 -0.3733  0.0874
10860SOL    HW233823   8.270   5.326   0.797 -0.5864  0.6382 -1.3195
10861SOL     OW33824   1.161   7.301   0.711 -0.1223 -0.6022  0.2410
10861SOL    HW133825   1.105   7.326   0.784  2.1065 -0.9836  2.1238
10861SOL    HW233826   1.243   7.348   0.726  0.8481 -1.7585 -1.2636
10862SOL     OW33827   1.787   5.557   5.689 -0.0205 -0.2453  0.0728
10862SOL    HW133828   1.877   5.527   5.703 -0.8079 -1.6286  2.5769
10862SOL    HW233829   1.748   5.555   5.776 -2.4099  0.5887 -0.9457
10863SOL     OW33830   1.042   6.221   2.504  0.2785  0.0995 -0.1165
10863SOL    HW133831   1.051   6.227   2.409  0.8313  0.6873 -0.0357
10863SOL    HW233832   0.948   6.215   2.519  0.1305  0.9691 -0.6534
10864SOL     OW33833   7.531   7.809   5.402  0.7020  0.2011 -0.4529
10864SOL    HW133834   7.488   7.828   5.486  3.2479  1.4813  0.5957
10864SOL    HW233835   7.547   7.714   5.405 -0.3469  0.0249 -0.0555
10865SOL     OW33836   4.256   5.303   2.595 -0.3118 -0.5680 -0.4364
10865SOL    HW133837   4.323   5.240   2.568 -0.1956  0.0954 -1.7304
10865SOL    HW233838   4.245   5.287   2.689 -0.6064 -2.7933 -0.8242
10866SOL     OW33839   7.197   6.397   2.032 -0.1009 -0.1399  0.1604
10866SOL    HW133840   7.292   6.388   2.033 -0.1469 -1.1949 -2.5692
10866SOL    HW233841   7.182   6.492   2.034  0.9169  0.0158  2.5719
10867SOL     OW33842   6.154   0.435   1.705  0.3809 -0.3832 -0.2208
10867SOL    HW133843   6.147   0.387   1.788  0.7572  0.2396  0.1710
10867SOL    HW233844   6.151   0.527   1.730 -0.6909 -0.1899 -1.0058
10868SOL     OW33845   4.843   2.635   7.612 -0.2971 -0.6435 -0.1572
10868SOL    HW133846   4.832   2.591   7.528  0.6955  0.2077 -0.7579
10868SOL    HW233847   4.782   2.591   7.671 -0.4221 -1.7900 -1.1183
10869SOL     OW33848   4.760   6.125   5.923 -0.1259  0.2662 -0.6511
10869SOL    HW133849   4.756   6.208   5.971 -0.1289 -0.5127  0.7242
10869SOL    HW233850   4.815   6.144   5.846 -0.2618  1.5769 -0.4320
10870SOL     OW33851   7.035   5.054   7.756  0.2734  0.4849  0.0423
10870SOL    HW133852   6.997   5.049   7.843  1.7979 -0.6431  0.6802
10870SOL    HW233853   7.112   5.110   7.766 -0.7732  2.1742 -1.0757
10871SOL     OW33854   6.145   1.404   5.159 -0.6578  0.1604  0.3549
10871SOL    HW133855   6.104   1.339   5.101 -1.3692  0.5377  0.4213
10871SOL    HW233856   6.218   1.439   5.109 -1.4231  0.6696 -0.4127
10872SOL     OW33857   0.150   0.538   6.980 -0.0484  0.3700  0.2978
10872SOL    HW133858   0.241   0.510   6.992  0.2278  1.3690  0.6343
10872SOL    HW233859   0.122   0.497   6.898  0.2532 -1.0579  0.8962
10873SOL     OW33860   6.126   2.883   0.290 -0.4374  0.3712  0.1542
10873SOL    HW133861   6.048   2.899   0.342 -0.0096  1.3050  0.5065
10873SOL    HW233862   6.092   2.858   0.204 -1.1277  0.0370  0.5202
10874SOL     OW33863   5.400   1.573   6.997 -0.1312 -0.1443  0.4320
10874SOL    HW133864   5.477   1.535   7.038 -0.1382  1.0822  1.6175
10874SOL    HW233865   5.425   1.664   6.977 -0.1205 -0.7107 -2.3026
10875SOL     OW33866   4.152   1.608   5.218  0.6252 -0.6561 -0.1142
10875SOL    HW133867   4.245   1.628   5.220  0.2526  1.2578 -0.7886
10875SOL    HW233868   4.114   1.672   5.158 -1.4165 -0.0365  1.7476
10876SOL     OW33869   4.966   5.179   4.830 -0.0510  0.0681 -0.1553
10876SOL    HW133870   5.034   5.141   4.775 -0.3927 -1.9694  0.7800
10876SOL    HW233871   4.915   5.104   4.860 -1.9723  1.4687  0.1407
10877SOL     OW33872   4.744   4.416   0.156  0.4603 -0.1816 -0.0325
10877SOL    HW133873   4.651   4.437   0.162  0.4520 -0.3052  0.3090
10877SOL    HW233874   4.789   4.500   0.167  0.3806 -0.0804 -0.4923
10878SOL     OW33875   4.046   8.254   2.845 -1.0398 -0.3644  0.0364
10878SOL    HW133876   4.031   8.162   2.826  0.1247  0.1154 -3.6495
10878SOL    HW233877   4.141   8.263   2.852 -1.1506  0.5293  0.6196
10879SOL     OW33878   5.886   2.085   4.708 -0.8203  0.9297  0.4194
10879SOL    HW133879   5.864   2.141   4.782 -2.4481 -0.0066  0.6539
10879SOL    HW233880   5.802   2.057   4.672 -0.0434 -0.0909 -0.6648
10880SOL     OW33881   7.065   3.872   4.283 -0.1543 -0.2809  0.0625
10880SOL    HW133882   7.090   3.837   4.369  0.8186  0.1990 -0.0133
10880SOL    HW233883   7.136   3.846   4.225 -2.1070 -2.9371 -1.2128
10881SOL     OW33884   7.646   1.284   5.117  0.1403  0.0509  0.3823
10881SOL    HW133885   7.597   1.240   5.186 -1.4342  0.0064 -0.7477
10881SOL    HW233886   7.580   1.331   5.067  1.3496  0.6015 -0.7128
10882SOL     OW33887   4.586   2.743   2.205  0.5195  0.5725  0.2073
10882SOL    HW133888   4.636   2.664   2.183 -0.5362 -0.0177 -0.1166
10882SOL    HW233889   4.608   2.805   2.136  0.6291  0.2320 -0.0695
10883SOL     OW33890   7.139   1.338   5.077  0.1118 -0.0302 -0.0749
10883SOL    HW133891   7.213   1.311   5.131  0.0386 -0.7300 -0.3141
10883SOL    HW233892   7.165   1.422   5.040 -0.3644  1.0785  2.0614
10884SOL     OW33893   4.492   0.650   3.228 -0.4746 -0.0435 -0.0519
10884SOL    HW133894   4.462   0.706   3.157  1.8141 -1.3200 -2.1356
10884SOL    HW233895   4.462   0.562   3.203 -0.3546 -0.3851  0.9906
10885SOL     OW33896   2.706   0.982   4.201  0.2238  0.2281 -0.4539
10885SOL    HW133897   2.718   1.041   4.127  0.6206  1.3937  0.5077
10885SOL    HW233898   2.759   1.020   4.271 -0.0591 -0.9022  0.3960
10886SOL     OW33899   5.959   2.327   5.862 -0.2918 -0.1412 -0.5059
10886SOL    HW133900   5.863   2.334   5.863 -0.2810  0.4868 -1.9558
10886SOL    HW233901   5.976   2.234   5.848 -0.6328 -0.6998  2.4032
10887SOL     OW33902   7.370   1.100   5.628  0.0751 -0.8489  0.2734
10887SOL    HW133903   7.367   1.195   5.618 -0.8234 -0.8986  0.0380
10887SOL    HW233904   7.333   1.083   5.715 -1.9400 -1.1268 -0.6025
10888SOL     OW33905   0.441   0.022   7.721  0.2045 -0.2865  0.0319
10888SOL    HW133906   0.385  -0.004   7.648 -0.6607  1.6395 -0.0005
10888SOL    HW233907   0.407   0.106   7.750  3.0901  0.9915 -0.0441
10889SOL     OW33908   3.114   1.684   8.123 -0.6314  0.0076 -0.2569
10889SOL    HW133909   3.133   1.600   8.164  0.8963 -0.0550 -1.0744
10889SOL    HW233910   3.159   1.749   8.178  1.9932 -0.1355 -2.1539
10890SOL     OW33911   5.479   2.396   7.809 -0.1902  0.1787 -0.4757
10890SOL    HW133912   5.569   2.391   7.841 -0.4523  0.2395  0.2765
10890SOL    HW233913   5.464   2.312   7.766  0.4512  0.4357 -1.1943
10891SOL     OW33914   1.447   5.889   0.337 -0.1572  0.8628 -0.5026
10891SOL    HW133915   1.439   5.818   0.272  0.6043 -0.1313  0.4666
10891SOL    HW233916   1.446   5.844   0.421  0.9013  1.9685  0.1080
10892SOL     OW33917   7.578   1.834   1.698  0.1117 -0.4307 -0.7406
10892SOL    HW133918   7.670   1.808   1.704  0.9615  2.8715  2.2676
10892SOL    HW233919   7.533   1.779   1.763  0.0897 -1.3704 -1.5345
10893SOL     OW33920   1.683   5.220   6.579 -0.2401  0.0990 -0.0455
10893SOL    HW133921   1.680   5.297   6.524 -1.6612 -0.4010 -0.6862
10893SOL    HW233922   1.751   5.165   6.540 -1.1607 -0.2005 -1.2261
10894SOL     OW33923   0.891   4.144   1.937  0.1711 -0.0415 -0.0882
10894SOL    HW133924   0.849   4.212   1.883  0.9441  0.5791  0.0773
10894SOL    HW233925   0.977   4.181   1.958 -0.3607  0.0172  2.1187
10895SOL     OW33926   6.211   4.089   1.718 -0.5517 -0.2533  0.0876
10895SOL    HW133927   6.253   4.088   1.804 -0.5702  0.2594  0.1033
10895SOL    HW233928   6.253   4.019   1.669 -0.7369 -0.7337  0.6132
10896SOL     OW33929   2.924   5.329   7.403  0.3263  0.3803  0.1082
10896SOL    HW133930   2.888   5.240   7.402 -2.1244  1.3324  0.3382
10896SOL    HW233931   2.988   5.330   7.331 -0.0078 -1.4074 -0.2347
10897SOL     OW33932   3.740   6.234   1.707 -0.1949  0.3571 -0.4307
10897SOL    HW133933   3.727   6.174   1.781  1.9006  0.7897  0.3222
10897SOL    HW233934   3.676   6.304   1.721 -0.0002  0.2955  0.8152
10898SOL     OW33935   0.927   3.727   3.360  0.2265  0.0082  0.4577
10898SOL    HW133936   0.876   3.647   3.374  1.1619 -0.5749  0.5878
10898SOL    HW233937   0.995   3.702   3.297  1.6129  0.2210  1.8384
10899SOL     OW33938   3.478   3.839   0.005  0.2799  0.5702 -0.1916
10899SOL    HW133939   3.477   3.922   0.054  0.7249  0.8673 -0.6828
10899SOL    HW233940   3.540   3.854  -0.066 -1.2693  0.5492 -1.5750
10900SOL     OW33941   6.272   4.871   7.227  0.1117 -0.6911 -0.6911
10900SOL    HW133942   6.291   4.780   7.248 -0.9915 -0.3939  1.8179
10900SOL    HW233943   6.182   4.885   7.257 -0.4743  0.6751 -2.9562
10901SOL     OW33944   0.632   6.375   6.246 -0.2196 -0.8673 -0.0653
10901SOL    HW133945   0.563   6.423   6.292 -0.5491 -2.1157  0.7408
10901SOL    HW233946   0.673   6.321   6.313 -0.7789 -2.8079 -1.2517
10902SOL     OW33947   6.487   3.100   4.657 -0.6296 -0.0237  0.2584
10902SOL    HW133948   6.447   3.093   4.744  0.2540  1.3780  0.7931
10902SOL    HW233949   6.580   3.086   4.671 -0.3824  0.9455 -0.3518
10903SOL     OW33950   5.710   1.352   1.087  0.1523 -0.0729 -0.3100
10903SOL    HW133951   5.740   1.437   1.120  0.9795 -0.3990 -0.1941
10903SOL    HW233952   5.785   1.317   1.039 -0.3119 -0.5700 -0.6827
10904SOL     OW33953   5.669   6.761   0.954  0.2668 -0.3915 -0.0999
10904SOL    HW133954   5.759   6.732   0.964  0.6537  0.8561  0.2011
10904SOL    HW233955   5.666   6.846   0.999 -0.6693  0.2971 -1.4111
10905SOL     OW33956   0.668   5.335   6.031  0.0430  0.0893  0.0034
10905SOL    HW133957   0.683   5.244   6.057  1.3847 -0.1416 -1.5037
10905SOL    HW233958   0.584   5.358   6.071  0.4569 -1.2999  1.7100
10906SOL     OW33959   6.559   2.617   0.189  0.4508 -0.1558 -0.4226
10906SOL    HW133960   6.534   2.532   0.224  0.3185  0.0608  0.0150
10906SOL    HW233961   6.654   2.611   0.177  0.8988  0.5896  2.2970
10907SOL     OW33962   1.166   1.688   6.939 -0.6014 -0.0671 -0.5940
10907SOL    HW133963   1.192   1.621   7.002 -3.3865 -2.0967 -1.5149
10907SOL    HW233964   1.073   1.702   6.956 -1.2927 -0.2693 -3.8594
10908SOL     OW33965   2.776   5.961   5.320  0.2156  0.1089  0.2147
10908SOL    HW133966   2.852   6.017   5.306 -2.1860  3.2352 -0.9965
10908SOL    HW233967   2.733   5.997   5.398 -0.6733 -0.8542  0.1840
10909SOL     OW33968   4.312   3.776   6.294  0.6586  0.3942  0.4213
10909SOL    HW133969   4.353   3.719   6.360  1.6241 -0.4534 -0.8949
10909SOL    HW233970   4.381   3.837   6.269  0.3688  0.5485  0.0018
10910SOL     OW33971   5.902   0.701   1.499  0.1228  0.0929  0.3743
10910SOL    HW133972   5.918   0.721   1.591 -1.5036  0.3366  0.6106
10910SOL    HW233973   5.811   0.726   1.484  0.2486 -0.3331 -1.1939
10911SOL     OW33974   7.810   3.093   7.513  0.8704 -0.3816 -0.1462
10911SOL    HW133975   7.832   3.179   7.550  0.1357  0.4117 -1.5133
10911SOL    HW233976   7.880   3.076   7.450  0.9640 -0.7315  0.0557
10912SOL     OW33977   3.707   5.300   6.933  0.1016  0.0745  0.0848
10912SOL    HW133978   3.631   5.263   6.888  0.7492 -0.6396 -0.4247
10912SOL    HW233979   3.683   5.299   7.026  0.4339 -2.4167  0.1704
10913SOL     OW33980   4.671   3.434   2.972 -0.0260  0.3694 -0.5004
10913SOL    HW133981   4.760   3.469   2.973  0.3910 -0.5909 -2.0128
10913SOL    HW233982   4.670   3.375   2.897 -1.1388 -1.7308  1.1292
10914SOL     OW33983   7.737   5.675   7.124  0.0050  0.1787 -0.2781
10914SOL    HW133984   7.718   5.581   7.127  0.5260  0.0908  0.1651
10914SOL    HW233985   7.738   5.696   7.031 -1.3760 -0.0036 -0.3458
10915SOL     OW33986   6.483   0.470   1.922 -0.2140 -0.1842  0.0532
10915SOL    HW133987   6.438   0.536   1.869  3.1859  1.6860 -0.6271
10915SOL    HW233988   6.540   0.425   1.860 -2.0334 -3.4720  0.6305
10916SOL     OW33989   1.460   5.607   7.777  0.4657  0.2197 -0.2730
10916SOL    HW133990   1.465   5.557   7.696  1.2259  0.8187 -0.6055
10916SOL    HW233991   1.427   5.544   7.842  0.4243 -0.4245 -0.9073
10917SOL     OW33992   2.593   3.747   1.205 -0.3494 -0.1807 -0.8544
10917SOL    HW133993   2.503   3.746   1.238 -0.4429  1.2898 -1.0147
10917SOL    HW233994   2.584   3.769   1.113  0.1323 -0.8323 -1.0592
10918SOL     OW33995   3.814   1.596   6.753  0.2517 -0.0790 -0.3186
10918SOL    HW133996   3.721   1.590   6.728  0.2609  0.4152 -0.4919
10918SOL    HW233997   3.833   1.514   6.797  0.4738 -1.3561 -2.7251
10919SOL     OW33998   8.123   7.472   5.880 -1.1802  0.0793  0.0676
10919SOL    HW133999   8.073   7.393   5.860  0.0708 -0.0746 -2.7300
10919SOL    HW234000   8.066   7.544   5.851 -1.8964  0.1781  1.6802
10920SOL     OW34001   4.808   3.792   1.392  0.2562  0.8422 -0.1666
10920SOL    HW134002   4.723   3.756   1.415  0.0064  0.0903 -2.1649
10920SOL    HW234003   4.870   3.747   1.449 -0.5187  0.3544  0.2970
10921SOL     OW34004   1.156   3.830   2.745  0.0695  0.0777  0.0958
10921SOL    HW134005   1.195   3.747   2.774 -0.2350  0.5564  1.9911
10921SOL    HW234006   1.225   3.895   2.758  0.5849 -0.0056 -2.1826
10922SOL     OW34007   4.572   2.275   3.016 -0.7170 -0.2593 -0.1734
10922SOL    HW134008   4.589   2.302   3.107 -2.2856 -1.3353  0.4487
10922SOL    HW234009   4.578   2.180   3.017 -3.5157 -0.4663 -0.6002
10923SOL     OW34010   2.549   1.225   3.550 -0.4547 -0.4307 -0.8204
10923SOL    HW134011   2.489   1.235   3.623 -0.7376 -2.3138 -0.7577
10923SOL    HW234012   2.523   1.292   3.487 -0.1504  1.2469  0.8282
10924SOL     OW34013   3.009   3.145   7.968  0.1186  0.1166 -0.6346
10924SOL    HW134014   3.074   3.127   8.035 -0.1420  3.0430  0.4848
10924SOL    HW234015   2.926   3.152   8.017  0.0337  2.9715 -1.0819
10925SOL     OW34016   5.619   8.179   6.377  0.9658  0.3517  0.3019
10925SOL    HW134017   5.535   8.177   6.422  1.3743 -1.1496  1.0033
10925SOL    HW234018   5.627   8.270   6.347 -1.2402  0.3472 -0.4211
10926SOL     OW34019   5.237   1.072   3.500  0.0371  0.4497 -0.2876
10926SOL    HW134020   5.255   0.985   3.465  1.1659 -0.1853  1.7154
10926SOL    HW234021   5.321   1.118   3.494 -0.3106  1.0744 -0.4546
10927SOL     OW34022   8.155   3.754   6.635  0.4374 -0.0354 -0.1762
10927SOL    HW134023   8.077   3.704   6.659  0.5776 -0.3781 -0.4311
10927SOL    HW234024   8.121   3.832   6.591  0.2552 -0.4797 -0.8340
10928SOL     OW34025   7.337   1.542   3.765 -0.1983  0.2042 -0.6034
10928SOL    HW134026   7.375   1.458   3.793  2.7494  1.0249 -1.9479
10928SOL    HW234027   7.351   1.600   3.839  1.1521  0.4735 -1.0516
10929SOL     OW34028   6.080   3.719   6.479  0.1632 -0.0036 -0.5604
10929SOL    HW134029   6.108   3.767   6.401 -0.3200  0.4116 -0.4862
10929SOL    HW234030   5.984   3.714   6.471  0.1563 -0.3955 -0.2485
10930SOL     OW34031   0.430   2.864   1.633 -0.7291 -0.0408 -0.4110
10930SOL    HW134032   0.383   2.831   1.710  0.1759  1.6790  0.9424
10930SOL    HW234033   0.489   2.931   1.669  1.8384 -1.2793 -2.2399
10931SOL     OW34034   3.785   8.268   3.649  0.0201 -0.1520  0.0269
10931SOL    HW134035   3.843   8.336   3.615 -0.7857  0.8144  0.5568
10931SOL    HW234036   3.793   8.276   3.744 -0.3504 -0.5615  0.0892
10932SOL     OW34037   2.774   0.160   1.483  0.2117  0.1971 -0.0538
10932SOL    HW134038   2.762   0.156   1.578  2.0698  0.1716  0.2008
10932SOL    HW234039   2.692   0.196   1.450 -0.8548 -0.7736  1.4613
10933SOL     OW34040   5.470   7.583   8.254  0.1296  0.4122  0.1356
10933SOL    HW134041   5.378   7.594   8.229  0.2687  1.3534  0.0163
10933SOL    HW234042   5.475   7.495   8.291 -0.5652 -0.0909 -0.9686
10934SOL     OW34043   6.528   8.282   7.857 -0.0279 -0.4159  0.0407
10934SOL    HW134044   6.460   8.214   7.860  0.2312 -0.6534  0.6093
10934SOL    HW234045   6.608   8.236   7.882  0.4255 -0.2317 -1.0530
10935SOL     OW34046   7.350   2.624   7.970 -0.0002  0.1317  0.1392
10935SOL    HW134047   7.301   2.650   7.892  0.3449 -1.1604 -0.5202
10935SOL    HW234048   7.428   2.581   7.936  0.3693 -0.0447  1.1954
10936SOL     OW34049   3.459   1.354   4.456  0.2727 -0.0048 -0.0367
10936SOL    HW134050   3.422   1.281   4.505  0.1158 -0.1445 -0.3571
10936SOL    HW234051   3.554   1.345   4.468  0.2824 -0.5215 -0.4222
10937SOL     OW34052   3.435   3.664   5.177  0.0456  0.6459  0.1926
10937SOL    HW134053   3.396   3.736   5.226 -0.7680  1.0739 -1.0511
10937SOL    HW234054   3.425   3.689   5.085 -0.2485 -1.0436 -0.2682
10938SOL     OW34055   3.021   2.892   4.135  0.0473  0.0143  0.0859
10938SOL    HW134056   2.989   2.849   4.056  0.4175  0.6899 -0.4367
10938SOL    HW234057   2.998   2.984   4.124  0.6712  0.2199  0.4683
10939SOL     OW34058   4.518   4.374   7.305  0.1579  0.6416 -0.2009
10939SOL    HW134059   4.584   4.394   7.238  1.4494 -0.3024  0.7663
10939SOL    HW234060   4.553   4.413   7.385 -0.4340  0.0651  0.3418
10940SOL     OW34061   7.092   3.988   6.312 -0.2243 -0.1308  0.9625
10940SOL    HW134062   7.044   3.964   6.233  0.1266 -1.2726  1.0813
10940SOL    HW234063   7.047   4.065   6.345 -1.3820 -0.6125  0.5431
10941SOL     OW34064   8.148   6.574   8.162 -0.5331  0.0367 -0.1405
10941SOL    HW134065   8.148   6.648   8.222  2.7680  1.6112 -1.9291
10941SOL    HW234066   8.208   6.511   8.202 -1.7147 -0.8031  0.3360
10942SOL     OW34067   2.660   2.638   7.521 -0.0878 -0.8907 -0.5494
10942SOL    HW134068   2.603   2.661   7.595 -0.8877 -1.9040 -0.8268
10942SOL    HW234069   2.710   2.562   7.553  1.1465  0.0200 -0.2926
10943SOL     OW34070   8.137   3.078   3.852 -0.1457  0.5593  0.3152
10943SOL    HW134071   8.211   3.113   3.901  2.0752 -1.8986 -1.1201
10943SOL    HW234072   8.134   3.132   3.773 -0.4615  1.2472  0.7977
10944SOL     OW34073   4.634   1.262   6.335  0.4361 -0.0820 -0.1961
10944SOL    HW134074   4.600   1.321   6.268 -1.3236  1.3412  1.8962
10944SOL    HW234075   4.728   1.276   6.334  0.3765  0.2472 -2.0627
10945SOL     OW34076   5.945   1.742   2.689  0.3684 -0.2139 -0.6851
10945SOL    HW134077   5.900   1.753   2.605 -0.9996 -0.8554 -0.0528
10945SOL    HW234078   5.940   1.829   2.729  0.0283 -0.1875 -0.7822
10946SOL     OW34079   4.509   1.939   8.197  0.2579  0.3558 -0.1527
10946SOL    HW134080   4.513   1.846   8.173  0.1437  0.6621 -1.3863
10946SOL    HW234081   4.595   1.973   8.172  1.2508  0.0243  2.7127
10947SOL     OW34082   7.379   1.294   6.747 -0.6067  0.1817 -0.0769
10947SOL    HW134083   7.289   1.283   6.777 -0.1774 -1.9475  0.5144
10947SOL    HW234084   7.397   1.216   6.695  0.7172  0.8445 -0.6321
10948SOL     OW34085   2.530   3.192   3.424 -0.1870 -0.4306 -0.4233
10948SOL    HW134086   2.496   3.103   3.420 -0.8374 -0.1857 -0.4412
10948SOL    HW234087   2.556   3.204   3.516  0.2786 -0.7769 -0.5119
10949SOL     OW34088   6.158   0.670   2.010 -0.2272  0.1514  0.4075
10949SOL    HW134089   6.074   0.652   1.966  0.2178 -1.4671  0.1580
10949SOL    HW234090   6.153   0.762   2.035 -1.6290  0.3752 -0.5933
10950SOL     OW34091   8.097   3.145   7.781 -0.3630  0.3253 -0.3946
10950SOL    HW134092   8.132   3.141   7.870 -1.3590  1.8143  0.0929
10950SOL    HW234093   8.137   3.071   7.735 -0.3207 -0.8187  1.4547
10951SOL     OW34094   6.996   6.238   6.547  0.8364 -0.0267  0.2226
10951SOL    HW134095   6.960   6.288   6.474  0.6377 -0.3165  0.1187
10951SOL    HW234096   7.037   6.162   6.506  1.7119  0.3856  0.3295
10952SOL     OW34097   4.247   2.488   1.994 -0.0251  0.5628  0.3441
10952SOL    HW134098   4.242   2.426   1.921 -0.2569 -0.2519  1.0417
10952SOL    HW234099   4.341   2.491   2.015  0.1818  1.5824 -0.6331
10953SOL     OW34100   0.301   0.924   0.773  0.1327  0.1361  0.1322
10953SOL    HW134101   0.255   0.840   0.772  1.5083 -0.6307 -1.6029
10953SOL    HW234102   0.247   0.981   0.829 -2.4516 -0.9943 -1.1436
10954SOL     OW34103   0.020   7.270   7.032 -0.0232 -0.6271  0.0563
10954SOL    HW134104  -0.054   7.268   6.971 -0.1584 -0.1832  0.2001
10954SOL    HW234105   0.035   7.363   7.048  0.4531 -0.7223  0.1656
10955SOL     OW34106   4.747   5.674   0.888 -0.1345 -0.0071 -0.6680
10955SOL    HW134107   4.764   5.606   0.954  0.1589 -0.4070 -1.1533
10955SOL    HW234108   4.701   5.628   0.817  0.2368  0.2616 -1.0819
10956SOL     OW34109   4.605   7.952   6.750 -0.3075 -0.3684 -0.8764
10956SOL    HW134110   4.604   8.003   6.670  0.4420  0.5144 -0.3313
10956SOL    HW234111   4.636   7.866   6.723  1.4457  0.3746 -1.2726
10957SOL     OW34112   3.913   0.329   2.102 -0.5790  0.2136  0.8191
10957SOL    HW134113   3.937   0.238   2.083 -0.7660  0.5535 -1.1494
10957SOL    HW234114   3.995   0.371   2.128 -0.0368  0.0545 -0.5886
10958SOL     OW34115   1.525   5.049   5.260  0.3460 -0.0644 -0.1317
10958SOL    HW134116   1.562   5.125   5.305  0.6824  0.6421 -1.5766
10958SOL    HW234117   1.600   4.995   5.236  0.3608  0.7094 -1.8803
10959SOL     OW34118   1.537   3.765   7.453  0.6774  0.5589  0.2610
10959SOL    HW134119   1.467   3.798   7.509  1.4520  1.0891  0.9234
10959SOL    HW234120   1.507   3.783   7.364 -0.5797 -0.3254  0.4866
10960SOL     OW34121   7.230   7.392   6.448 -0.0288  0.2506  0.1760
10960SOL    HW134122   7.213   7.409   6.541  2.5865  0.7415  0.6255
10960SOL    HW234123   7.238   7.296   6.443 -0.0724  0.2282  0.5049
10961SOL     OW34124   6.197   4.954   4.660  0.2916 -0.2775 -0.1218
10961SOL    HW134125   6.246   4.871   4.658  0.4737 -0.1644 -0.3924
10961SOL    HW234126   6.246   5.011   4.601 -1.4236 -0.8737 -2.1632
10962SOL     OW34127   7.583   1.416   8.273 -0.1968  0.1433  0.3492
10962SOL    HW134128   7.505   1.470   8.259  0.8585  1.3402 -0.9991
10962SOL    HW234129   7.602   1.426   8.367 -1.2491  0.4005  0.5397
10963SOL     OW34130   0.763   1.025   6.982  0.3453 -0.4442 -0.1951
10963SOL    HW134131   0.821   1.068   7.044  0.4954  0.0808 -0.6958
10963SOL    HW234132   0.818   1.009   6.905 -0.3689  0.7281 -0.9528
10964SOL     OW34133   2.008   7.064   4.886  0.6031 -0.8081  0.3034
10964SOL    HW134134   2.034   7.138   4.941  2.0342 -0.3143 -1.0185
10964SOL    HW234135   2.009   7.099   4.797 -0.6912 -1.8863 -0.1411
10965SOL     OW34136   3.478   7.854   7.106  0.1712 -0.0584 -0.7292
10965SOL    HW134137   3.475   7.760   7.086  0.9791  0.1456 -1.8062
10965SOL    HW234138   3.564   7.867   7.145 -1.0162 -0.2749  2.0667
10966SOL     OW34139   1.307   1.702   3.316  0.7220 -0.0611 -0.6200
10966SOL    HW134140   1.373   1.767   3.340  1.7684 -1.1583 -0.4850
10966SOL    HW234141   1.308   1.639   3.388  0.8948 -1.1117 -1.5322
10967SOL     OW34142   7.961   4.889   1.495  0.2071 -0.4130  0.2767
10967SOL    HW134143   8.028   4.828   1.466  0.2227 -1.5029  2.5027
10967SOL    HW234144   8.009   4.960   1.537  0.0676 -0.2258  0.1202
10968SOL     OW34145   3.765   0.453   4.462  0.2509  0.2089  0.5128
10968SOL    HW134146   3.765   0.425   4.553 -0.2148  0.1330  0.4906
10968SOL    HW234147   3.857   0.449   4.435  0.3809  0.1891  0.9642
10969SOL     OW34148   5.401   7.539   0.255  0.4492 -0.5557 -0.5293
10969SOL    HW134149   5.408   7.579   0.342 -0.2459 -0.8063 -0.3546
10969SOL    HW234150   5.374   7.611   0.198  0.0544 -0.5835 -0.3768
10970SOL     OW34151   7.380   4.091   6.260 -0.1207  0.4768  0.3315
10970SOL    HW134152   7.465   4.063   6.225  0.2771  1.0095  0.8676
10970SOL    HW234153   7.328   4.011   6.261  0.2894  0.1914 -0.2439
10971SOL     OW34154   5.658   1.336   7.481  0.1547 -0.2241  0.0275
10971SOL    HW134155   5.745   1.307   7.508 -0.1450 -0.6610  0.5472
10971SOL    HW234156   5.620   1.259   7.437 -0.5789 -0.5749  1.2534
10972SOL     OW34157   5.961   0.831   2.373  0.1121 -0.4244  0.3767
10972SOL    HW134158   5.984   0.900   2.311  0.8938 -1.1052 -0.0983
10972SOL    HW234159   5.876   0.857   2.407  0.0457  0.3719 -0.3824
10973SOL     OW34160   8.101   1.099   7.695 -0.2830 -0.1774 -0.7278
10973SOL    HW134161   8.035   1.042   7.655 -0.0850 -0.8385 -0.1183
10973SOL    HW234162   8.184   1.053   7.682 -0.0726  0.1572 -0.5703
10974SOL     OW34163   6.876   3.445   7.191  0.2769  0.4600 -0.3701
10974SOL    HW134164   6.938   3.393   7.242  1.7278  1.3338 -1.2270
10974SOL    HW234165   6.929   3.488   7.124 -0.8374  3.2712  0.4770
10975SOL     OW34166   6.425   0.477   8.015 -0.2947 -0.4655  0.0034
10975SOL    HW134167   6.398   0.558   8.058  2.3356  1.0057 -1.0341
10975SOL    HW234168   6.413   0.410   8.083 -2.3137  0.7737  0.9429
10976SOL     OW34169   1.759   0.148   0.798 -0.4508 -0.5518  0.1985
10976SOL    HW134170   1.844   0.134   0.840  0.4364  1.0786 -0.9927
10976SOL    HW234171   1.696   0.142   0.870  0.6764 -1.4278  1.1558
10977SOL     OW34172   8.229   4.088   1.014 -0.1177 -0.5072  0.5840
10977SOL    HW134173   8.206   4.174   1.049 -0.0024 -0.8956  1.6078
10977SOL    HW234174   8.177   4.081   0.934  0.2891  0.7407  0.1961
10978SOL     OW34175   5.404   5.864   6.043 -0.1303  0.5175  0.7570
10978SOL    HW134176   5.471   5.821   5.990  0.1721  2.7122 -0.7089
10978SOL    HW234177   5.377   5.940   5.991 -2.6631  0.5274  2.0019
10979SOL     OW34178   3.381   5.453   6.929 -0.6058  0.2997  0.1068
10979SOL    HW134179   3.431   5.382   6.889  0.0762  1.1203 -0.5250
10979SOL    HW234180   3.293   5.445   6.892 -0.0236  0.9500 -1.4411
10980SOL     OW34181   2.607   7.650   4.798 -0.1154 -0.3645 -0.2241
10980SOL    HW134182   2.682   7.591   4.813 -0.8606 -1.3011 -0.1239
10980SOL    HW234183   2.647   7.735   4.778  0.9749 -0.7909  0.0895
10981SOL     OW34184   5.248   0.356   2.124  0.1580  0.6294  0.0183
10981SOL    HW134185   5.162   0.318   2.141 -1.0002  2.1199 -2.3515
10981SOL    HW234186   5.246   0.440   2.169  0.2065  0.8677 -0.4248
10982SOL     OW34187   0.395   6.885   5.972 -0.3461 -0.1853  0.0849
10982SOL    HW134188   0.431   6.807   5.930 -0.6886  0.1355 -0.8274
10982SOL    HW234189   0.393   6.951   5.902 -0.5166  0.4900  0.7206
10983SOL     OW34190   6.920   2.818   4.546  0.0892 -0.5186 -0.1528
10983SOL    HW134191   7.010   2.840   4.569 -0.7151  0.8559  1.8563
10983SOL    HW234192   6.886   2.773   4.624 -1.0751 -0.6605 -0.7285
10984SOL     OW34193   0.844   5.113   4.377 -0.1314 -0.3816  0.2843
10984SOL    HW134194   0.825   5.053   4.304  1.1582  0.4934 -0.7993
10984SOL    HW234195   0.932   5.089   4.405 -0.1930  0.0274  0.8337
10985SOL     OW34196   3.038   6.628   6.746  0.4224 -0.0956 -0.5717
10985SOL    HW134197   2.954   6.598   6.781  0.6016 -0.1389 -0.1853
10985SOL    HW234198   3.085   6.662   6.821  1.0120 -0.6590 -0.6810
10986SOL     OW34199   6.440   7.315   0.603  0.0461  0.1140  0.0287
10986SOL    HW134200   6.412   7.401   0.633  2.0343 -0.1946  2.8880
10986SOL    HW234201   6.390   7.253   0.656 -0.1149 -0.5222 -0.8392
10987SOL     OW34202   2.428   8.172   7.073  0.0696 -0.1023 -0.2966
10987SOL    HW134203   2.413   8.255   7.026 -1.3712 -0.2430 -0.1033
10987SOL    HW234204   2.503   8.133   7.029  0.2230  0.9023 -0.9477
10988SOL     OW34205   4.073   7.919   0.352  0.3494  0.8488  0.2344
10988SOL    HW134206   4.143   7.978   0.381  1.6567  0.1219 -1.2982
10988SOL    HW234207   4.091   7.837   0.397 -0.5134  1.1441  1.1227
10989SOL     OW34208   6.060   7.768   5.457  0.3360 -0.2233  0.1930
10989SOL    HW134209   6.011   7.849   5.446  0.6981  0.1232  1.1416
10989SOL    HW234210   6.151   7.793   5.443  0.7037  0.0100  2.7774
10990SOL     OW34211   5.188   1.932   4.531  0.3594  0.1564 -0.3797
10990SOL    HW134212   5.174   1.961   4.441  0.9977  1.2986 -0.1201
10990SOL    HW234213   5.220   2.010   4.577  0.9934 -0.6660  0.6002
10991SOL     OW34214   6.617   1.773   4.172  0.1067 -0.0440  0.2468
10991SOL    HW134215   6.592   1.706   4.109 -1.5535 -1.0472  1.9126
10991SOL    HW234216   6.644   1.724   4.250 -0.2456  1.2135  1.1772
10992SOL     OW34217   0.252   5.724   0.926 -0.2381  0.5392 -0.2376
10992SOL    HW134218   0.187   5.662   0.961 -0.4086  0.8861  0.0643
10992SOL    HW234219   0.331   5.707   0.977 -0.0619  0.0565 -0.6643
10993SOL     OW34220   1.979   2.647   7.290 -0.2532  0.2843  0.3956
10993SOL    HW134221   2.058   2.689   7.321 -0.4596  0.8259  0.1960
10993SOL    HW234222   2.007   2.560   7.262  0.0062 -0.0422  1.6742
10994SOL     OW34223   2.053   4.704   7.654  0.2160 -0.2068  0.6174
10994SOL    HW134224   2.005   4.785   7.669 -0.8941 -0.5941 -0.6799
10994SOL    HW234225   2.020   4.643   7.720 -0.7073 -0.3085  0.0702
10995SOL     OW34226   6.166   1.701   2.239 -0.3829 -0.5106 -0.7949
10995SOL    HW134227   6.081   1.712   2.281  0.2866  0.1309  0.4135
10995SOL    HW234228   6.179   1.606   2.236 -1.6714 -0.6518 -2.0825
10996SOL     OW34229   5.033   2.985   1.356  0.2068  0.2794  0.4733
10996SOL    HW134230   5.030   3.079   1.338  0.5145  0.2561  0.3143
10996SOL    HW234231   5.030   2.943   1.270  1.0677  0.1609  0.5000
10997SOL     OW34232   3.982   4.850   1.394  0.3863  0.6775 -0.3031
10997SOL    HW134233   3.901   4.821   1.437  0.4443  0.5990 -0.2472
10997SOL    HW234234   4.016   4.770   1.352  1.3466  0.3398  1.1112
10998SOL     OW34235   8.001   3.991   0.104 -0.0017  0.4327  0.0270
10998SOL    HW134236   8.079   4.046   0.096  1.1691 -1.0837  0.8140
10998SOL    HW234237   7.935   4.049   0.141  0.5227  1.9285 -1.2985
10999SOL     OW34238   2.894   0.320   7.496  0.7541 -0.8466  0.2041
10999SOL    HW134239   2.808   0.306   7.534  1.0547 -0.1977  1.1357
10999SOL    HW234240   2.932   0.233   7.487  0.3037 -1.0699  0.4918
11000SOL     OW34241   3.921   8.093   6.500  0.0315  0.6149 -0.0189
11000SOL    HW134242   3.923   8.027   6.431  0.0013  1.9225 -1.2833
11000SOL    HW234243   3.983   8.160   6.471  1.2426  0.4199  2.0017
11001SOL     OW34244   0.529   7.145   5.694 -0.3644 -0.0586  0.0154
11001SOL    HW134245   0.595   7.076   5.688 -0.6005 -0.2773 -0.0599
11001SOL    HW234246   0.574   7.216   5.739  0.5226  0.5250 -1.7548
11002SOL     OW34247   4.855   5.899   2.243 -0.3339  0.3757  0.0158
11002SOL    HW134248   4.908   5.978   2.257  1.6125 -0.9261  0.1568
11002SOL    HW234249   4.893   5.858   2.165 -1.3013 -0.4525 -0.0296
11003SOL     OW34250   5.974   1.286   7.428 -0.4070 -0.2175  0.0368
11003SOL    HW134251   6.023   1.235   7.492 -0.0113 -0.8893 -0.7851
11003SOL    HW234252   5.954   1.224   7.357 -1.1396  0.4184 -0.3339
11004SOL     OW34253   3.651   6.215   1.168 -0.5047  0.5913 -0.6435
11004SOL    HW134254   3.619   6.293   1.125 -0.9012  0.4940 -0.5257
11004SOL    HW234255   3.628   6.226   1.260  1.6928  1.5036 -0.1687
11005SOL     OW34256   1.200   8.185   1.904  0.3153  0.6639 -0.3584
11005SOL    HW134257   1.287   8.199   1.867  0.7949  0.4051  0.6626
11005SOL    HW234258   1.210   8.108   1.960 -0.2087  1.5285  0.9435
11006SOL     OW34259   0.605   7.327   2.016 -0.1924 -0.0097 -0.3304
11006SOL    HW134260   0.531   7.382   2.042 -0.8867 -0.5259 -1.1807
11006SOL    HW234261   0.658   7.384   1.959  0.1871  0.4327  0.4671
11007SOL     OW34262   7.550   6.302   7.556  0.1153 -0.2810 -0.0123
11007SOL    HW134263   7.578   6.212   7.570 -2.2158 -1.1584 -0.6867
11007SOL    HW234264   7.470   6.311   7.608 -1.1528  0.5580 -2.0281
11008SOL     OW34265   0.617   2.980   7.369  0.6358 -0.1732  0.4041
11008SOL    HW134266   0.618   3.030   7.288 -0.1493  0.2746  0.6602
11008SOL    HW234267   0.704   2.940   7.374 -0.2881 -2.6582 -2.1539
11009SOL     OW34268   3.549   6.437   5.865  0.3470  0.1112  0.2621
11009SOL    HW134269   3.516   6.367   5.809  1.0243 -2.0517  2.4859
11009SOL    HW234270   3.644   6.437   5.849  0.2809  0.9516 -0.1755
11010SOL     OW34271   0.877   0.623   4.304 -0.3563 -0.2546  0.2391
11010SOL    HW134272   0.785   0.650   4.304 -0.4187 -0.1231 -4.6719
11010SOL    HW234273   0.925   0.703   4.324 -1.1337  0.6458 -1.3986
11011SOL     OW34274   7.308   1.057   4.693 -0.0912  0.9553  0.2684
11011SOL    HW134275   7.392   1.069   4.738  0.5451  1.6124 -1.0829
11011SOL    HW234276   7.331   1.047   4.601 -1.3124 -1.4256  0.1963
11012SOL     OW34277   3.625   5.008   5.988 -0.3141 -0.4366  0.1351
11012SOL    HW134278   3.532   5.031   5.992 -0.7654 -2.2576  0.7286
11012SOL    HW234279   3.659   5.032   6.074 -0.8792 -2.2734  0.9042
11013SOL     OW34280   7.594   0.277   1.112  0.5324 -0.3681  0.1058
11013SOL    HW134281   7.683   0.293   1.143  1.2262 -0.0988 -1.9597
11013SOL    HW234282   7.552   0.363   1.114  0.7545 -0.2520 -0.2628
11014SOL     OW34283   7.062   2.411   4.103  0.0599 -0.0329  0.3871
11014SOL    HW134284   7.012   2.431   4.182  0.6842 -2.0756  1.3368
11014SOL    HW234285   7.040   2.320   4.083  1.4011 -0.1412 -0.6761
11015SOL     OW34286   2.960   4.090   4.336 -0.3545 -0.2425 -0.0323
11015SOL    HW134287   2.901   4.041   4.394  0.8243 -0.1349  1.2862
11015SOL    HW234288   3.048   4.067   4.367  0.2620  0.7444 -1.0320
11016SOL     OW34289   2.123   7.437   2.129  0.0338 -0.0908 -0.0442
11016SOL    HW134290   2.158   7.352   2.154  0.8790  0.3575  0.3460
11016SOL    HW234291   2.200   7.488   2.103 -0.2476  1.0828  1.3124
11017SOL     OW34292   2.974   5.331   3.027 -0.6170 -0.1722  0.7877
11017SOL    HW134293   2.934   5.322   3.113  1.4567 -0.4804  1.7377
11017SOL    HW234294   3.030   5.408   3.034 -0.0580 -0.4865 -0.1298
11018SOL     OW34295   3.857   2.789   4.507 -0.3333  0.3877 -0.5893
11018SOL    HW134296   3.915   2.759   4.578  1.2621  0.8930 -1.6487
11018SOL    HW234297   3.782   2.827   4.552  1.3948  2.1732  0.8929
11019SOL     OW34298   2.723   3.190   7.650 -0.0135 -0.7777  0.1744
11019SOL    HW134299   2.711   3.182   7.556  0.1180 -0.6722  0.1479
11019SOL    HW234300   2.641   3.227   7.683 -0.3512 -1.5395  0.2035
11020SOL     OW34301   6.341   1.119   0.572 -0.1602 -0.1363 -0.3265
11020SOL    HW134302   6.346   1.024   0.559  1.4711 -0.2028  0.7181
11020SOL    HW234303   6.386   1.134   0.655 -0.0762  1.6045 -0.6738
11021SOL     OW34304   0.869   6.962   1.430 -0.3261  0.9662 -0.1884
11021SOL    HW134305   0.786   6.971   1.476 -0.4084 -2.8506  0.5595
11021SOL    HW234306   0.934   6.944   1.498  0.6653  1.3363 -1.0070
11022SOL     OW34307   7.340   1.154   5.232 -0.3969 -0.1546 -0.7596
11022SOL    HW134308   7.426   1.131   5.265 -1.1681 -2.1032  0.0092
11022SOL    HW234309   7.291   1.183   5.309 -0.9946 -0.9112 -0.8408
11023SOL     OW34310   2.243   2.397   6.434  0.4762 -0.7297  0.2127
11023SOL    HW134311   2.166   2.354   6.397  0.0886  0.4643 -0.3945
11023SOL    HW234312   2.281   2.332   6.492 -1.2008 -1.2066  0.7992
11024SOL     OW34313   3.391   3.409   7.148 -0.1545 -0.3837  0.3538
11024SOL    HW134314   3.399   3.469   7.074  0.8328 -0.8680  0.0693
11024SOL    HW234315   3.337   3.457   7.211  2.7894  1.8840  1.2619
11025SOL     OW34316   2.107   7.140   5.454  0.6651 -0.4070  0.5386
11025SOL    HW134317   2.169   7.153   5.525  0.4986 -0.6135  0.7214
11025SOL    HW234318   2.116   7.219   5.400 -1.2246  1.0648  2.3102
11026SOL     OW34319   7.923   1.620   6.902  0.1049  0.2791 -0.2643
11026SOL    HW134320   7.891   1.628   6.812 -0.1038  1.6721 -0.0745
11026SOL    HW234321   7.906   1.706   6.941 -0.2155 -0.4573  1.2372
11027SOL     OW34322   4.630   1.239   5.983 -0.1176  0.2765 -0.2273
11027SOL    HW134323   4.573   1.313   6.001 -0.4396  0.2414 -1.0773
11027SOL    HW234324   4.714   1.278   5.959 -0.6472  0.4078 -1.9180
11028SOL     OW34325   3.195   6.437   5.686  0.5422  0.2871  0.0225
11028SOL    HW134326   3.254   6.362   5.697  0.0336  0.1112  1.7069
11028SOL    HW234327   3.232   6.505   5.742  0.9720  1.2906 -1.4614
11029SOL     OW34328   2.367   7.445   2.576 -0.7641  0.0828 -0.3002
11029SOL    HW134329   2.388   7.420   2.666  2.0415 -0.6986 -1.0928
11029SOL    HW234330   2.321   7.369   2.540 -1.0874  0.0409  0.2041
11030SOL     OW34331   2.166   2.305   5.948  0.0133  0.5797 -0.0023
11030SOL    HW134332   2.163   2.213   5.975 -0.3865  0.0549 -1.7596
11030SOL    HW234333   2.249   2.314   5.901 -0.2033  0.9680 -0.3195
11031SOL     OW34334   7.196   4.465   6.683  0.4679  0.0339 -0.1780
11031SOL    HW134335   7.234   4.400   6.625  0.1797  0.9328 -1.3872
11031SOL    HW234336   7.259   4.538   6.682  1.0116 -0.3892  1.5126
11032SOL     OW34337   7.436   2.189   3.669 -0.1318 -0.1935 -0.4304
11032SOL    HW134338   7.422   2.118   3.607 -0.7757  0.1840 -0.7212
11032SOL    HW234339   7.442   2.146   3.754  0.3183 -0.6709 -0.6990
11033SOL     OW34340   6.653   6.473   1.661  0.2444  0.3976 -0.0104
11033SOL    HW134341   6.644   6.378   1.661 -1.7819  0.5776  0.2484
11033SOL    HW234342   6.720   6.491   1.595 -0.0633 -1.1430 -0.7526
11034SOL     OW34343   2.784   6.844   5.817 -0.3959 -0.1957 -0.1219
11034SOL    HW134344   2.825   6.802   5.741  0.5115 -0.7695  0.6658
11034SOL    HW234345   2.857   6.890   5.860 -0.3693 -1.9714  1.8089
11035SOL     OW34346   1.992   2.007   5.007  0.6562 -0.2658  0.0046
11035SOL    HW134347   1.931   1.935   4.990 -0.6202  0.6554  0.6755
11035SOL    HW234348   1.966   2.041   5.093  1.3290  0.9222 -0.2533
11036SOL     OW34349   5.001   3.444   6.003  0.1540  0.6313 -0.5952
11036SOL    HW134350   5.094   3.444   5.980  0.0427  1.1522 -1.0537
11036SOL    HW234351   4.997   3.499   6.082  0.5778 -1.4020  0.9041
11037SOL     OW34352   3.339   5.760   7.247  0.2562  0.1522  0.8056
11037SOL    HW134353   3.390   5.769   7.166 -1.2541  0.5805 -0.1105
11037SOL    HW234354   3.377   5.825   7.306 -1.2688  2.7312 -0.9437
11038SOL     OW34355   5.126   5.175   4.206  0.3820 -0.0959  0.0151
11038SOL    HW134356   5.072   5.219   4.272 -0.1681 -0.6987 -0.0219
11038SOL    HW234357   5.067   5.111   4.167  0.4266  0.9272 -1.7560
11039SOL     OW34358   2.075   5.332   1.984  0.6461  0.1826 -0.6077
11039SOL    HW134359   2.041   5.406   1.935 -3.5518 -0.8286  0.5813
11039SOL    HW234360   2.095   5.368   2.071 -2.6679 -0.2302  0.4005
11040SOL     OW34361   7.169   1.586   3.081  0.4262 -0.1598 -0.2205
11040SOL    HW134362   7.091   1.531   3.076 -2.3109  3.3413  1.9368
11040SOL    HW234363   7.170   1.635   2.999  0.5148 -0.3894 -0.3571
11041SOL     OW34364   2.252   1.808   5.552 -0.5434 -0.0032 -0.1046
11041SOL    HW134365   2.344   1.823   5.573  0.0490 -2.1280 -1.0075
11041SOL    HW234366   2.220   1.750   5.621 -0.4775 -1.3405 -1.1611
11042SOL     OW34367   7.981   4.167   1.558  0.4107  0.1622 -0.1897
11042SOL    HW134368   7.940   4.133   1.479  2.1295 -1.2723 -0.5099
11042SOL    HW234369   7.997   4.259   1.540 -1.9109  0.5525 -0.3475
11043SOL     OW34370   6.439   3.732   2.880  0.3374 -0.1855  0.4645
11043SOL    HW134371   6.446   3.637   2.872 -0.4225 -0.4779  3.0150
11043SOL    HW234372   6.349   3.748   2.907  0.4634  1.2674  0.0835
11044SOL     OW34373   7.838   6.133   1.631  0.1543 -0.1583 -0.1334
11044SOL    HW134374   7.933   6.131   1.633  0.1467 -1.0678 -0.4555
11044SOL    HW234375   7.815   6.218   1.668  1.1226  0.6697 -1.4359
11045SOL     OW34376   8.099   0.318   3.877  0.6939  0.2151  0.3441
11045SOL    HW134377   8.091   0.223   3.879  1.2469  0.1498 -0.2514
11045SOL    HW234378   8.157   0.339   3.950  1.1776  0.0218  0.0200
11046SOL     OW34379   1.916   3.553   2.706 -0.3301  0.6823 -0.4688
11046SOL    HW134380   1.887   3.644   2.712 -0.8340  0.5078 -0.2876
11046SOL    HW234381   1.946   3.545   2.615 -0.8612  0.8579 -0.6644
11047SOL     OW34382   5.382   0.512   1.057  0.1677 -0.1160  0.5153
11047SOL    HW134383   5.424   0.458   0.991  2.3508  0.8495  1.0804
11047SOL    HW234384   5.348   0.587   1.008 -1.6898 -1.3125 -0.0684
11048SOL     OW34385   3.970   7.731   3.489  0.1427 -0.1026  0.0114
11048SOL    HW134386   3.900   7.673   3.460  0.4775 -0.0575 -0.9132
11048SOL    HW234387   3.935   7.774   3.566 -0.2038 -1.3583  0.5704
11049SOL     OW34388   2.390   5.592   6.960  0.4124 -0.2653  0.2647
11049SOL    HW134389   2.295   5.582   6.951  0.4961 -2.0506  1.2941
11049SOL    HW234390   2.419   5.616   6.872 -1.2793  2.9692  0.4699
11050SOL     OW34391   0.661   4.846   5.530  0.3632 -0.1916  0.6206
11050SOL    HW134392   0.640   4.789   5.456  4.1674 -0.5285 -0.2853
11050SOL    HW234393   0.694   4.788   5.598  1.1379  0.5794  0.9174
11051SOL     OW34394   7.956   6.828   4.929  0.4286  0.1422 -0.0326
11051SOL    HW134395   7.867   6.802   4.952  1.5019 -0.5230  3.6729
11051SOL    HW234396   8.001   6.745   4.914  0.2961  0.5014 -2.6538
11052SOL     OW34397   8.247   0.081   2.703 -0.5994 -0.0528 -0.4314
11052SOL    HW134398   8.311   0.152   2.703 -0.5164 -0.0827  1.9856
11052SOL    HW234399   8.170   0.119   2.661 -0.1027  1.0497 -0.3692
11053SOL     OW34400   1.442   4.063   7.506  0.0655  0.3999  0.8739
11053SOL    HW134401   1.414   4.080   7.416 -2.0874  0.3975  1.5083
11053SOL    HW234402   1.528   4.022   7.497 -0.0552  0.5354 -1.1696
11054SOL     OW34403   1.901   7.539   1.294 -0.2225  0.4278 -0.3405
11054SOL    HW134404   1.848   7.502   1.224  1.4124 -0.7242 -0.9977
11054SOL    HW234405   1.850   7.613   1.326 -2.0336 -0.4213 -1.2051
11055SOL     OW34406   6.391   0.344   5.441 -0.2620 -0.2295 -0.8379
11055SOL    HW134407   6.364   0.297   5.519 -1.2024  0.6223 -0.6313
11055SOL    HW234408   6.480   0.314   5.424  0.2182  0.0992  0.9674
11056SOL     OW34409   5.218   1.095   4.609  0.2622 -0.1899  0.6317
11056SOL    HW134410   5.201   1.005   4.638  2.3330 -0.7384  0.2443
11056SOL    HW234411   5.171   1.150   4.672  0.3301 -1.4979  1.8466
11057SOL     OW34412   2.779   6.727   7.075 -0.4247  0.2867 -0.2676
11057SOL    HW134413   2.769   6.640   7.036 -1.3386 -0.4463  1.5483
11057SOL    HW234414   2.691   6.750   7.104  0.3554  0.4696  2.0450
11058SOL     OW34415   4.225   4.939   4.903 -0.5216 -0.7686 -0.0727
11058SOL    HW134416   4.157   4.916   4.966  0.4376  0.7786  1.5929
11058SOL    HW234417   4.297   4.972   4.957 -0.0276  1.4789 -2.0338
11059SOL     OW34418   4.671   7.703   6.670 -0.0927  0.3633 -0.2951
11059SOL    HW134419   4.757   7.742   6.654 -0.4020  1.2937  0.2736
11059SOL    HW234420   4.672   7.621   6.621  0.2648  1.4603 -2.1377
11060SOL     OW34421   5.485   3.366   0.380 -0.0914 -0.2553 -0.6538
11060SOL    HW134422   5.497   3.273   0.361 -0.4012 -0.4163 -0.0679
11060SOL    HW234423   5.565   3.408   0.348  0.9538 -0.9839  0.9283
11061SOL     OW34424   0.328   0.175   0.428 -0.4817 -0.0029  0.0014
11061SOL    HW134425   0.300   0.194   0.338  0.2881 -0.6020 -0.3667
11061SOL    HW234426   0.338   0.261   0.468 -1.6677  0.2513 -0.2218
11062SOL     OW34427   7.655   3.037   0.234  0.3433 -0.2592 -0.2159
11062SOL    HW134428   7.573   3.087   0.243 -0.3177 -1.3011 -0.3343
11062SOL    HW234429   7.626   2.949   0.209  1.5367 -0.4858 -0.8112
11063SOL     OW34430   1.939   5.664   1.582 -0.5694 -0.1788 -0.4579
11063SOL    HW134431   1.986   5.744   1.560  0.8390 -0.1770  2.3938
11063SOL    HW234432   1.972   5.599   1.521  1.8327  0.2715  0.3203
11064SOL     OW34433   7.981   3.641   4.456 -0.1465  0.8598 -0.0236
11064SOL    HW134434   7.929   3.719   4.474 -2.4997 -0.2493 -1.5969
11064SOL    HW234435   7.939   3.602   4.378  2.2783 -0.7946 -0.5711
11065SOL     OW34436   4.474   1.354   4.854 -0.2558  0.2570 -0.3090
11065SOL    HW134437   4.453   1.288   4.921 -1.3214  1.2775  0.3653
11065SOL    HW234438   4.569   1.366   4.862 -0.0517 -1.1799 -0.4260
11066SOL     OW34439   4.406   1.420   7.061  0.0050 -0.0279  0.1669
11066SOL    HW134440   4.471   1.488   7.079 -1.5914  1.3386  0.9045
11066SOL    HW234441   4.406   1.364   7.139 -1.3038  1.3085  1.1528
11067SOL     OW34442   6.930   2.458   7.325  0.4694 -0.2457 -0.4975
11067SOL    HW134443   7.007   2.407   7.349  0.5354 -0.2304 -0.6792
11067SOL    HW234444   6.858   2.415   7.372  0.6991  0.1848  0.2494
11068SOL     OW34445   6.134   4.616   0.853  0.4841  0.3004 -0.1284
11068SOL    HW134446   6.206   4.597   0.913  1.7473  1.9520 -1.0808
11068SOL    HW234447   6.144   4.552   0.783  0.1427 -0.4055  0.4619
11069SOL     OW34448   2.959   0.230   6.126 -0.0597  0.1246 -0.0860
11069SOL    HW134449   2.925   0.318   6.108 -0.9951 -0.2306 -0.0906
11069SOL    HW234450   3.049   0.232   6.093  0.1350  1.2648  0.4755
11070SOL     OW34451   2.714   5.898   7.965 -0.7914  0.2876  0.1445
11070SOL    HW134452   2.712   5.847   8.046  2.6026  0.3437  0.3118
11070SOL    HW234453   2.724   5.832   7.896  1.6675  0.5492  0.2148
11071SOL     OW34454   7.881   1.211   0.926  0.0318 -0.2066 -0.6009
11071SOL    HW134455   7.894   1.275   0.996  0.7519  0.1533 -1.0517
11071SOL    HW234456   7.968   1.201   0.887 -0.5446  0.3719 -2.1028
11072SOL     OW34457   6.421   2.940   6.856  0.0303  0.0089  0.2329
11072SOL    HW134458   6.434   3.014   6.916  0.4315 -0.6727  0.9965
11072SOL    HW234459   6.343   2.896   6.890  0.3556 -0.4741  0.3499
11073SOL     OW34460   8.103   3.927   2.648 -0.0843  0.0716  0.2502
11073SOL    HW134461   8.104   3.998   2.712  1.3947 -0.9106  1.3577
11073SOL    HW234462   8.190   3.932   2.607 -1.0013  0.6749 -1.6897
11074SOL     OW34463   3.247   2.293   4.222  0.1949  0.0058 -0.3588
11074SOL    HW134464   3.295   2.257   4.297 -0.7572  1.1274  0.7960
11074SOL    HW234465   3.282   2.382   4.211  1.8028 -0.8373 -2.5585
11075SOL     OW34466   5.167   7.234   3.724 -0.6269  0.8306 -0.7916
11075SOL    HW134467   5.109   7.159   3.709  0.3440  0.0768 -0.8396
11075SOL    HW234468   5.112   7.297   3.770 -1.2900 -0.1666 -0.1734
11076SOL     OW34469   7.214   1.399   7.045  0.5793  0.1986 -0.3677
11076SOL    HW134470   7.242   1.323   6.994 -0.0828 -0.3166  0.0198
11076SOL    HW234471   7.128   1.421   7.009 -0.2737 -0.7044  1.0905
11077SOL     OW34472   1.222   0.050   0.827 -0.4996  0.4791 -0.6949
11077SOL    HW134473   1.262   0.071   0.911 -1.4280  0.6149 -0.2861
11077SOL    HW234474   1.242  -0.043   0.813 -0.9430  0.2736  0.0096
11078SOL     OW34475   0.099   2.494   4.931  0.5421 -0.5092  0.2844
11078SOL    HW134476   0.182   2.538   4.954  0.0943  0.0643  0.8485
11078SOL    HW234477   0.032   2.558   4.956  0.0225  0.3851 -3.2143
11079SOL     OW34478   5.454   7.255   6.482  0.4302 -0.8058 -0.1425
11079SOL    HW134479   5.420   7.317   6.546 -0.8697 -0.3169 -1.2764
11079SOL    HW234480   5.418   7.170   6.509 -1.1592 -0.3952 -0.9569
11080SOL     OW34481   3.910   0.655   2.418  0.9121 -0.4662  0.3951
11080SOL    HW134482   3.915   0.561   2.436 -0.3030 -0.5099  0.5521
11080SOL    HW234483   3.949   0.666   2.331 -0.3711 -1.3200 -0.2867
11081SOL     OW34484   2.070   5.203   2.308 -0.3341 -0.2354 -0.1282
11081SOL    HW134485   2.075   5.295   2.282 -0.1960 -0.1274  0.2803
11081SOL    HW234486   2.043   5.157   2.229 -2.7065  0.4306  0.2536
11082SOL     OW34487   4.929   1.251   6.035  0.7261  0.2707 -0.2024
11082SOL    HW134488   4.929   1.257   6.131  1.3633 -0.7921 -0.1398
11082SOL    HW234489   4.994   1.316   6.007  0.0590  1.0595  0.0462
11083SOL     OW34490   8.152   5.263   2.038  0.2361 -0.0766 -0.8868
11083SOL    HW134491   8.061   5.243   2.061  0.3073 -1.5019 -1.7789
11083SOL    HW234492   8.170   5.209   1.961  1.9291 -0.0241 -0.5465
11084SOL     OW34493   7.701   6.521   6.375 -0.1964  0.0470  0.6576
11084SOL    HW134494   7.744   6.479   6.449  0.4646  1.2461  0.9658
11084SOL    HW234495   7.752   6.600   6.359 -0.2696 -0.2593 -1.1623
11085SOL     OW34496   3.490   4.413   7.278  0.8390 -0.0781  0.5329
11085SOL    HW134497   3.422   4.461   7.230  0.5867 -1.8437 -0.9386
11085SOL    HW234498   3.504   4.464   7.357 -0.1691  1.8556 -0.4892
11086SOL     OW34499   7.047   0.415   3.943  0.0926  0.3718  0.9682
11086SOL    HW134500   6.955   0.389   3.935 -0.6651  3.5241 -1.1716
11086SOL    HW234501   7.044   0.498   3.989  1.7819  1.0621 -0.1451
11087SOL     OW34502   7.690   1.436   2.375  0.1173 -0.0614  0.0454
11087SOL    HW134503   7.742   1.358   2.395  2.4268  1.8573  1.9118
11087SOL    HW234504   7.599   1.410   2.389  0.8344 -2.5034  0.2672
11088SOL     OW34505   2.214   1.333   5.031  0.5885 -0.8941  0.0644
11088SOL    HW134506   2.155   1.408   5.041  1.4387 -0.3225  0.8598
11088SOL    HW234507   2.186   1.291   4.950  0.0353  0.2223 -0.3320
11089SOL     OW34508   2.112   6.485   4.529 -0.4264 -0.1172 -0.5916
11089SOL    HW134509   2.016   6.487   4.530 -0.4316 -0.3910 -0.7221
11089SOL    HW234510   2.135   6.455   4.441 -0.2118  0.6381 -0.7971
11090SOL     OW34511   5.011   5.060   3.616  0.1816 -0.3287  0.6238
11090SOL    HW134512   4.927   5.076   3.658  0.5454 -1.9601  2.0080
11090SOL    HW234513   4.994   5.071   3.522 -1.2210  0.7831  1.0013
11091SOL     OW34514   0.218   3.233   3.012 -0.4143 -0.6643  0.4868
11091SOL    HW134515   0.168   3.311   3.036 -1.0269 -0.7713 -0.4319
11091SOL    HW234516   0.152   3.170   2.983  0.1503 -1.2456  0.4639
11092SOL     OW34517   0.040   6.024   4.724 -0.2140  1.2269  0.6714
11092SOL    HW134518   0.129   5.998   4.700 -0.7217  0.3311 -0.2713
11092SOL    HW234519  -0.014   5.995   4.651 -1.4471  0.7358  1.7629
11093SOL     OW34520   3.810   8.225   5.221 -0.3827  0.1442 -0.7618
11093SOL    HW134521   3.763   8.278   5.157  0.0631  1.8712  0.3039
11093SOL    HW234522   3.802   8.273   5.304  0.2410 -1.3247  0.1796
11094SOL     OW34523   7.417   3.758   3.581 -0.4784 -0.1756 -0.7355
11094SOL    HW134524   7.503   3.721   3.602 -0.0969  0.6565 -0.8385
11094SOL    HW234525   7.356   3.684   3.592  0.2490 -0.7723 -0.6990
11095SOL     OW34526   2.833   6.610   0.604 -0.0473  0.1028 -0.6723
11095SOL    HW134527   2.811   6.608   0.510  1.3999 -0.4839 -1.0032
11095SOL    HW234528   2.892   6.685   0.613 -1.4404  1.1393  0.0691
11096SOL     OW34529   2.189   2.660   1.644 -0.1215  0.9146  0.0305
11096SOL    HW134530   2.137   2.682   1.567 -1.7642 -0.5639  0.6892
11096SOL    HW234531   2.275   2.639   1.609 -1.0034 -0.2909 -1.4654
11097SOL     OW34532   5.795   6.817   0.197 -1.0169  0.2627 -0.7776
11097SOL    HW134533   5.832   6.771   0.122 -2.2619 -1.1325 -0.5489
11097SOL    HW234534   5.753   6.895   0.159  0.0648  0.5958 -1.2967
11098SOL     OW34535   3.545   0.318   5.943  0.3511 -0.0728 -0.2817
11098SOL    HW134536   3.517   0.262   6.016 -1.1366  0.3374 -0.5164
11098SOL    HW234537   3.573   0.399   5.985  0.0822 -0.0642 -0.1148
11099SOL     OW34538   5.484   1.945   4.002 -0.5578  0.0608  0.1794
11099SOL    HW134539   5.528   1.860   3.995  0.4838  0.5775  0.4091
11099SOL    HW234540   5.539   2.005   3.952  1.1350  1.5448  3.7129
11100SOL     OW34541   0.454   0.500   7.032  0.2907 -0.0621  0.0944
11100SOL    HW134542   0.497   0.583   7.054 -1.1100  0.6300  0.2276
11100SOL    HW234543   0.496   0.474   6.950  1.6955  0.0819  0.7424
11101SOL     OW34544   6.833   6.323   4.943 -0.3271  0.2753  0.1654
11101SOL    HW134545   6.899   6.392   4.943  0.3752 -0.3260  2.6075
11101SOL    HW234546   6.860   6.264   4.873 -0.8526  2.3598 -1.8467
11102SOL     OW34547   6.403   4.347   1.854  0.5581  0.0779  0.3204
11102SOL    HW134548   6.361   4.336   1.769 -0.1455 -1.6723  0.8639
11102SOL    HW234549   6.460   4.270   1.862  0.3370  0.0383  1.5741
11103SOL     OW34550   5.832   6.106   3.060  0.3836 -0.0375 -0.1670
11103SOL    HW134551   5.833   6.187   3.009 -0.2635  1.0757  1.5733
11103SOL    HW234552   5.749   6.064   3.036  1.2766 -0.8020 -1.9933
11104SOL     OW34553   7.199   3.514   5.444  0.5851  0.0449 -0.8095
11104SOL    HW134554   7.287   3.539   5.418  0.4199  0.1346 -1.2971
11104SOL    HW234555   7.211   3.437   5.501  0.9848  0.1756 -0.7163
11105SOL     OW34556   2.786   5.438   1.405 -0.1305  0.1055 -0.2588
11105SOL    HW134557   2.706   5.397   1.371 -0.0171  0.3107 -0.7690
11105SOL    HW234558   2.857   5.395   1.357 -0.0233  1.0903 -0.9969
11106SOL     OW34559   6.088   1.040   7.586 -0.0028 -0.1996 -0.0488
11106SOL    HW134560   6.146   1.077   7.652 -1.5563  0.3021  1.0821
11106SOL    HW234561   6.121   0.951   7.572 -0.3782 -0.7550  2.3472
11107SOL     OW34562   5.499   1.555   4.575 -0.2951 -0.3122 -0.4992
11107SOL    HW134563   5.556   1.623   4.611 -1.3067  0.5719 -0.5307
11107SOL    HW234564   5.557   1.500   4.522  0.3319  1.2410 -1.4634
11108SOL     OW34565   5.519   3.131   7.052 -0.0828 -0.3448  0.7553
11108SOL    HW134566   5.571   3.143   7.131  0.0703  2.1557  0.2880
11108SOL    HW234567   5.583   3.108   6.984  0.1383  0.3801  0.7156
11109SOL     OW34568   3.189   3.892   1.990 -0.3037 -0.0623  0.4973
11109SOL    HW134569   3.151   3.918   2.074 -1.0010 -0.8567  0.4351
11109SOL    HW234570   3.215   3.974   1.949  0.0095  0.3327  1.4748
11110SOL     OW34571   7.606   3.461   0.167  0.2475  0.2799  0.1955
11110SOL    HW134572   7.619   3.386   0.110  0.0357 -0.1998  0.7799
11110SOL    HW234573   7.665   3.446   0.241  0.2479  0.7168  0.2889
11111SOL     OW34574   7.330   1.133   3.561  0.7590 -0.2876 -0.5092
11111SOL    HW134575   7.413   1.107   3.522 -0.2081 -3.6756 -0.5344
11111SOL    HW234576   7.268   1.130   3.489 -0.0719 -1.4865  0.2369
11112SOL     OW34577   0.492   3.243   7.413  0.0823 -0.2369  0.1770
11112SOL    HW134578   0.414   3.222   7.464  0.3204 -1.2583  0.1295
11112SOL    HW234579   0.469   3.220   7.323  0.9980 -2.1485  0.3986
11113SOL     OW34580   6.502   8.251   6.159 -0.4940  0.3627 -0.1921
11113SOL    HW134581   6.531   8.257   6.250 -0.3696  0.0819 -0.2117
11113SOL    HW234582   6.493   8.342   6.130 -1.9621  0.4689  0.5610
11114SOL     OW34583   6.974   0.146   4.713  0.5264  0.1062 -0.2087
11114SOL    HW134584   6.907   0.213   4.700 -0.2101 -0.4853  0.4080
11114SOL    HW234585   7.002   0.122   4.625 -0.2297  0.2246 -0.4869
11115SOL     OW34586   0.001   7.182   6.236  0.6455  0.5187 -0.5394
11115SOL    HW134587   0.016   7.149   6.148  0.9756  1.1105 -0.7059
11115SOL    HW234588  -0.086   7.221   6.232  0.0894 -0.6524 -0.2415
11116SOL     OW34589   1.077   6.988   2.090 -0.3843 -0.5495 -0.3472
11116SOL    HW134590   1.013   6.966   2.022  0.4177 -1.6773 -0.7598
11116SOL    HW234591   1.161   6.985   2.045  0.0360  0.0404  0.3971
11117SOL     OW34592   1.439   0.439   2.205 -0.4437  0.1243  0.0122
11117SOL    HW134593   1.354   0.433   2.248 -0.4863 -0.4449 -0.1451
11117SOL    HW234594   1.443   0.528   2.172 -0.8665  0.2350  0.2528
11118SOL     OW34595   4.968   1.348   0.808 -0.1350 -0.2452 -0.2930
11118SOL    HW134596   5.046   1.381   0.853 -1.2650  2.9220 -0.5621
11118SOL    HW234597   4.998   1.326   0.720  0.7918 -0.7083  0.1273
11119SOL     OW34598   5.038   6.709   0.502 -0.3159  0.2584  0.2424
11119SOL    HW134599   5.016   6.670   0.587  1.1288 -2.2091 -0.4692
11119SOL    HW234600   4.975   6.670   0.441  0.5639 -0.2660 -0.3300
11120SOL     OW34601   6.125   3.960   5.150  0.3525 -0.0133  0.7542
11120SOL    HW134602   6.205   3.917   5.179  0.1028  0.8777  2.8342
11120SOL    HW234603   6.057   3.927   5.209 -0.8879 -0.9530 -1.1519
11121SOL     OW34604   5.514   7.031   1.976  0.0113 -0.1615 -0.2125
11121SOL    HW134605   5.529   7.122   2.001 -0.1454 -0.0579 -0.4877
11121SOL    HW234606   5.424   7.030   1.944  0.1937 -0.2991 -0.7261
11122SOL     OW34607   3.523   8.272   1.703 -0.0137 -0.1714 -0.0606
11122SOL    HW134608   3.529   8.347   1.645  0.2739 -0.9255 -1.0264
11122SOL    HW234609   3.436   8.279   1.743  0.2863  1.0507  0.4026
11123SOL     OW34610   0.816   5.173   5.378 -0.2589 -0.0969  0.1500
11123SOL    HW134611   0.897   5.165   5.329  0.7997  0.9483  1.6732
11123SOL    HW234612   0.817   5.100   5.439 -2.0836 -2.0213 -2.0317
11124SOL     OW34613   4.092   6.455   6.187 -0.7615 -0.2759 -0.5941
11124SOL    HW134614   4.108   6.398   6.111 -1.2167  0.4328 -1.2343
11124SOL    HW234615   4.056   6.536   6.149  2.6798  1.6220  0.0172
11125SOL     OW34616   5.345   1.832   5.608  0.7467 -0.4133 -0.1171
11125SOL    HW134617   5.305   1.829   5.521 -2.1393  1.4905  1.0791
11125SOL    HW234618   5.354   1.740   5.633 -1.7648 -0.9402 -0.9815
11126SOL     OW34619   0.609   4.234   5.038  0.0938 -0.4077  0.7186
11126SOL    HW134620   0.567   4.157   5.078 -1.7886  1.4551  2.4400
11126SOL    HW234621   0.702   4.223   5.057 -0.1108 -2.3786  0.7200
11127SOL     OW34622   4.970   2.885   6.680 -0.0179 -0.3963  0.6143
11127SOL    HW134623   5.028   2.864   6.608 -0.9662 -0.4101 -0.1548
11127SOL    HW234624   4.920   2.961   6.650  1.3676  1.2071  2.2569
11128SOL     OW34625   7.462   0.410   5.375  0.4529  0.0126  0.1808
11128SOL    HW134626   7.555   0.388   5.381  0.7565  1.7425  2.3861
11128SOL    HW234627   7.449   0.478   5.441 -2.4628 -0.4749  0.1757
11129SOL     OW34628   6.992   7.226   5.743 -0.1525  0.3084  0.1770
11129SOL    HW134629   6.909   7.201   5.785  0.1141  0.3126  0.7113
11129SOL    HW234630   7.059   7.180   5.794  0.3242  1.8731  1.0057
11130SOL     OW34631   7.952   2.304   1.861  0.9589  0.2083 -0.8427
11130SOL    HW134632   8.038   2.310   1.902  0.1717  0.0343  0.8730
11130SOL    HW234633   7.930   2.395   1.839  0.3942  0.6166  1.2697
11131SOL     OW34634   5.512   4.198   6.294  0.0886  0.8835  0.2970
11131SOL    HW134635   5.530   4.253   6.218 -0.2513  0.5850  0.0002
11131SOL    HW234636   5.443   4.245   6.342 -0.9006  0.2473 -0.4690
11132SOL     OW34637   4.994   0.961   6.174 -0.0602  0.7946  0.1148
11132SOL    HW134638   5.076   1.011   6.169 -0.0532  0.8383  0.6878
11132SOL    HW234639   5.015   0.877   6.131  0.6806  0.2790  1.4523
11133SOL     OW34640   0.309   6.803   4.282  0.5956  0.5601  0.3287
11133SOL    HW134641   0.248   6.836   4.347  1.4289 -0.7753  1.8183
11133SOL    HW234642   0.370   6.876   4.267 -0.2012  1.2208  0.2708
11134SOL     OW34643   0.033   4.851   5.732  0.5747 -0.3620  0.1989
11134SOL    HW134644   0.124   4.874   5.752  0.5642 -0.2874  0.1612
11134SOL    HW234645  -0.018   4.905   5.792  0.5646 -0.6154  0.4225
11135SOL     OW34646   5.693   6.401   3.065 -0.7410  0.2021  0.2136
11135SOL    HW134647   5.604   6.389   3.030 -0.6700 -0.8928  0.3994
11135SOL    HW234648   5.751   6.375   2.994 -0.5575  0.6808  0.1799
11136SOL     OW34649   1.269   7.714   3.085 -0.5368 -0.2158 -0.2294
11136SOL    HW134650   1.227   7.633   3.057  0.1716 -0.5391 -0.3626
11136SOL    HW234651   1.215   7.784   3.046 -3.2615 -0.5011  2.7912
11137SOL     OW34652   2.436   7.543   0.480 -0.3426 -0.1979 -0.5287
11137SOL    HW134653   2.512   7.505   0.435  1.2064  1.8297  0.2962
11137SOL    HW234654   2.389   7.590   0.412  1.1539  1.5791 -0.3662
11138SOL     OW34655   6.846   7.835   4.212 -0.3234 -0.4515  0.7306
11138SOL    HW134656   6.899   7.760   4.238 -0.9878 -0.9077  0.7935
11138SOL    HW234657   6.905   7.909   4.216  0.6070 -1.1169 -0.2821
11139SOL     OW34658   3.217   2.681   3.237 -0.4196 -0.6396  0.2835
11139SOL    HW134659   3.196   2.773   3.246 -1.3133 -0.8563  0.4859
11139SOL    HW234660   3.312   2.677   3.239 -0.2962  0.5181 -2.0170
11140SOL     OW34661   8.174   3.125   3.178 -0.1989  0.0729 -0.2182
11140SOL    HW134662   8.104   3.061   3.166 -0.6901  0.7786 -1.1736
11140SOL    HW234663   8.162   3.187   3.106  0.0487  1.4410  0.9109
11141SOL     OW34664   5.249   2.762   3.130  0.3644  0.0558 -0.0203
11141SOL    HW134665   5.213   2.795   3.213  0.4755  0.1307 -0.0014
11141SOL    HW234666   5.292   2.680   3.154 -0.7205 -0.5806 -0.2325
11142SOL     OW34667   5.534   7.253   8.122  0.0178  0.6544 -0.0443
11142SOL    HW134668   5.492   7.274   8.205  0.4659 -0.2040  0.4088
11142SOL    HW234669   5.475   7.190   8.081 -0.5599  1.6255 -0.7006
11143SOL     OW34670   6.795   2.104   7.509  0.8164  0.2104 -0.0338
11143SOL    HW134671   6.772   2.196   7.520  0.5708  0.0412  0.9583
11143SOL    HW234672   6.726   2.057   7.557  0.1637 -0.5566 -1.6536
11144SOL     OW34673   4.949   7.361   1.378  0.5423  0.6039 -0.2299
11144SOL    HW134674   4.909   7.317   1.304 -0.4618 -0.7428  1.0911
11144SOL    HW234675   5.025   7.308   1.400  1.1555  1.3033 -0.6194
11145SOL     OW34676   0.055   5.868   5.223 -0.2946  0.4345  0.8682
11145SOL    HW134677  -0.035   5.900   5.223 -0.3171  0.4354 -0.8155
11145SOL    HW234678   0.088   5.890   5.135  1.6753  1.3567  1.8095
11146SOL     OW34679   2.273   6.573   6.240  0.4575 -0.6115  0.2058
11146SOL    HW134680   2.308   6.572   6.151 -0.7784  1.4984 -0.3350
11146SOL    HW234681   2.192   6.522   6.234 -0.9155  1.5765 -0.4789
11147SOL     OW34682   1.980   0.551   0.844 -0.3727  0.3876  0.3785
11147SOL    HW134683   1.951   0.562   0.753  0.4766 -0.8600 -0.0542
11147SOL    HW234684   2.059   0.499   0.837 -1.9389 -2.3012  2.0443
11148SOL     OW34685   3.357   6.334   1.315 -0.6656  0.0243  0.0245
11148SOL    HW134686   3.350   6.239   1.317  0.8862 -0.1081 -0.3233
11148SOL    HW234687   3.406   6.356   1.394  2.9269  0.1306 -2.1009
11149SOL     OW34688   6.466   2.333   7.430 -0.0640  0.1137 -0.4021
11149SOL    HW134689   6.462   2.320   7.336  0.2372  1.2693 -0.5759
11149SOL    HW234690   6.444   2.425   7.443  0.6433  0.1475  0.6019
11150SOL     OW34691   4.883   2.517   4.244  0.0473 -0.0545  0.2778
11150SOL    HW134692   4.906   2.476   4.160  2.8815 -1.5013  1.6836
11150SOL    HW234693   4.877   2.610   4.224 -0.3199 -0.4849 -1.7478
11151SOL     OW34694   7.001   4.447   1.915 -0.2582 -0.4646 -0.3724
11151SOL    HW134695   6.906   4.452   1.924 -0.3054  0.2119 -1.1716
11151SOL    HW234696   7.028   4.387   1.984 -1.2909 -0.8646 -0.2958
11152SOL     OW34697   0.614   2.729   6.361 -0.1864 -0.1724  0.1853
11152SOL    HW134698   0.591   2.674   6.286 -0.8678  0.4777 -0.0946
11152SOL    HW234699   0.535   2.782   6.376  0.7512  1.3293 -0.0954
11153SOL     OW34700   2.614   4.427   7.454 -0.0149 -0.5116  0.0979
11153SOL    HW134701   2.696   4.463   7.421 -0.6950  1.6251  0.6310
11153SOL    HW234702   2.575   4.382   7.379  1.6872 -1.6867 -0.1162
11154SOL     OW34703   3.276   1.800   7.925  0.2490 -0.3943 -0.9004
11154SOL    HW134704   3.206   1.765   7.980  0.6429  1.4766  0.8952
11154SOL    HW234705   3.236   1.873   7.878  0.8079  0.3157 -0.3053
11155SOL     OW34706   5.922   3.588   1.663  0.2046  0.3135  0.3336
11155SOL    HW134707   5.848   3.644   1.687 -1.2523 -1.4974  0.0803
11155SOL    HW234708   5.971   3.579   1.745  0.1063  1.4105  0.5338
11156SOL     OW34709   5.860   7.446   0.017  0.5428  0.6326  0.5591
11156SOL    HW134710   5.798   7.502  -0.028  0.6737 -0.2388 -0.7468
11156SOL    HW234711   5.862   7.478   0.107 -1.4947  0.9032  0.5166
11157SOL     OW34712   1.743   3.600   7.548  0.1457 -0.2433  0.5076
11157SOL    HW134713   1.802   3.605   7.472  0.2985  0.3980  0.6641
11157SOL    HW234714   1.662   3.640   7.517  0.4538  0.7148  0.9066
11158SOL     OW34715   3.672   4.363   7.021  0.0239 -0.0685 -0.2280
11158SOL    HW134716   3.610   4.376   6.949  0.9748 -0.3700 -1.1181
11158SOL    HW234717   3.758   4.367   6.979  0.5599 -1.3255  0.7185
11159SOL     OW34718   2.927   3.309   1.748  0.6908  0.3028 -0.1243
11159SOL    HW134719   2.856   3.298   1.811  0.6239 -0.5026 -0.3482
11159SOL    HW234720   2.886   3.302   1.662  1.1981 -1.2735 -0.2590
11160SOL     OW34721   6.632   7.462   4.807 -0.1286  0.3182 -0.3990
11160SOL    HW134722   6.561   7.398   4.797  0.3489 -0.1939 -0.4971
11160SOL    HW234723   6.612   7.507   4.889  0.0428 -0.5787  0.1306
11161SOL     OW34724   5.510   0.724   7.228  0.2681  0.4933  0.1170
11161SOL    HW134725   5.463   0.662   7.284  1.0410  0.7833  1.0919
11161SOL    HW234726   5.484   0.700   7.139 -0.7192 -0.1751  0.5760
11162SOL     OW34727   4.850   2.538   6.543  0.4729 -0.0496  0.3031
11162SOL    HW134728   4.860   2.586   6.460  1.6194  0.2243  0.5884
11162SOL    HW234729   4.791   2.591   6.595 -1.1487 -0.7727 -0.7461
11163SOL     OW34730   7.088   3.480   2.073  0.3212  0.6414  0.0571
11163SOL    HW134731   7.017   3.442   2.125 -1.0047  0.7591 -1.6564
11163SOL    HW234732   7.127   3.406   2.028  2.0781  0.4053  1.8908
11164SOL     OW34733   7.850   5.165   2.920 -0.6747  0.1610  0.0952
11164SOL    HW134734   7.925   5.136   2.971 -1.3192  0.2729  1.1298
11164SOL    HW234735   7.775   5.149   2.977 -1.5520 -1.0378 -1.3759
11165SOL     OW34736   5.784   2.978   7.476 -0.6552  0.0465  0.1147
11165SOL    HW134737   5.816   3.051   7.423 -0.2504  0.3186  0.7213
11165SOL    HW234738   5.692   2.970   7.454 -0.6940  0.7285  0.0318
11166SOL     OW34739   8.056   6.516   5.775 -0.1385  0.0277  0.1330
11166SOL    HW134740   8.100   6.483   5.696 -1.7430 -1.7470 -0.0684
11166SOL    HW234741   8.056   6.611   5.765  0.8529 -0.1116 -1.3639
11167SOL     OW34742   5.587   6.895   0.581 -0.0039  0.0179  0.1706
11167SOL    HW134743   5.575   6.990   0.581  0.6267  0.1189 -1.1174
11167SOL    HW234744   5.671   6.882   0.624  0.1088  0.0754 -0.0317
11168SOL     OW34745   4.501   7.892   7.232  0.2290  0.6221  0.2367
11168SOL    HW134746   4.576   7.927   7.184  0.6830  1.1844  1.3312
11168SOL    HW234747   4.470   7.966   7.285 -1.4463  0.5481 -0.6366
11169SOL     OW34748   5.604   2.084   3.350 -0.7381 -0.2739 -0.1526
11169SOL    HW134749   5.604   2.051   3.439  0.3931 -2.7352 -1.0326
11169SOL    HW234750   5.658   2.163   3.353 -1.0865 -0.0810  1.3990
11170SOL     OW34751   4.735   5.201   1.018 -0.1362  0.7140 -0.1962
11170SOL    HW134752   4.706   5.187   0.928  1.0477  1.3097 -0.6881
11170SOL    HW234753   4.673   5.152   1.071 -1.1783  0.8064 -1.2984
11171SOL     OW34754   5.282   4.401   3.783 -0.1499 -0.0668 -0.1743
11171SOL    HW134755   5.229   4.475   3.812  2.7245  2.0613 -0.1247
11171SOL    HW234756   5.301   4.419   3.691  0.0439 -1.1029 -0.3537
11172SOL     OW34757   0.171   2.258   7.854  0.3045 -0.2024 -0.1544
11172SOL    HW134758   0.257   2.299   7.855  1.3343 -2.2863 -0.7154
11172SOL    HW234759   0.116   2.316   7.908  2.3744  0.4531  1.3096
11173SOL     OW34760   0.220   3.166   1.933 -0.5280  0.3468 -0.0251
11173SOL    HW134761   0.163   3.091   1.920 -0.6691  0.7038 -1.5959
11173SOL    HW234762   0.217   3.214   1.850  0.8647  1.1850  0.3749
11174SOL     OW34763   6.268   6.646   4.763  0.2037  0.0378 -0.2459
11174SOL    HW134764   6.299   6.687   4.683 -0.1486 -2.0698 -1.4884
11174SOL    HW234765   6.286   6.711   4.832  1.6534  1.3491 -1.8226
11175SOL     OW34766   1.925   0.033   5.044  0.0160  0.5042  0.3700
11175SOL    HW134767   1.897  -0.059   5.043 -0.3712  0.6252 -0.5087
11175SOL    HW234768   1.850   0.080   5.009  0.9328  0.9612 -0.9883
11176SOL     OW34769   6.831   0.786   5.248  0.0305  0.0796 -0.3644
11176SOL    HW134770   6.797   0.700   5.274  1.6117 -0.3029  0.4678
11176SOL    HW234771   6.774   0.813   5.176 -1.2499 -1.1163  0.1719
11177SOL     OW34772   7.477   3.009   4.074 -0.0143 -0.3744  0.1602
11177SOL    HW134773   7.473   3.005   4.169  0.7552  1.1251  0.2711
11177SOL    HW234774   7.385   3.008   4.046 -0.2217 -2.0477  0.8337
11178SOL     OW34775   7.345   4.280   5.498  0.1820 -0.4606  0.1476
11178SOL    HW134776   7.355   4.206   5.559  2.2823  0.3484  0.8481
11178SOL    HW234777   7.410   4.263   5.430 -2.0197 -1.2555 -1.8186
11179SOL     OW34778   4.018   6.156   3.925 -0.1185  0.8701  0.0445
11179SOL    HW134779   4.004   6.225   3.860 -1.5671  1.3775  0.8864
11179SOL    HW234780   3.958   6.177   3.997 -0.2974 -1.0459  0.4871
11180SOL     OW34781   8.274   0.006   4.627 -0.3263 -0.3003 -0.6998
11180SOL    HW134782   8.300   0.093   4.596  0.1802 -0.6508 -1.2478
11180SOL    HW234783   8.216   0.025   4.702  0.8599  0.4825  0.0390
11181SOL     OW34784   2.863   2.662   4.948  0.1449  0.2056  0.3583
11181SOL    HW134785   2.869   2.600   4.876  0.8260  0.1118  0.4825
11181SOL    HW234786   2.849   2.607   5.026  0.2253  0.2450  0.4002
11182SOL     OW34787   0.837   0.227   5.958 -0.2455  0.3761 -0.0243
11182SOL    HW134788   0.892   0.272   6.022  0.4673 -1.4787  0.7341
11182SOL    HW234789   0.753   0.216   6.003 -0.5010  1.1778 -0.3076
11183SOL     OW34790   5.799   3.589   2.524 -0.4272  0.6479 -0.1426
11183SOL    HW134791   5.823   3.550   2.608  0.4127  0.7168 -0.3532
11183SOL    HW234792   5.852   3.668   2.517  0.0205  0.2804 -1.0474
11184SOL     OW34793   3.619   6.560   5.119 -0.4140  0.1810  0.2347
11184SOL    HW134794   3.544   6.514   5.158  0.4023 -0.7507  0.7180
11184SOL    HW234795   3.695   6.509   5.146  0.3103  0.4888 -1.1892
11185SOL     OW34796   6.524   2.046   0.485 -0.3326  0.8042  0.1763
11185SOL    HW134797   6.551   2.118   0.429  1.2407  0.7969  0.9088
11185SOL    HW234798   6.594   1.982   0.478 -0.7813  0.2034  1.0799
11186SOL     OW34799   1.754   5.662   2.892  0.2140 -0.3693  0.4811
11186SOL    HW134800   1.671   5.680   2.937  0.2593  1.9708 -0.3243
11186SOL    HW234801   1.811   5.735   2.914  1.3366 -0.8374 -0.7466
11187SOL     OW34802   3.220   1.879   4.323  0.4667  0.0380  0.1437
11187SOL    HW134803   3.265   1.958   4.353 -0.5492  1.3903 -1.7294
11187SOL    HW234804   3.270   1.851   4.245 -0.8905  0.5760 -0.9459
11188SOL     OW34805   6.247   5.952   8.085  0.0223 -0.5745  0.2645
11188SOL    HW134806   6.162   5.986   8.057  0.8964  0.5607 -1.0601
11188SOL    HW234807   6.306   6.027   8.079  1.2179 -1.4632  0.7347
11189SOL     OW34808   8.036   3.853   5.065 -0.6393  0.2930 -0.2664
11189SOL    HW134809   8.085   3.822   5.142 -1.4352  0.1807  0.2049
11189SOL    HW234810   8.102   3.865   4.997  0.0361  0.1062  0.3527
11190SOL     OW34811   2.510   6.057   5.646  0.7851  0.3762 -0.0991
11190SOL    HW134812   2.456   6.028   5.720  1.6375  2.3971  1.3862
11190SOL    HW234813   2.573   5.987   5.633  1.6290  0.6678  2.1649
11191SOL     OW34814   6.557   2.115   7.867 -0.7045  0.1645  0.3624
11191SOL    HW134815   6.616   2.064   7.810  2.5668  2.3563  1.6076
11191SOL    HW234816   6.503   2.165   7.807 -0.2624 -0.7821 -0.8448
11192SOL     OW34817   3.070   2.540   5.914  0.6184  0.1020 -0.2348
11192SOL    HW134818   3.111   2.474   5.859  2.1468 -1.0213  2.1799
11192SOL    HW234819   3.009   2.492   5.969 -1.9367  1.3984 -1.8401
11193SOL     OW34820   1.627   4.742   0.239 -0.1730 -0.4930  0.9713
11193SOL    HW134821   1.535   4.720   0.222 -0.1333  0.1946 -0.1456
11193SOL    HW234822   1.653   4.797   0.165  0.7580  0.4067  1.9618
11194SOL     OW34823   5.422   6.722   0.164 -0.1830  0.6337  0.6200
11194SOL    HW134824   5.327   6.731   0.155 -0.0322  0.4524 -1.2308
11194SOL    HW234825   5.449   6.798   0.215 -1.2463  1.0108  0.6282
11195SOL     OW34826   0.241   4.433   0.267 -0.6866  0.0232  0.2751
11195SOL    HW134827   0.236   4.523   0.300  1.7990 -0.1297  1.1759
11195SOL    HW234828   0.241   4.378   0.346  1.8720 -0.5401 -0.0964
11196SOL     OW34829   4.199   2.904   0.110  0.1915 -0.1324 -0.2224
11196SOL    HW134830   4.116   2.946   0.133 -0.2376  0.1204 -2.1602
11196SOL    HW234831   4.222   2.941   0.025  1.4785 -1.4020 -0.4495
11197SOL     OW34832   4.579   3.598   2.120 -0.1222 -0.3023  0.4787
11197SOL    HW134833   4.620   3.570   2.202 -1.4897 -3.0511  0.2816
11197SOL    HW234834   4.646   3.649   2.075  0.8956  0.6054  2.9707
11198SOL     OW34835   3.193   7.816   5.654 -0.4819 -0.1976 -0.8013
11198SOL    HW134836   3.171   7.881   5.587  1.0176  0.8300 -0.3241
11198SOL    HW234837   3.196   7.866   5.736  0.6970 -0.8511 -0.4331
11199SOL     OW34838   1.163   1.464   4.218 -0.1663  0.7186  0.0238
11199SOL    HW134839   1.167   1.498   4.308  0.9704  0.4403  0.0892
11199SOL    HW234840   1.089   1.403   4.219  0.8315 -0.5080  1.2201
11200SOL     OW34841   2.197   3.477   0.297  0.1690 -0.2350  0.3387
11200SOL    HW134842   2.226   3.511   0.213  0.0911 -0.4414  0.2293
11200SOL    HW234843   2.130   3.539   0.326 -0.0515 -0.3542  0.0874
11201SOL     OW34844   5.841   5.808   8.292 -0.3233  1.2641  0.6269
11201SOL    HW134845   5.775   5.819   8.360 -1.1883 -0.1134  0.0418
11201SOL    HW234846   5.810   5.733   8.241  1.1419  1.2745 -0.3059
11202SOL     OW34847   1.528   2.513   4.567 -0.3726 -0.3519  0.0400
11202SOL    HW134848   1.473   2.579   4.526  0.9493  0.6518 -0.1540
11202SOL    HW234849   1.467   2.442   4.590 -1.7865  0.8494  0.1109
11203SOL     OW34850   1.718   0.406   7.242  0.0397  0.2609  0.4838
11203SOL    HW134851   1.802   0.362   7.239  0.9029  1.9177 -0.2536
11203SOL    HW234852   1.700   0.431   7.151 -1.2236 -0.0319  0.6332
11204SOL     OW34853   3.197   3.348   7.577 -0.2558 -0.6879  0.2130
11204SOL    HW134854   3.106   3.320   7.586 -0.4683 -0.9236 -2.2913
11204SOL    HW234855   3.206   3.371   7.485  2.1801 -0.4812  0.4696
11205SOL     OW34856   5.482   3.805   8.215 -0.1195  0.3909  0.1793
11205SOL    HW134857   5.503   3.863   8.288  2.8968 -0.4277  0.0194
11205SOL    HW234858   5.387   3.809   8.208 -0.2970  1.9929  2.8889
11206SOL     OW34859   3.819   6.132   4.897 -0.0326  0.5019 -0.9927
11206SOL    HW134860   3.781   6.056   4.942 -2.0343  1.2982 -1.2857
11206SOL    HW234861   3.896   6.154   4.949  1.0273 -2.1732 -1.3251
11207SOL     OW34862   1.185   6.954   2.791 -0.2629  0.3048 -0.5286
11207SOL    HW134863   1.127   6.970   2.717 -0.8609  0.4466 -0.0303
11207SOL    HW234864   1.237   7.034   2.799 -1.0972  0.7978  0.0165
11208SOL     OW34865   4.658   4.934   7.674  0.5139 -0.3950 -0.0154
11208SOL    HW134866   4.621   4.986   7.603  0.0715 -0.1610  0.3865
11208SOL    HW234867   4.704   4.997   7.730  1.1770 -0.6291 -0.2880
11209SOL     OW34868   0.604   1.335   7.722 -0.2719 -0.3496  0.4930
11209SOL    HW134869   0.692   1.360   7.751 -0.0851  0.2202 -0.5181
11209SOL    HW234870   0.547   1.357   7.795  0.3341 -0.0058  0.8672
11210SOL     OW34871   7.855   2.622   2.534 -0.4555  0.6760 -0.3890
11210SOL    HW134872   7.776   2.672   2.554  0.2873  1.6308  0.2705
11210SOL    HW234873   7.883   2.586   2.618 -1.3484 -1.4343 -0.9751
11211SOL     OW34874   5.610   1.659   6.380 -0.1749 -0.3197  0.3739
11211SOL    HW134875   5.680   1.710   6.340 -2.7665  1.0101 -2.6985
11211SOL    HW234876   5.635   1.568   6.363  1.4871  0.0731  0.5772
11212SOL     OW34877   1.563   0.702   5.832  0.5159  0.2316 -0.0490
11212SOL    HW134878   1.545   0.750   5.913  0.6386  0.5157 -0.1869
11212SOL    HW234879   1.489   0.724   5.775 -0.1036 -0.7926  0.3457
11213SOL     OW34880   3.853   2.718   7.061  0.3427  0.2869 -0.0652
11213SOL    HW134881   3.764   2.739   7.088  0.6163  0.8896  0.3823
11213SOL    HW234882   3.886   2.798   7.019  1.0513  0.4492  0.7715
11214SOL     OW34883   3.370   7.478   3.869  0.1492  0.5317  0.1770
11214SOL    HW134884   3.440   7.454   3.930 -0.0078  0.1115  0.1976
11214SOL    HW234885   3.381   7.572   3.854  2.1325  0.0366 -1.6444
11215SOL     OW34886   5.727   5.896   1.230 -0.8848  0.7760 -0.1351
11215SOL    HW134887   5.814   5.871   1.199 -1.0319 -0.2017  0.2136
11215SOL    HW234888   5.699   5.964   1.169 -1.1683 -1.1156 -2.1949
11216SOL     OW34889   5.072   5.031   3.136 -0.1098  0.4257 -0.2511
11216SOL    HW134890   5.055   5.099   3.071 -0.0453  0.2485 -0.4574
11216SOL    HW234891   5.121   4.965   3.087  0.1586  0.4087  0.0435
11217SOL     OW34892   5.332   8.276   1.913 -0.1400  0.0474 -0.0232
11217SOL    HW134893   5.321   8.328   1.834 -0.1291  1.1795  0.7185
11217SOL    HW234894   5.246   8.279   1.956 -0.6308 -1.9388 -0.8203
11218SOL     OW34895   3.597   6.457   5.441  0.0329 -0.0696 -0.6636
11218SOL    HW134896   3.624   6.544   5.413 -2.1837  0.2933 -1.7667
11218SOL    HW234897   3.556   6.418   5.364  0.4635 -1.8632 -0.0096
11219SOL     OW34898   2.585   0.104   4.832 -0.0106  0.3853 -0.2147
11219SOL    HW134899   2.544   0.186   4.858 -0.9168 -0.1860  0.1724
11219SOL    HW234900   2.549   0.038   4.892  1.6506 -0.0924  0.2824
11220SOL     OW34901   0.661   7.418   7.249 -0.7384 -0.6060 -0.1921
11220SOL    HW134902   0.721   7.447   7.180 -0.7075 -0.5501 -0.1417
11220SOL    HW234903   0.575   7.452   7.222 -0.2863  1.7387  1.1604
11221SOL     OW34904   6.174   3.952   0.506 -0.1052  0.2548  0.2241
11221SOL    HW134905   6.190   3.857   0.502 -1.9269 -0.0610  0.1122
11221SOL    HW234906   6.099   3.966   0.448  0.0822  1.7634  0.3316
11222SOL     OW34907   4.846   1.340   0.293  0.1695 -0.1960 -1.0499
11222SOL    HW134908   4.769   1.339   0.350  1.8420 -1.4486  1.2343
11222SOL    HW234909   4.825   1.405   0.225 -1.2186  2.4979  1.8626
11223SOL     OW34910   5.987   5.735   7.975  0.1918  0.1185  0.4515
11223SOL    HW134911   5.908   5.682   7.974  0.0068  0.4068 -0.0100
11223SOL    HW234912   6.058   5.673   7.959  0.0309 -0.0840  0.5224
11224SOL     OW34913   1.609   3.705   3.240  0.0455  0.1020 -0.0366
11224SOL    HW134914   1.578   3.783   3.287 -1.9864 -0.4538 -0.4206
11224SOL    HW234915   1.543   3.690   3.172 -0.0466 -2.4506  0.5692
11225SOL     OW34916   4.548   4.990   5.616  0.1304  0.2903  0.4794
11225SOL    HW134917   4.533   5.064   5.674 -1.5633  1.2711 -1.1358
11225SOL    HW234918   4.464   4.943   5.614  0.0261  0.5075 -1.4461
11226SOL     OW34919   6.246   1.754   0.928 -0.6955 -0.4699 -0.2799
11226SOL    HW134920   6.321   1.780   0.981 -0.7792 -0.2707 -0.2583
11226SOL    HW234921   6.240   1.659   0.939 -0.4789 -0.4798 -0.2419
11227SOL     OW34922   3.528   6.155   5.506  0.6280  0.0342  0.6183
11227SOL    HW134923   3.608   6.208   5.501  0.5833  0.1681  1.2480
11227SOL    HW234924   3.549   6.076   5.457  1.4478 -0.3015  1.4868
11228SOL     OW34925   5.085   5.964   4.205  0.0845  0.0359  0.1293
11228SOL    HW134926   5.084   5.868   4.207  0.3909  0.0392  0.4774
11228SOL    HW234927   5.069   5.986   4.113  1.8834 -0.3800 -0.3125
11229SOL     OW34928   7.056   3.774   7.810 -0.0801  0.1135  0.0144
11229SOL    HW134929   7.123   3.712   7.837 -1.1544 -1.0073  0.1550
11229SOL    HW234930   7.059   3.771   7.714 -2.0888 -2.3665 -0.0186
11230SOL     OW34931   4.812   7.868   3.919 -0.0505 -1.0017 -0.2343
11230SOL    HW134932   4.804   7.814   3.841  0.9979 -0.2675 -0.8573
11230SOL    HW234933   4.843   7.808   3.987 -0.8688 -1.6155 -0.4009
11231SOL     OW34934   0.705   4.719   5.768 -0.4608  0.3874 -0.8144
11231SOL    HW134935   0.654   4.785   5.815 -0.7557 -0.6120  0.2958
11231SOL    HW234936   0.791   4.721   5.809 -0.3519  0.3429 -1.0369
11232SOL     OW34937   4.746   1.050   7.941  0.0017  0.0962 -0.2240
11232SOL    HW134938   4.692   0.995   7.998 -0.5990 -0.2561 -1.1112
11232SOL    HW234939   4.746   1.136   7.983  1.3933 -0.7042  1.4613
11233SOL     OW34940   3.986   5.824   3.323  0.2313 -0.0214  0.0843
11233SOL    HW134941   4.046   5.754   3.298  2.0426  1.9315 -1.2762
11233SOL    HW234942   3.900   5.782   3.328  1.3160 -2.3627 -0.4262
11234SOL     OW34943   1.570   4.039   0.121  0.1531  0.5340  0.6168
11234SOL    HW134944   1.532   4.121   0.089 -1.7724 -0.0560  1.2931
11234SOL    HW234945   1.497   3.978   0.121  1.7095 -1.3812 -0.4810
11235SOL     OW34946   3.703   2.429   3.812 -0.0445  0.0304  0.3406
11235SOL    HW134947   3.781   2.472   3.776 -0.1731  0.3783  0.4738
11235SOL    HW234948   3.630   2.469   3.764 -0.2534  0.8320  1.2995
11236SOL     OW34949   7.262   7.206   0.030 -0.4304 -0.0697  0.4421
11236SOL    HW134950   7.342   7.177   0.075 -0.2911 -0.6296 -0.1627
11236SOL    HW234951   7.234   7.130  -0.021 -1.2841  0.1667  0.5510
11237SOL     OW34952   3.453   3.024   5.022 -0.0707  0.3361 -0.4739
11237SOL    HW134953   3.541   3.045   4.991 -0.3921  0.9719 -0.9697
11237SOL    HW234954   3.453   2.929   5.032  1.0651  0.4641  0.7484
11238SOL     OW34955   7.180   1.904   1.502 -0.1273 -0.3323  0.5879
11238SOL    HW134956   7.183   1.969   1.572  1.3644 -1.5127  1.6361
11238SOL    HW234957   7.271   1.893   1.475 -0.6539 -0.1612 -1.2874
11239SOL     OW34958   0.635   3.605   5.259  0.5214 -0.4631  0.7413
11239SOL    HW134959   0.668   3.547   5.328  1.8458 -0.1973  0.3299
11239SOL    HW234960   0.705   3.667   5.243 -0.0891 -0.0198 -0.2968
11240SOL     OW34961   1.232   4.112   6.091 -0.4051 -0.0582 -0.0530
11240SOL    HW134962   1.276   4.055   6.154 -0.1318  2.1547  1.8142
11240SOL    HW234963   1.142   4.081   6.090 -0.5437  0.2217  1.8715
11241SOL     OW34964   2.995   2.910   0.218  0.5094 -0.4834  0.4179
11241SOL    HW134965   3.015   2.820   0.194 -2.0323 -0.5291 -1.7290
11241SOL    HW234966   3.000   2.960   0.136  1.1264  1.1953  1.4381
11242SOL     OW34967   3.954   1.583   7.992 -0.3167 -0.6194 -0.5101
11242SOL    HW134968   3.861   1.598   8.003 -0.5589 -1.6733 -1.0599
11242SOL    HW234969   3.978   1.526   8.065  0.3207  1.2322  0.7808
11243SOL     OW34970   3.982   0.429   7.129 -0.1060  0.1517  0.1444
11243SOL    HW134971   3.946   0.510   7.094  0.6119  0.8773  1.0622
11243SOL    HW234972   4.056   0.409   7.071  1.2019  1.4555  1.3190
11244SOL     OW34973   8.307   1.837   3.866  0.4394  0.4274 -0.5246
11244SOL    HW134974   8.385   1.821   3.919 -2.1792 -1.6285  2.9172
11244SOL    HW234975   8.287   1.930   3.880  0.6608  0.2766  0.8616
11245SOL     OW34976   2.975   7.419   5.906 -0.2588  0.4528  0.6399
11245SOL    HW134977   3.051   7.390   5.856  0.8836 -0.5121  2.8671
11245SOL    HW234978   2.974   7.514   5.895  1.3589  0.4895  0.6883
11246SOL     OW34979   4.901   0.798   1.033  0.0736 -0.3131  0.2119
11246SOL    HW134980   4.944   0.881   1.051 -0.2712 -0.0159 -0.3001
11246SOL    HW234981   4.954   0.758   0.964  0.4088 -0.6592  0.6654
11247SOL     OW34982   2.931   0.686   1.998 -0.3542  0.4750 -0.0976
11247SOL    HW134983   2.895   0.673   2.085  0.1817  0.6876  0.1540
11247SOL    HW234984   2.855   0.708   1.944 -0.7597 -0.1784  0.2016
11248SOL     OW34985   3.464   5.578   1.195 -0.1092 -0.6347 -0.1331
11248SOL    HW134986   3.517   5.616   1.125  0.3015 -1.1914 -0.1269
11248SOL    HW234987   3.402   5.521   1.149 -1.2953  0.6829 -0.2135
11249SOL     OW34988   7.661   5.923   7.400 -0.5868  0.3263 -0.5175
11249SOL    HW134989   7.570   5.928   7.372 -0.5097  2.1243 -0.4947
11249SOL    HW234990   7.660   5.952   7.491  0.0515  0.6718 -0.6189
11250SOL     OW34991   1.132   2.243   2.473 -0.3884 -0.0978  0.1076
11250SOL    HW134992   1.152   2.159   2.515  2.0487  0.1668 -0.4034
11250SOL    HW234993   1.069   2.222   2.405 -0.4217 -1.3760  0.5164
11251SOL     OW34994   7.560   6.755   4.391 -0.1572  0.9204 -0.1038
11251SOL    HW134995   7.468   6.728   4.397  0.1757 -0.7096 -1.7836
11251SOL    HW234996   7.603   6.681   4.348  1.7864  2.0204 -0.0645
11252SOL     OW34997   6.504   4.298   8.058 -0.2312 -0.2108  0.4882
11252SOL    HW134998   6.585   4.276   8.011  0.5725  2.8442  0.3491
11252SOL    HW234999   6.467   4.213   8.081  1.1489 -1.7693 -2.6029
11253SOL     OW35000   2.433   3.606   6.122  0.4529  0.4148  0.0843
11253SOL    HW135001   2.454   3.626   6.031 -0.5043 -0.0261 -0.2328
11253SOL    HW235002   2.517   3.580   6.160  0.5652 -1.0358 -1.1063
11254SOL     OW35003   4.464   2.052   0.204  0.2486  0.2237  0.1613
11254SOL    HW135004   4.521   1.977   0.187  0.5615  0.1723  1.4078
11254SOL    HW235005   4.494   2.086   0.288 -0.9594  0.7600  0.3791
11255SOL     OW35006   1.002   3.470   5.103 -0.2431  0.5899 -0.1429
11255SOL    HW135007   1.073   3.412   5.077  1.1056  1.9391  0.4323
11255SOL    HW235008   1.009   3.545   5.043  0.3884  1.8665  1.4760
11256SOL     OW35009   1.037   0.066   4.442  0.0354 -0.0310  0.5254
11256SOL    HW135010   0.989   0.123   4.382  0.3783 -0.2205  0.0616
11256SOL    HW235011   1.117   0.043   4.394  0.0186 -0.6952  0.8050
11257SOL     OW35012   2.586   2.341   3.463  0.3917  0.4017 -0.4061
11257SOL    HW135013   2.598   2.392   3.383 -0.5202  0.8791 -0.2438
11257SOL    HW235014   2.517   2.278   3.441  0.5440  0.1513 -0.1740
11258SOL     OW35015   5.829   4.235   6.128 -0.1081  0.2678 -0.0103
11258SOL    HW135016   5.856   4.263   6.215 -0.3424  0.6687 -0.0643
11258SOL    HW235017   5.747   4.282   6.112  0.4416  0.9586 -0.8345
11259SOL     OW35018   6.416   7.401   7.646  0.4815  0.4594 -0.0086
11259SOL    HW135019   6.338   7.363   7.606 -0.2680  2.2165 -0.2174
11259SOL    HW235020   6.452   7.459   7.580  1.9332 -0.2566  0.1258
11260SOL     OW35021   7.234   4.096   6.704  0.0779  0.4269 -0.0824
11260SOL    HW135022   7.320   4.068   6.735 -0.6294  0.0747  1.6224
11260SOL    HW235023   7.193   4.016   6.671 -0.2020  0.2717  0.6155
11261SOL     OW35024   5.401   6.342   0.310 -0.1411 -0.0514 -0.5715
11261SOL    HW135025   5.369   6.401   0.379  1.5385  0.9593 -0.6171
11261SOL    HW235026   5.429   6.264   0.358  2.9505  1.4418  0.2111
11262SOL     OW35027   1.854   7.465   4.618  0.2694 -0.0028  0.4558
11262SOL    HW135028   1.932   7.503   4.660  1.5461 -1.7239 -0.3214
11262SOL    HW235029   1.840   7.521   4.541  1.0933 -0.0309  0.2739
11263SOL     OW35030   0.392   7.790   5.689 -0.3455  0.4894  0.0285
11263SOL    HW135031   0.341   7.738   5.628  0.6238  0.1013 -0.4648
11263SOL    HW235032   0.415   7.869   5.641  0.7432  0.0132 -0.2550
11264SOL     OW35033   5.259   1.613   0.768 -0.1833  0.4046 -0.2434
11264SOL    HW135034   5.342   1.649   0.800  0.4000 -1.3988  0.3282
11264SOL    HW235035   5.224   1.564   0.842 -2.0571  1.6197 -0.2945
11265SOL     OW35036   1.438   3.285   4.257 -0.1768  0.1465  0.1632
11265SOL    HW135037   1.419   3.221   4.326 -0.7778  0.2459  0.0961
11265SOL    HW235038   1.524   3.260   4.223 -1.2463 -1.8058 -1.2008
11266SOL     OW35039   6.547   2.803   0.388 -0.4758 -0.3380 -0.3495
11266SOL    HW135040   6.549   2.739   0.317 -0.8791 -0.6498 -0.0837
11266SOL    HW235041   6.536   2.750   0.467 -1.5048  0.1119 -0.1905
11267SOL     OW35042   3.005   3.724   7.670  0.2671  0.4222 -0.2350
11267SOL    HW135043   2.960   3.668   7.606  0.3868  0.6960 -0.5609
11267SOL    HW235044   2.942   3.792   7.690 -0.3855 -0.5862  1.1909
11268SOL     OW35045   4.961   2.034   3.387 -0.5757  0.4675 -1.0510
11268SOL    HW135046   4.932   1.949   3.420 -1.5073  0.7849 -1.0428
11268SOL    HW235047   4.983   2.084   3.466 -1.3963  0.7205 -0.9776
11269SOL     OW35048   4.395   3.707   7.144  0.2231 -0.0247 -0.0429
11269SOL    HW135049   4.301   3.724   7.147  0.4819  1.6005 -0.5825
11269SOL    HW235050   4.429   3.772   7.082  1.7984 -0.1189  0.6951
11270SOL     OW35051   1.172   8.187   2.380 -0.1289  0.3153  0.0986
11270SOL    HW135052   1.102   8.189   2.314  1.5312 -0.1210 -1.7041
11270SOL    HW235053   1.223   8.266   2.362  1.7874 -1.0736 -0.7992
11271SOL     OW35054   5.395   1.606   5.753 -0.2418  0.1152 -0.4426
11271SOL    HW135055   5.365   1.659   5.827 -0.8487 -1.4958  0.4846
11271SOL    HW235056   5.433   1.528   5.794 -2.4388 -1.7543 -1.8714
11272SOL     OW35057   3.623   5.217   2.214  0.6081  0.8059 -0.0601
11272SOL    HW135058   3.709   5.258   2.204  1.2172  0.5133  3.2555
11272SOL    HW235059   3.643   5.126   2.236 -0.5422  0.8740  1.3116
11273SOL     OW35060   0.961   8.246   6.914  0.2833 -0.8371  0.0798
11273SOL    HW135061   0.966   8.334   6.952 -1.4407  0.3513 -2.2775
11273SOL    HW235062   0.995   8.188   6.982 -0.6119  1.4055  2.5219
11274SOL     OW35063   5.639   7.112   3.831  0.5388  0.3505 -0.2476
11274SOL    HW135064   5.696   7.155   3.768  0.6583  0.8380  0.1840
11274SOL    HW235065   5.693   7.105   3.911  0.2881  0.0197 -0.1057
11275SOL     OW35066   4.393   8.100   6.854  0.2250  0.2088  0.0961
11275SOL    HW135067   4.469   8.044   6.837  0.8018  1.0937 -0.3105
11275SOL    HW235068   4.321   8.058   6.806  1.0460  0.7511 -1.6610
11276SOL     OW35069   3.324   6.165   4.398 -0.1003 -1.0993 -0.7686
11276SOL    HW135070   3.396   6.229   4.403 -0.6268 -0.5492 -0.1401
11276SOL    HW235071   3.343   6.103   4.468 -1.8609  0.7615  1.4417
11277SOL     OW35072   6.178   2.367   1.648  0.7388  0.5564 -0.1958
11277SOL    HW135073   6.248   2.406   1.700  2.2226 -1.7547 -0.3802
11277SOL    HW235074   6.216   2.359   1.560 -0.2591  0.5730 -0.6335
11278SOL     OW35075   7.334   1.031   3.823 -0.3570 -0.5792 -0.2245
11278SOL    HW135076   7.294   1.108   3.863 -0.8702 -0.8902 -0.1343
11278SOL    HW235077   7.349   1.056   3.732 -0.0698 -0.2044 -0.0758
11279SOL     OW35078   1.203   0.854   4.996 -0.0882  0.2753 -0.2729
11279SOL    HW135079   1.225   0.903   4.917  0.4577  0.0250 -0.2772
11279SOL    HW235080   1.121   0.808   4.974 -0.4961  1.0277 -0.3327
11280SOL     OW35081   5.838   1.137   5.349 -0.3954  0.3195  0.0825
11280SOL    HW135082   5.769   1.201   5.365 -0.0924  0.7861 -0.4936
11280SOL    HW235083   5.919   1.188   5.349 -0.1131 -0.1256  0.0536
11281SOL     OW35084   5.989   7.035   7.415  0.3973  0.3790 -0.2471
11281SOL    HW135085   5.974   6.995   7.500  0.1963  1.5603  0.2829
11281SOL    HW235086   6.008   6.961   7.357  0.6458 -0.4239  0.8354
11282SOL     OW35087   0.500   2.556   0.475 -0.0917  0.2951  0.0504
11282SOL    HW135088   0.433   2.513   0.528  0.3163  0.4675  0.7272
11282SOL    HW235089   0.504   2.645   0.510 -0.1435  0.5513 -0.5896
11283SOL     OW35090   3.511   0.768   2.843  0.0575 -0.0721  0.0836
11283SOL    HW135091   3.530   0.766   2.937  1.6430  1.3424 -0.2055
11283SOL    HW235092   3.479   0.856   2.827  1.3916  0.2086 -1.0194
11284SOL     OW35093   0.763   0.816   0.940 -0.4510  0.5407 -0.0712
11284SOL    HW135094   0.683   0.771   0.914 -0.2773  0.1171  0.1274
11284SOL    HW235095   0.792   0.770   1.019  0.7256 -0.1763 -0.9058
11285SOL     OW35096   4.098   3.293   3.766  0.1215 -0.1272 -0.3479
11285SOL    HW135097   4.142   3.227   3.820 -3.0628 -0.7532  1.6098
11285SOL    HW235098   4.169   3.342   3.726  2.6260 -0.4536  3.4180
11286SOL     OW35099   0.376   1.736   3.404  0.3042 -0.2866 -0.4371
11286SOL    HW135100   0.322   1.663   3.435 -1.5335  1.5663  0.8571
11286SOL    HW235101   0.393   1.716   3.312 -2.2594 -1.1556 -0.7632
11287SOL     OW35102   6.402   3.890   3.450  0.1851 -0.1617 -0.2771
11287SOL    HW135103   6.332   3.932   3.499  0.5416  0.1598 -0.0393
11287SOL    HW235104   6.482   3.933   3.481  0.4981 -0.6127 -0.4492
11288SOL     OW35105   3.221   6.154   7.369 -0.4005 -0.0512 -0.0946
11288SOL    HW135106   3.215   6.202   7.451 -0.8557 -0.0984 -0.0994
11288SOL    HW235107   3.257   6.218   7.307 -0.9522  0.2641 -0.0878
11289SOL     OW35108   4.747   5.427   4.350 -0.5683  0.3591 -0.3687
11289SOL    HW135109   4.805   5.406   4.277  1.1684  2.6404  0.3100
11289SOL    HW235110   4.777   5.512   4.380 -1.6937 -0.2526  2.5970
11290SOL     OW35111   6.366   4.383   2.184  0.3172 -0.1066  0.5109
11290SOL    HW135112   6.401   4.372   2.272  1.6708  0.0177  0.0130
11290SOL    HW235113   6.404   4.310   2.134 -2.1652 -1.4489  0.5178
11291SOL     OW35114   8.017   6.625   0.651 -0.2470 -0.0474  0.6387
11291SOL    HW135115   8.063   6.697   0.609  0.3732 -1.1314 -0.5991
11291SOL    HW235116   7.973   6.579   0.579 -1.5948 -0.2190  1.5488
11292SOL     OW35117   7.722   2.384   3.252 -0.5109  0.2065  0.7285
11292SOL    HW135118   7.720   2.372   3.347 -1.1748  0.4958  0.7556
11292SOL    HW235119   7.643   2.435   3.233 -0.3134  0.2571  0.0368
11293SOL     OW35120   5.462   4.979   0.405 -0.1332 -0.0259  0.0039
11293SOL    HW135121   5.427   4.932   0.329 -0.2940 -0.2418  0.2098
11293SOL    HW235122   5.430   5.068   0.395 -0.8244 -0.2441  0.2409
11294SOL     OW35123   3.028   2.723   5.396 -0.1604 -0.3168  0.2498
11294SOL    HW135124   3.001   2.643   5.441  0.2420 -0.4255  0.2995
11294SOL    HW235125   3.082   2.770   5.461 -0.5615  0.0897  0.2922
11295SOL     OW35126   0.059   1.845   2.923 -0.5536 -0.6182  0.9473
11295SOL    HW135127  -0.004   1.915   2.907 -0.3713 -0.4180  1.1162
11295SOL    HW235128   0.081   1.853   3.015 -0.8553 -1.1635  1.0747
11296SOL     OW35129   7.640   2.492   6.600 -0.5115  0.0630  0.3792
11296SOL    HW135130   7.667   2.402   6.616 -0.3926 -0.3621 -1.9489
11296SOL    HW235131   7.545   2.491   6.611 -0.7765 -0.8635 -1.6145
11297SOL     OW35132   1.205   7.407   6.735  0.5596 -0.6291  0.0528
11297SOL    HW135133   1.196   7.322   6.693 -0.3900  0.3602 -1.8135
11297SOL    HW235134   1.298   7.414   6.756  0.4633 -2.5410  1.1536
11298SOL     OW35135   3.919   1.319   4.133  0.3310  0.3904  0.6092
11298SOL    HW135136   3.968   1.292   4.056  0.3638  0.5320  0.5799
11298SOL    HW235137   3.829   1.292   4.116  0.4585 -0.1566  0.8047
11299SOL     OW35138   2.398   4.283   0.981  0.2803 -0.5389 -0.1357
11299SOL    HW135139   2.420   4.376   0.982 -0.2635 -0.3731 -1.8635
11299SOL    HW235140   2.468   4.243   0.929  1.5145 -1.3889  2.1024
11300SOL     OW35141   1.317   4.970   7.721  0.2895 -1.0138 -0.2955
11300SOL    HW135142   1.340   4.877   7.728  0.3262 -0.9871 -0.0424
11300SOL    HW235143   1.239   4.980   7.775  0.4865 -0.8309 -0.0385
11301SOL     OW35144   1.052   7.267   3.671 -0.1448 -0.5231 -0.1661
11301SOL    HW135145   0.961   7.251   3.646 -0.2452 -1.0953  0.5598
11301SOL    HW235146   1.051   7.351   3.715 -0.7109 -1.5679  1.8786
11302SOL     OW35147   5.358   4.388   0.229 -0.0527 -0.8645 -0.1712
11302SOL    HW135148   5.376   4.469   0.275  1.0639 -1.4504  0.4368
11302SOL    HW235149   5.270   4.400   0.193 -0.2848  0.2256  0.7362
11303SOL     OW35150   0.273   7.182   6.092  0.0376 -0.2536 -0.2175
11303SOL    HW135151   0.256   7.089   6.109 -0.4810 -0.0563  0.3287
11303SOL    HW235152   0.274   7.188   5.996  0.0283 -0.8141 -0.2561
11304SOL     OW35153   3.654   1.070   1.232  0.1675  0.1719  0.4412
11304SOL    HW135154   3.672   1.056   1.325 -0.8195  0.3388  0.6608
11304SOL    HW235155   3.561   1.051   1.222  0.4043 -0.4621 -0.6436
11305SOL     OW35156   4.772   3.466   0.356  0.1721  0.2958 -0.2538
11305SOL    HW135157   4.699   3.473   0.295 -0.0582 -0.7480 -0.0987
11305SOL    HW235158   4.732   3.458   0.442  0.3892 -2.7771 -0.3928
11306SOL     OW35159   0.369   0.012   6.518  0.0681  0.0176  0.2664
11306SOL    HW135160   0.462   0.003   6.500  0.4228  0.3141  1.8932
11306SOL    HW235161   0.347  -0.066   6.569 -0.8572 -0.6543 -1.1052
11307SOL     OW35162   5.439   6.485   3.216 -0.1750 -0.1686 -0.1045
11307SOL    HW135163   5.414   6.415   3.157  0.4684 -1.5913  1.2871
11307SOL    HW235164   5.376   6.480   3.288  1.3513 -0.9113  1.2047
11308SOL     OW35165   2.413   7.512   1.587 -0.4216 -0.5053 -0.3790
11308SOL    HW135166   2.405   7.559   1.504  0.5965 -0.1411 -0.2746
11308SOL    HW235167   2.372   7.427   1.571 -1.8472  0.2180 -0.7114
11309SOL     OW35168   2.546   1.182   5.369  0.3954 -0.3940  0.1268
11309SOL    HW135169   2.510   1.126   5.438  1.4820  0.3867  1.3434
11309SOL    HW235170   2.587   1.255   5.416 -0.5681  1.1756 -1.4181
11310SOL     OW35171   1.023   0.476   2.815  0.0118  0.2345  0.7954
11310SOL    HW135172   1.104   0.526   2.805 -0.1678  0.4751  0.5790
11310SOL    HW235173   0.976   0.520   2.886  0.6155 -0.6100  1.7396
11311SOL     OW35174   7.223   8.254   5.568 -0.0693  0.2715  0.0621
11311SOL    HW135175   7.267   8.199   5.632  0.9692 -0.0150 -0.8897
11311SOL    HW235176   7.129   8.240   5.585  0.1934 -0.6530  0.7811
11312SOL     OW35177   5.513   2.874   5.753  0.2702  0.3427  0.3070
11312SOL    HW135178   5.599   2.831   5.762 -0.7521 -1.5222  1.5870
11312SOL    HW235179   5.493   2.868   5.659  0.3335 -1.7065  0.3908
11313SOL     OW35180   4.663   0.631   1.983 -0.3089  0.5223  0.2368
11313SOL    HW135181   4.755   0.603   1.987 -0.4409  0.3048  2.3548
11313SOL    HW235182   4.616   0.554   1.952  0.2118  0.6140 -0.8024
11314SOL     OW35183   4.819   0.018   8.186  0.0723 -0.2467 -0.3915
11314SOL    HW135184   4.757  -0.042   8.146 -0.6868  0.0047  0.3790
11314SOL    HW235185   4.902  -0.029   8.187 -0.8282 -1.8537  1.5131
11315SOL     OW35186   0.862   5.232   6.644  0.6129  0.3396  0.1017
11315SOL    HW135187   0.923   5.306   6.644  0.3957  0.5179 -0.1520
11315SOL    HW235188   0.851   5.210   6.737  0.6117  0.6805  0.1819
11316SOL     OW35189   5.771   6.663   4.896  0.0774 -0.0501 -0.0663
11316SOL    HW135190   5.842   6.632   4.839  1.1141 -0.2788  1.3416
11316SOL    HW235191   5.704   6.594   4.889  0.5350 -0.4677 -0.3852
11317SOL     OW35192   1.530   1.443   5.804  0.4366 -0.4396  0.2412
11317SOL    HW135193   1.545   1.358   5.845  0.8120 -0.8307 -0.7003
11317SOL    HW235194   1.613   1.463   5.760  0.3721  0.4440  0.4978
11318SOL     OW35195   3.551   0.476   3.107  0.5413  0.7363 -0.2682
11318SOL    HW135196   3.623   0.473   3.044  0.5750  1.6638 -0.2828
11318SOL    HW235197   3.475   0.445   3.059  1.0567 -0.9151 -0.0599
11319SOL     OW35198   3.488   6.804   5.092 -0.3852 -0.4763 -0.3785
11319SOL    HW135199   3.544   6.880   5.110 -0.3283 -0.2849 -1.3471
11319SOL    HW235200   3.547   6.729   5.101 -0.3039 -0.3698 -0.0046
11320SOL     OW35201   4.415   4.326   1.050 -0.0003  0.6151 -0.2816
11320SOL    HW135202   4.485   4.282   1.099  1.0392  1.8511 -0.6401
11320SOL    HW235203   4.448   4.330   0.960 -0.8344  0.5850 -0.5925
11321SOL     OW35204   0.952   2.057   7.042  0.3601  0.0171 -0.9007
11321SOL    HW135205   0.932   1.971   7.005 -1.0451  0.5169 -1.3709
11321SOL    HW235206   1.019   2.040   7.109  0.1382 -1.4254 -1.0211
11322SOL     OW35207   0.580   0.448   3.499  0.1895 -0.3404 -0.2410
11322SOL    HW135208   0.667   0.424   3.530  0.2213  0.2844  0.1711
11322SOL    HW235209   0.530   0.367   3.502  1.4288 -1.2453 -2.8651
11323SOL     OW35210   7.929   4.488   6.233 -0.1251 -0.3349 -0.1861
11323SOL    HW135211   7.933   4.579   6.263  0.0762 -0.4440  0.1235
11323SOL    HW235212   8.021   4.461   6.226 -0.1541 -0.0544 -1.6906
11324SOL     OW35213   2.161   7.166   1.715 -0.2400  0.2581  0.2229
11324SOL    HW135214   2.140   7.198   1.627 -0.1037  0.5331  0.2919
11324SOL    HW235215   2.164   7.070   1.705 -0.2940  0.2838 -0.0564
11325SOL     OW35216   2.655   3.998   8.094  0.0499 -0.4706 -0.1312
11325SOL    HW135217   2.573   4.003   8.142  0.3125  1.2695  0.1552
11325SOL    HW235218   2.722   4.019   8.159  0.4709  1.0234 -1.0226
11326SOL     OW35219   2.341   0.992   5.001  0.1827 -0.2790 -0.3104
11326SOL    HW135220   2.346   0.896   4.997  0.6230 -0.2101 -1.3597
11326SOL    HW235221   2.250   1.012   4.980  0.1684 -0.4474 -0.4104
11327SOL     OW35222   6.626   5.289   4.903  0.2417  0.2275 -0.2378
11327SOL    HW135223   6.638   5.195   4.894 -0.2427  0.1954 -0.5417
11327SOL    HW235224   6.648   5.325   4.817  0.7668  0.4272 -0.0228
11328SOL     OW35225   3.897   4.663   6.847 -0.1159 -0.8081 -0.0900
11328SOL    HW135226   3.935   4.745   6.879 -0.6637 -0.2747 -0.7895
11328SOL    HW235227   3.808   4.662   6.883 -0.7410 -0.1986 -1.5677
11329SOL     OW35228   5.464   0.863   7.757 -0.5631  0.4676 -0.0930
11329SOL    HW135229   5.461   0.951   7.795  0.0924  0.4276  0.0641
11329SOL    HW235230   5.384   0.820   7.788 -0.6038  0.8199  0.2934
11330SOL     OW35231   4.244   6.969   6.120  0.0577  0.3026  0.3142
11330SOL    HW135232   4.328   6.980   6.076  0.3889  1.1943  1.1687
11330SOL    HW235233   4.189   7.040   6.085 -0.6618 -0.8657 -0.9812
11331SOL     OW35234   3.980   4.581   3.968 -0.4599 -0.1438  0.1345
11331SOL    HW135235   3.952   4.658   3.918  2.1853  0.5691 -0.3064
11331SOL    HW235236   3.953   4.507   3.914 -1.5172  0.5003 -0.2483
11332SOL     OW35237   0.385   0.114   2.924 -0.8366 -0.0303  0.0150
11332SOL    HW135238   0.365   0.063   2.845 -4.0240 -0.3235  0.9336
11332SOL    HW235239   0.402   0.048   2.991  0.1384  0.2002 -0.0005
11333SOL     OW35240   2.437   5.471   3.748 -0.1109 -0.0398  0.2010
11333SOL    HW135241   2.391   5.547   3.783  0.3154 -0.2688  1.2541
11333SOL    HW235242   2.386   5.446   3.671  0.1766  1.7647 -0.5879
11334SOL     OW35243   4.406   4.956   0.252  0.1934  0.7242  0.4808
11334SOL    HW135244   4.325   4.914   0.222  0.5997  0.5660 -0.4102
11334SOL    HW235245   4.391   4.972   0.345 -1.1195  1.3075  0.1783
11335SOL     OW35246   0.897   3.911   1.596  0.7560  0.2841 -0.0299
11335SOL    HW135247   0.952   3.959   1.657  0.0764  0.9211  0.0848
11335SOL    HW235248   0.817   3.962   1.590 -0.5088 -1.4925  1.0993
11336SOL     OW35249   5.623   7.226   6.274 -0.0320  0.2340 -0.4029
11336SOL    HW135250   5.628   7.134   6.248  0.2033  0.3532 -0.7881
11336SOL    HW235251   5.555   7.229   6.341  0.3908 -0.3214  0.0570
11337SOL     OW35252   1.802   2.574   5.924  0.6827  0.3020  0.5169
11337SOL    HW135253   1.865   2.591   5.855 -1.1823 -0.0603 -1.3081
11337SOL    HW235254   1.788   2.479   5.922  1.3379  0.1528  2.0513
11338SOL     OW35255   5.784   0.569   2.105  0.2373 -0.1103  0.3471
11338SOL    HW135256   5.825   0.626   2.040  1.5943 -1.5309 -0.0542
11338SOL    HW235257   5.804   0.480   2.076 -4.6215 -0.9441 -0.8521
11339SOL     OW35258   3.673   7.317   6.114  0.0432  0.6204 -0.3840
11339SOL    HW135259   3.692   7.257   6.186  2.5512  1.2318 -0.5209
11339SOL    HW235260   3.609   7.270   6.060  1.7617 -1.8532 -0.3530
11340SOL     OW35261   4.839   3.627   5.188 -0.3425 -0.2694  0.1675
11340SOL    HW135262   4.881   3.570   5.252  0.3564  1.9159  1.6966
11340SOL    HW235263   4.893   3.619   5.109  0.9527 -0.1421  1.0294
11341SOL     OW35264   7.132   5.861   0.268  0.2658  0.1882 -0.0530
11341SOL    HW135265   7.096   5.813   0.343  0.1300  0.4768  0.0703
11341SOL    HW235266   7.198   5.919   0.306  1.3127 -0.7894 -0.3588
11342SOL     OW35267   5.277   6.539   5.508 -0.5209  0.7511  0.2456
11342SOL    HW135268   5.192   6.496   5.517  0.0670 -0.5515 -0.3092
11342SOL    HW235269   5.338   6.484   5.558  0.6098 -0.1778 -2.0780
11343SOL     OW35270   0.636   6.274   1.362  0.3837 -0.0767 -0.5542
11343SOL    HW135271   0.656   6.209   1.294  0.9704 -1.0436  0.5067
11343SOL    HW235272   0.541   6.286   1.356  0.2985 -0.8569 -0.9362
11344SOL     OW35273   3.650   0.725   5.057 -0.8607  0.1751  0.1484
11344SOL    HW135274   3.627   0.640   5.094  1.0893 -0.1392  0.6715
11344SOL    HW235275   3.641   0.786   5.130 -0.5332  0.1317  0.2257
11345SOL     OW35276   0.186   3.781   7.334  0.1326 -0.2376 -0.7757
11345SOL    HW135277   0.220   3.738   7.412  0.2272  1.8505  0.3962
11345SOL    HW235278   0.092   3.791   7.352  0.4833  2.0440  0.0171
11346SOL     OW35279   2.201   8.246   4.655  0.1013 -0.2321 -0.3766
11346SOL    HW135280   2.236   8.233   4.567  0.0247  1.0578 -0.6056
11346SOL    HW235281   2.121   8.193   4.656 -0.5279  0.6593 -1.4890
11347SOL     OW35282   1.769   3.632   1.432  1.0092  0.3600  0.2340
11347SOL    HW135283   1.818   3.550   1.424 -0.4987 -0.5803  0.3789
11347SOL    HW235284   1.701   3.613   1.497 -0.2488  1.2647 -0.7853
11348SOL     OW35285   6.299   2.236   4.295  0.1262  0.2599  0.4251
11348SOL    HW135286   6.370   2.289   4.257 -0.8003  0.3890 -1.1773
11348SOL    HW235287   6.298   2.260   4.388  1.1397  1.4473  0.1381
11349SOL     OW35288   6.495   5.596   0.590 -0.2000 -0.4102  0.1438
11349SOL    HW135289   6.535   5.557   0.668 -0.1628 -2.1427 -0.7201
11349SOL    HW235290   6.542   5.557   0.516 -1.1711  0.1329 -0.7791
11350SOL     OW35291   2.820   4.632   3.741 -0.2896 -0.3117 -0.4879
11350SOL    HW135292   2.898   4.638   3.687  0.7935  0.3854  1.1177
11350SOL    HW235293   2.848   4.662   3.828 -2.0670 -1.0605  0.3791
11351SOL     OW35294   4.270   7.262   6.603  0.0100  0.2380  0.0960
11351SOL    HW135295   4.259   7.181   6.553 -0.9591  1.1967 -1.2985
11351SOL    HW235296   4.353   7.251   6.650  0.8803 -0.7785 -1.6195
11352SOL     OW35297   7.868   1.341   0.325  0.2056  0.6367 -0.2282
11352SOL    HW135298   7.837   1.259   0.362  2.1294  0.3612  0.8159
11352SOL    HW235299   7.950   1.318   0.282 -0.1708  1.6674 -1.5319
11353SOL     OW35300   0.932   2.497   5.366  0.7354 -0.5616 -0.2918
11353SOL    HW135301   0.987   2.544   5.428  0.5025  0.3431 -0.7696
11353SOL    HW235302   0.871   2.447   5.420  1.0638 -0.4138  0.2131
11354SOL     OW35303   3.791   5.508   5.982  0.4298  0.1320  0.2885
11354SOL    HW135304   3.742   5.467   5.911 -0.7789  1.1243  0.5397
11354SOL    HW235305   3.826   5.434   6.032  1.8004 -0.5755 -1.6548
11355SOL     OW35306   7.800   1.595   8.095  0.3612 -0.0987  0.0802
11355SOL    HW135307   7.738   1.620   8.163  1.4086  0.4417  0.8414
11355SOL    HW235308   7.781   1.502   8.078  0.1298 -0.2537  1.1389
11356SOL     OW35309   7.569   4.939   5.432 -0.1046 -0.3780 -0.4075
11356SOL    HW135310   7.510   4.947   5.357  1.1794  1.1561 -1.2785
11356SOL    HW235311   7.554   5.019   5.482  1.6521  0.3120 -0.9563
11357SOL     OW35312   6.877   0.505   6.864 -0.7283 -0.5038 -0.6970
11357SOL    HW135313   6.854   0.415   6.884 -2.6897  0.4552  1.5181
11357SOL    HW235314   6.875   0.551   6.948  0.9064  1.4730 -1.6801
11358SOL     OW35315   7.385   7.564   3.554 -0.0685 -0.2372  0.0227
11358SOL    HW135316   7.350   7.634   3.610  0.1714 -0.1148  0.0202
11358SOL    HW235317   7.317   7.551   3.488 -0.2374 -0.1972  0.1856
11359SOL     OW35318   2.302   5.711   3.061  0.3441 -0.3200 -0.2662
11359SOL    HW135319   2.335   5.637   3.009  0.1863 -0.0905 -0.7001
11359SOL    HW235320   2.235   5.750   3.005  0.8808  0.5399 -0.3123
11360SOL     OW35321   0.595   3.326   4.181 -0.1077  0.2860  0.1952
11360SOL    HW135322   0.677   3.288   4.151 -1.8126 -2.8809 -0.6843
11360SOL    HW235323   0.567   3.270   4.253 -2.3103  0.2507 -0.6364
11361SOL     OW35324   7.397   1.871   2.935  0.1751  0.3249  0.4476
11361SOL    HW135325   7.376   1.950   2.985  0.6906  1.8488 -1.6770
11361SOL    HW235326   7.471   1.896   2.880 -1.0155 -0.9442 -1.8282
11362SOL     OW35327   2.360   1.380   4.569  0.0622 -0.3982  0.7884
11362SOL    HW135328   2.425   1.309   4.563  0.5293  0.2370 -2.6539
11362SOL    HW235329   2.285   1.348   4.519 -0.0667  1.1850 -0.0523
11363SOL     OW35330   8.188   8.088   3.201  0.3291 -0.1950 -0.3976
11363SOL    HW135331   8.232   8.169   3.230  0.7317  0.0362 -1.6266
11363SOL    HW235332   8.112   8.080   3.259  1.3757 -0.0019  1.0331
11364SOL     OW35333   4.499   6.696   6.293 -0.2635 -0.0221 -0.0413
11364SOL    HW135334   4.548   6.617   6.316 -0.3134 -0.4681 -1.4370
11364SOL    HW235335   4.561   6.768   6.310  0.2980 -0.4610 -0.2135
11365SOL     OW35336   7.923   0.918   5.357  0.6549  0.2423 -0.8089
11365SOL    HW135337   7.878   0.853   5.411  1.1563  1.2739  0.8915
11365SOL    HW235338   7.991   0.868   5.311  0.2400 -0.6449 -0.4803
11366SOL     OW35339   6.304   0.639   5.027  0.5730 -0.7811  0.4073
11366SOL    HW135340   6.211   0.656   5.044  0.2336 -2.0123 -0.1502
11366SOL    HW235341   6.333   0.587   5.101  0.8219 -0.3816  0.5893
11367SOL     OW35342   7.599   0.504   6.035 -0.1683 -0.3778 -0.2684
11367SOL    HW135343   7.647   0.583   6.009 -0.3920  0.9553  3.0871
11367SOL    HW235344   7.510   0.534   6.051 -0.5400 -1.5495 -0.0733
11368SOL     OW35345   5.883   7.716   5.214  0.1898  0.4118 -0.6209
11368SOL    HW135346   5.897   7.698   5.307 -0.4623  1.1293 -0.3769
11368SOL    HW235347   5.788   7.710   5.203  0.2288  0.7492 -1.1468
11369SOL     OW35348   7.447   2.568   0.600  0.1557 -0.0346  0.6667
11369SOL    HW135349   7.520   2.509   0.616 -0.1573 -0.5308  0.2522
11369SOL    HW235350   7.374   2.531   0.649 -0.2174 -0.3610 -0.1183
11370SOL     OW35351   4.988   2.636   5.493 -0.5298  0.7379 -0.6384
11370SOL    HW135352   5.067   2.681   5.462  1.5445 -1.7950  0.7756
11370SOL    HW235353   4.965   2.577   5.423  0.5552 -0.5805  0.0914
11371SOL     OW35354   0.013   1.842   7.098  0.3080  0.2760 -0.2390
11371SOL    HW135355   0.033   1.750   7.078 -0.5907  0.0140  0.0471
11371SOL    HW235356   0.065   1.861   7.176  2.1038  0.6425 -1.4761
11372SOL     OW35357   2.083   4.181   4.037  0.1436  0.7562 -0.5096
11372SOL    HW135358   2.004   4.190   4.090  0.0251 -0.5314 -0.4493
11372SOL    HW235359   2.116   4.270   4.028  1.0041  0.8560  3.0180
11373SOL     OW35360   0.789   2.738   2.191  0.1304  0.4861 -0.1040
11373SOL    HW135361   0.773   2.761   2.282 -0.7881  0.5163 -0.2694
11373SOL    HW235362   0.710   2.766   2.145  0.4528  0.1696 -0.8568
11374SOL     OW35363   2.592   4.429   0.761  0.6976 -0.6441  1.2269
11374SOL    HW135364   2.556   4.487   0.828 -1.1073 -0.6821  0.2908
11374SOL    HW235365   2.518   4.404   0.707  1.8931 -1.7899  0.0675
11375SOL     OW35366   7.601   2.459   6.016 -0.1424  0.2831  0.0397
11375SOL    HW135367   7.614   2.533   6.076  0.7521  0.9746 -1.0071
11375SOL    HW235368   7.664   2.393   6.045 -1.2167 -0.2534  1.2313
11376SOL     OW35369   0.108   4.638   4.543  0.2791  0.4860  0.0288
11376SOL    HW135370   0.166   4.585   4.490  1.7108 -0.2673  2.2961
11376SOL    HW235371   0.023   4.595   4.537  0.0596  1.2336 -2.7795
11377SOL     OW35372   1.412   2.828   3.866 -0.2389 -0.8643  0.2132
11377SOL    HW135373   1.350   2.821   3.793  0.7625  1.2522 -0.8649
11377SOL    HW235374   1.498   2.821   3.825  0.5291  5.1577  0.4871
11378SOL     OW35375   5.708   6.927   4.963 -0.4244  0.2193  0.1102
11378SOL    HW135376   5.774   6.858   4.962 -0.8388 -0.1982 -3.0132
11378SOL    HW235377   5.626   6.883   4.987  0.0043  0.3446  1.8477
11379SOL     OW35378   2.864   2.388   3.580 -0.3215  0.2107 -0.0071
11379SOL    HW135379   2.808   2.313   3.600 -1.5582  1.0915 -0.0788
11379SOL    HW235380   2.803   2.456   3.551  0.7787  1.2693  0.1246
11380SOL     OW35381   2.847   1.839   3.532  0.5831  0.0806  0.2846
11380SOL    HW135382   2.780   1.810   3.595  0.2154  0.4724  0.0757
11380SOL    HW235383   2.817   1.925   3.504  1.5171  0.5477  0.6852
11381SOL     OW35384   7.596   7.517   6.472  0.2318 -0.4606  0.0288
11381SOL    HW135385   7.596   7.608   6.502 -1.3895 -0.3932 -0.1260
11381SOL    HW235386   7.610   7.523   6.378  0.3794 -0.3847  0.0549
11382SOL     OW35387   5.734   1.423   4.493  0.0280  0.1084  0.1293
11382SOL    HW135388   5.772   1.457   4.412  0.6940 -1.0376 -0.0503
11382SOL    HW235389   5.801   1.436   4.559  0.4210 -1.1242 -0.0085
11383SOL     OW35390   5.996   2.096   0.758  0.3036  0.0363  0.0122
11383SOL    HW135391   6.033   2.148   0.687 -0.6499 -0.9838 -1.2565
11383SOL    HW235392   6.042   2.126   0.837  0.3924  2.1333 -0.8222
11384SOL     OW35393   7.271   2.828   4.326  0.1925  0.0591  0.1069
11384SOL    HW135394   7.257   2.850   4.418 -0.3029  0.1971  0.0027
11384SOL    HW235395   7.328   2.897   4.293  1.6397 -0.8468  0.6971
11385SOL     OW35396   0.078   1.113   5.050 -0.0255  0.0729  0.0650
11385SOL    HW135397   0.052   1.076   5.134  1.0301 -0.7766  0.0251
11385SOL    HW235398   0.007   1.089   4.990 -0.8894  0.8734  0.7500
11386SOL     OW35399   1.132   6.548   3.915 -0.2877  0.0234  1.0258
11386SOL    HW135400   1.141   6.568   3.822  1.6195  2.2403  1.6551
11386SOL    HW235401   1.184   6.469   3.928 -0.4033 -0.1821  0.2671
11387SOL     OW35402   1.556   2.848   1.982  0.2532 -0.4246 -0.0872
11387SOL    HW135403   1.576   2.872   1.891 -0.2248  2.9142  0.6187
11387SOL    HW235404   1.634   2.875   2.031 -1.0349  1.4348  0.9908
11388SOL     OW35405   2.966   2.569   2.617 -0.0611 -0.0807 -0.1474
11388SOL    HW135406   2.974   2.664   2.625  1.3268 -0.2785  1.0719
11388SOL    HW235407   3.055   2.540   2.595 -0.7261 -0.9920 -1.7058
11389SOL     OW35408   7.098   3.659   6.187  1.3389 -0.0763 -0.2285
11389SOL    HW135409   7.111   3.642   6.281  0.8971  0.8869  0.0108
11389SOL    HW235410   7.186   3.659   6.150  1.6228  0.9523  0.4351
11390SOL     OW35411   3.775   2.942   5.900 -0.7037 -0.1796 -0.2930
11390SOL    HW135412   3.803   2.851   5.890  1.7274  0.5138 -0.1319
11390SOL    HW235413   3.731   2.945   5.985 -0.3329 -1.1101 -0.0665
11391SOL     OW35414   2.078   3.302   1.039 -0.1225  0.7889 -0.5654
11391SOL    HW135415   2.086   3.266   0.951  0.5345 -1.2498  0.2900
11391SOL    HW235416   2.167   3.331   1.061  0.1161 -0.4812  0.1532
11392SOL     OW35417   4.641   6.770   2.325 -0.4771  0.0298 -0.3587
11392SOL    HW135418   4.654   6.865   2.320  0.4460 -0.0452  0.6573
11392SOL    HW235419   4.664   6.738   2.237 -2.8677  0.9754 -1.3795
11393SOL     OW35420   2.597   5.763   3.372  0.1972  0.6791  0.0143
11393SOL    HW135421   2.554   5.816   3.438  0.2677  0.4304  0.2598
11393SOL    HW235422   2.657   5.824   3.327  0.0150  0.8884  0.0535
11394SOL     OW35423   4.336   2.456   4.893 -0.3621  0.1274 -0.0557
11394SOL    HW135424   4.395   2.486   4.963  0.1480 -0.5552 -0.1889
11394SOL    HW235425   4.316   2.535   4.843  0.0924  0.4448  0.2557
11395SOL     OW35426   1.030   4.549   0.788  0.4390  0.3852 -0.8141
11395SOL    HW135427   1.017   4.486   0.859  0.4002  1.4317  0.1220
11395SOL    HW235428   0.941   4.571   0.759  0.4665 -0.3158 -1.4348
11396SOL     OW35429   7.318   4.837   6.202  0.3898  0.0435 -0.2877
11396SOL    HW135430   7.224   4.839   6.219  0.7163  1.1464  1.6203
11396SOL    HW235431   7.328   4.874   6.115 -0.7490  2.6756  0.6402
11397SOL     OW35432   5.459   7.490   1.048  0.4525 -0.3447 -0.1762
11397SOL    HW135433   5.399   7.517   0.978  0.3021  0.3496  0.2163
11397SOL    HW235434   5.546   7.495   1.010  0.3089 -0.8193 -0.5780
11398SOL     OW35435   3.521   0.039   6.853 -0.0659  0.2822 -0.0600
11398SOL    HW135436   3.572  -0.038   6.879 -0.0166  0.4381  0.3154
11398SOL    HW235437   3.570   0.078   6.781  1.5908  1.7506  1.8107
11399SOL     OW35438   5.149   1.129   7.225 -0.0540  0.1973 -0.6578
11399SOL    HW135439   5.106   1.144   7.309 -0.6914  0.8631 -1.0910
11399SOL    HW235440   5.117   1.044   7.196 -0.5673  0.3913 -0.6675
11400SOL     OW35441   4.377   2.502   7.613 -0.2126 -0.2844  0.0944
11400SOL    HW135442   4.288   2.533   7.593 -0.1227  0.0381  0.1878
11400SOL    HW235443   4.421   2.501   7.528 -0.1734 -0.0169  0.1110
11401SOL     OW35444   5.822   3.782   6.415 -0.2896 -0.1849 -0.5265
11401SOL    HW135445   5.774   3.863   6.429  0.0987 -0.0401  0.0039
11401SOL    HW235446   5.759   3.713   6.433 -0.4839  0.0053 -0.4765
11402SOL     OW35447   4.948   6.177   4.279  0.2679 -0.6131 -0.6213
11402SOL    HW135448   4.994   6.094   4.267  0.6425 -0.4553 -0.3039
11402SOL    HW235449   5.012   6.233   4.324 -0.1516 -0.3097 -0.4010
11403SOL     OW35450   6.361   5.047   0.101  0.2033  0.1510 -0.2562
11403SOL    HW135451   6.355   5.015   0.191  2.0482  1.0533  0.2308
11403SOL    HW235452   6.285   5.011   0.057  0.6013 -2.3914  1.0312
11404SOL     OW35453   6.157   1.364   3.584 -0.1121 -0.4044  0.0413
11404SOL    HW135454   6.092   1.427   3.616  1.6585  0.7243  1.5492
11404SOL    HW235455   6.108   1.305   3.527 -1.9366  1.9767 -0.9109
11405SOL     OW35456   4.208   0.250   1.827  0.4911 -0.1601 -0.8691
11405SOL    HW135457   4.139   0.211   1.774  2.4406 -2.8818 -1.5022
11405SOL    HW235458   4.270   0.287   1.764  0.0037  1.6390 -0.3231
11406SOL     OW35459   1.906   1.140   4.315 -0.4587 -0.3382  0.1176
11406SOL    HW135460   2.000   1.121   4.317 -0.1931  0.9452  0.3732
11406SOL    HW235461   1.894   1.189   4.234 -0.4508  1.7718  1.3772
11407SOL     OW35462   8.057   5.359   3.937 -0.4774  0.0556  0.0044
11407SOL    HW135463   8.125   5.414   3.897  0.2045 -0.9288 -0.2084
11407SOL    HW235464   8.070   5.370   4.031 -0.3762  0.3037 -0.0373
11408SOL     OW35465   3.289   5.945   3.803  0.1196 -0.1922 -0.7186
11408SOL    HW135466   3.209   5.976   3.846 -0.2743  0.2373 -1.7376
11408SOL    HW235467   3.322   6.022   3.756  0.4090 -0.7090 -1.3691
11409SOL     OW35468   5.855   1.889   1.656 -0.3254 -0.3961  0.5641
11409SOL    HW135469   5.869   1.971   1.704  2.5471 -0.9621  0.7742
11409SOL    HW235470   5.847   1.823   1.725 -2.0519 -0.3931  0.3789
11410SOL     OW35471   1.969   2.626   3.252  0.3476 -0.0868 -0.3369
11410SOL    HW135472   1.945   2.645   3.162 -0.0831 -2.0698 -0.6757
11410SOL    HW235473   1.886   2.631   3.301  0.3919 -0.0922 -0.2601
11411SOL     OW35474   3.460   7.080   4.668  0.2208 -0.1533  0.5502
11411SOL    HW135475   3.502   7.005   4.625  1.3387  1.6585 -1.6521
11411SOL    HW235476   3.525   7.111   4.731  1.1741  1.0063 -0.9600
11412SOL     OW35477   3.402   1.589   4.292 -0.1816  0.1452 -0.0829
11412SOL    HW135478   3.378   1.545   4.374 -2.4967 -0.2752 -0.9445
11412SOL    HW235479   3.451   1.523   4.243  1.2446  0.4097  0.9544
11413SOL     OW35480   3.866   3.021   6.727  0.2533 -0.3852  0.1285
11413SOL    HW135481   3.834   3.097   6.775  0.9109 -0.2745  0.3824
11413SOL    HW235482   3.920   2.973   6.790  0.5690 -0.5934 -0.2965
11414SOL     OW35483   2.503   0.085   7.897  0.1209  0.6861 -0.0049
11414SOL    HW135484   2.499   0.054   7.987 -0.3190 -0.3998 -0.3811
11414SOL    HW235485   2.463   0.171   7.898 -2.6862 -0.5731  0.3125
11415SOL     OW35486   3.190   4.414   0.309 -0.5205  0.2554  0.2303
11415SOL    HW135487   3.134   4.423   0.232  1.4777  3.2517 -0.9623
11415SOL    HW235488   3.272   4.379   0.276 -0.0570  0.4116  1.1898
11416SOL     OW35489   6.191   3.889   4.128  0.1335  0.0611 -0.0857
11416SOL    HW135490   6.149   3.918   4.209 -2.6764  2.4487 -2.3033
11416SOL    HW235491   6.163   3.798   4.118 -0.7869  0.2349  0.8208
11417SOL     OW35492   2.826   1.073   3.222  0.1881  0.0970  0.2289
11417SOL    HW135493   2.920   1.076   3.202  0.1179  0.0557 -0.1167
11417SOL    HW235494   2.810   0.983   3.250 -0.2946 -0.6992 -2.4828
11418SOL     OW35495   0.940   5.641   4.983  0.2141  0.4089  0.1220
11418SOL    HW135496   0.935   5.632   5.078  2.4463 -3.1659 -0.0397
11418SOL    HW235497   1.023   5.685   4.966  0.3317  0.0563 -0.2325
11419SOL     OW35498   7.914   5.182   5.240 -0.1467  0.1293 -0.0862
11419SOL    HW135499   7.854   5.109   5.257  0.5313 -0.5560 -0.6081
11419SOL    HW235500   7.997   5.140   5.217  0.1180  1.0604 -0.8531
11420SOL     OW35501   2.898   2.252   5.117  0.1916 -0.4028  0.3969
11420SOL    HW135502   2.901   2.322   5.183 -1.8964 -0.1177  0.2358
11420SOL    HW235503   2.902   2.298   5.034 -1.0184 -0.4568  0.2929
11421SOL     OW35504   6.849   1.938   4.375  0.0333  0.4592 -0.2522
11421SOL    HW135505   6.835   1.922   4.469  1.1235 -0.6156 -0.2635
11421SOL    HW235506   6.794   1.873   4.331  0.7510 -0.0910 -0.3409
11422SOL     OW35507   2.585   7.998   8.205  0.6488 -0.4020 -0.1646
11422SOL    HW135508   2.562   7.907   8.223 -1.2145  0.5291  2.4801
11422SOL    HW235509   2.651   8.019   8.271 -0.1229  0.6267  0.2901
11423SOL     OW35510   4.326   4.803   3.639 -0.0702 -0.3976  0.0124
11423SOL    HW135511   4.321   4.877   3.700  0.9579  0.1346 -0.5395
11423SOL    HW235512   4.310   4.842   3.553 -0.0435 -0.8969 -0.2157
11424SOL     OW35513   4.453   1.698   0.615 -0.3641  0.1137  0.0499
11424SOL    HW135514   4.458   1.695   0.519  0.7337 -1.5146  0.1466
11424SOL    HW235515   4.540   1.728   0.642 -0.1940 -0.8420  0.5822
11425SOL     OW35516   0.864   5.888   7.405  0.4224 -0.4014 -0.2907
11425SOL    HW135517   0.769   5.903   7.404  0.9080  3.5162  1.8079
11425SOL    HW235518   0.881   5.852   7.493  1.1742  1.6112  0.4111
11426SOL     OW35519   1.045   2.577   0.455 -0.4262 -0.6953  0.4455
11426SOL    HW135520   0.963   2.535   0.430 -0.9292  0.8358 -0.5772
11426SOL    HW235521   1.074   2.531   0.533 -1.7851 -1.8576  0.2683
11427SOL     OW35522   5.378   5.561   4.612  0.1887 -0.4802 -0.6278
11427SOL    HW135523   5.400   5.471   4.636 -2.5283 -1.1460 -0.4603
11427SOL    HW235524   5.463   5.604   4.601  1.5677 -1.8964  3.5892
11428SOL     OW35525   7.198   4.833   6.980  0.4767  0.4467  0.4447
11428SOL    HW135526   7.172   4.925   6.987  0.7476  0.7706 -2.1620
11428SOL    HW235527   7.176   4.809   6.890  3.0921 -1.1920  0.1970
11429SOL     OW35528   1.967   3.713   5.786  0.6211 -0.0717 -0.0839
11429SOL    HW135529   2.035   3.647   5.795  1.1054  0.0113 -2.7347
11429SOL    HW235530   2.014   3.794   5.769 -0.0779  0.3929  0.1555
11430SOL     OW35531   7.379   4.740   1.229  0.4054 -0.0098  0.1677
11430SOL    HW135532   7.359   4.647   1.244  1.4305 -0.1551  0.7321
11430SOL    HW235533   7.458   4.755   1.281  0.6952  0.9856 -0.5552
11431SOL     OW35534   6.864   6.528   2.252  0.3146  0.0499  0.0926
11431SOL    HW135535   6.937   6.467   2.241 -0.3580 -0.7410 -0.0161
11431SOL    HW235536   6.824   6.503   2.335 -1.0923 -0.8757 -0.8347
11432SOL     OW35537   1.616   1.807   6.671  0.1784 -0.1747  0.1490
11432SOL    HW135538   1.599   1.744   6.600  1.0965 -0.2777  0.0117
11432SOL    HW235539   1.620   1.753   6.750 -2.2375  0.1039  0.4958
11433SOL     OW35540   1.771   2.952   4.723 -0.1585  0.2013  0.5577
11433SOL    HW135541   1.800   2.926   4.810 -2.1429 -1.5991  0.7483
11433SOL    HW235542   1.754   2.868   4.678  0.8006  1.1003 -1.5398
11434SOL     OW35543   4.489   7.447   4.357 -0.2091 -0.2118 -0.2618
11434SOL    HW135544   4.429   7.502   4.407 -0.1261 -2.6285  2.6267
11434SOL    HW235545   4.563   7.505   4.337 -1.9203  1.8248 -0.9021
11435SOL     OW35546   2.871   3.192   2.246  0.2493 -0.3144 -0.1265
11435SOL    HW135547   2.966   3.204   2.248  0.2226 -0.2506  1.4079
11435SOL    HW235548   2.852   3.139   2.323 -0.9042 -0.8714 -0.7744
11436SOL     OW35549   5.947   2.292   2.338 -0.4129  0.1613 -0.1686
11436SOL    HW135550   6.003   2.236   2.285 -2.2255 -1.5343 -0.3418
11436SOL    HW235551   6.000   2.311   2.416  1.1757  0.3402 -1.2554
11437SOL     OW35552   0.659   2.852   6.054  0.0522 -0.1531  0.1228
11437SOL    HW135553   0.611   2.770   6.064 -0.3977 -0.0366 -0.9803
11437SOL    HW235554   0.600   2.919   6.088 -0.4372 -0.0516 -0.9053
11438SOL     OW35555   0.001   0.708   6.500  0.4040 -0.8978  0.2007
11438SOL    HW135556   0.089   0.732   6.470  0.2178  0.7583  0.9445
11438SOL    HW235557  -0.032   0.649   6.432  1.6992 -0.7159 -0.6035
11439SOL     OW35558   6.397   7.015   4.017 -0.0296  0.3520  0.1510
11439SOL    HW135559   6.318   7.020   3.964 -1.1028  0.5593  1.7440
11439SOL    HW235560   6.375   6.956   4.089  1.6591 -0.5416 -0.0434
11440SOL     OW35561   3.372   0.308   2.745 -0.1412 -0.0910 -0.0532
11440SOL    HW135562   3.306   0.343   2.686  1.7049  0.7347 -1.6843
11440SOL    HW235563   3.448   0.364   2.733  1.2017 -1.6118  1.0438
11441SOL     OW35564   7.581   4.158   8.220 -0.2495  0.3542 -0.4919
11441SOL    HW135565   7.540   4.107   8.150  0.9063 -0.2414 -0.7552
11441SOL    HW235566   7.673   4.166   8.193 -0.0750  1.2240  0.3293
11442SOL     OW35567   3.717   4.061   7.214 -0.1402  0.2546  0.1308
11442SOL    HW135568   3.763   4.014   7.144 -1.1369 -0.3718 -0.1290
11442SOL    HW235569   3.707   3.996   7.284 -0.7513  0.3352  0.1247
11443SOL     OW35570   2.319   5.302   5.438  0.4531  0.2784  0.4071
11443SOL    HW135571   2.318   5.221   5.488 -0.7304  0.6418  0.9772
11443SOL    HW235572   2.326   5.371   5.504 -0.3081  0.7228  0.0297
11444SOL     OW35573   2.904   7.754   8.225  0.2266  0.0081  0.3149
11444SOL    HW135574   2.824   7.803   8.206 -0.7049 -1.4131  0.5271
11444SOL    HW235575   2.922   7.771   8.317 -0.8413 -1.1106  0.7349
11445SOL     OW35576   5.027   2.457   2.293 -0.3772 -0.7495 -0.2420
11445SOL    HW135577   5.065   2.381   2.337 -1.7856 -1.0437  0.5046
11445SOL    HW235578   4.990   2.509   2.364  0.6031  0.6630 -0.7497
11446SOL     OW35579   4.286   5.907   2.517  0.1134  0.4937  0.3086
11446SOL    HW135580   4.361   5.937   2.569 -0.1152 -0.5148  1.2576
11446SOL    HW235581   4.319   5.900   2.428  0.4208  2.5882  0.2551
11447SOL     OW35582   7.585   5.788   4.993 -0.1752  0.4093  0.0820
11447SOL    HW135583   7.492   5.772   5.006  0.6373 -2.3299  2.9953
11447SOL    HW235584   7.593   5.883   4.998 -2.9094  0.7526 -1.1050
11448SOL     OW35585   6.371   3.159   6.599 -0.3980 -0.2095  0.3200
11448SOL    HW135586   6.346   3.217   6.527  0.5611 -0.8609 -0.5570
11448SOL    HW235587   6.310   3.180   6.669 -0.5365  1.3297 -0.2460
11449SOL     OW35588   4.528   3.716   4.565 -0.2346  0.6565  0.1677
11449SOL    HW135589   4.537   3.632   4.520 -1.4846 -0.7211  2.3824
11449SOL    HW235590   4.443   3.750   4.537  0.1789  1.0864 -0.5689
11450SOL     OW35591   5.816   1.195   3.455 -0.1888 -0.0708 -0.0214
11450SOL    HW135592   5.834   1.287   3.434  1.0632 -0.5407 -1.0294
11450SOL    HW235593   5.760   1.164   3.384  0.7067 -0.5297 -0.5311
11451SOL     OW35594   4.880   6.899   5.087  0.0718  0.1291  0.0344
11451SOL    HW135595   4.862   6.991   5.104  2.7568  0.2661  2.5797
11451SOL    HW235596   4.802   6.853   5.118 -0.7126  1.4388  0.0146
11452SOL     OW35597   3.513   4.845   7.661  0.4016 -0.2491 -0.0991
11452SOL    HW135598   3.515   4.758   7.620 -0.8052 -0.6201  0.6091
11452SOL    HW235599   3.564   4.900   7.601  2.1664 -1.6767  0.0268
11453SOL     OW35600   3.624   4.252   3.017  0.4628 -0.4567  0.2635
11453SOL    HW135601   3.623   4.324   3.081  0.5378 -0.2228  0.0047
11453SOL    HW235602   3.681   4.284   2.947 -0.9133 -0.0281 -0.6945
11454SOL     OW35603   6.186   0.255   6.869  0.0270  0.0086  0.4510
11454SOL    HW135604   6.251   0.290   6.930 -0.5629  0.4297  0.8530
11454SOL    HW235605   6.154   0.175   6.910  1.0245 -0.7534 -0.2371
11455SOL     OW35606   0.133   2.546   4.129  0.3718 -0.3334 -0.1476
11455SOL    HW135607   0.047   2.536   4.087  1.5178 -1.9101 -2.2488
11455SOL    HW235608   0.113   2.563   4.221 -2.1840 -0.7545 -0.5731
11456SOL     OW35609   0.924   7.350   1.747  0.5145  0.3497 -0.1362
11456SOL    HW135610   0.844   7.394   1.775  0.1197  0.4566 -1.3713
11456SOL    HW235611   0.957   7.308   1.826 -1.5953 -0.9902  0.0914
11457SOL     OW35612   4.170   0.997   8.288 -0.3164 -0.3772 -0.0198
11457SOL    HW135613   4.120   0.921   8.258  0.9333 -0.5823 -1.6762
11457SOL    HW235614   4.247   0.961   8.330  0.6370 -0.0640 -1.4382
11458SOL     OW35615   6.504   2.812   1.729 -0.3124  0.2588 -0.5930
11458SOL    HW135616   6.430   2.779   1.779 -0.1044 -2.9073 -2.2550
11458SOL    HW235617   6.503   2.906   1.745 -4.4152  0.2580 -0.2257
11459SOL     OW35618   1.079   6.071   1.671 -0.3576  0.0666  0.2381
11459SOL    HW135619   1.058   6.072   1.577  0.1586  0.4512  0.1230
11459SOL    HW235620   1.173   6.056   1.674 -0.5750 -1.1996  0.7389
11460SOL     OW35621   1.130   1.800   7.869  0.3155 -0.6769  0.1639
11460SOL    HW135622   1.093   1.773   7.953 -0.2175 -0.5913 -0.0464
11460SOL    HW235623   1.215   1.838   7.892 -0.1450  0.0130  0.7335
11461SOL     OW35624   2.831   3.788   0.123  0.5672 -0.3661  0.4178
11461SOL    HW135625   2.818   3.879   0.096  1.4670 -0.3560 -0.0284
11461SOL    HW235626   2.897   3.793   0.192  2.0127 -0.8101 -0.8715
11462SOL     OW35627   5.103   1.400   5.211 -0.4478  0.0993 -0.4641
11462SOL    HW135628   5.018   1.439   5.229 -0.5734  0.2079 -1.2718
11462SOL    HW235629   5.085   1.328   5.150  0.1737  0.8600 -1.5597
11463SOL     OW35630   1.649   2.085   6.630  0.3492 -0.3552 -0.2617
11463SOL    HW135631   1.716   2.112   6.693  0.6216  0.0755 -0.7334
11463SOL    HW235632   1.633   1.993   6.650  0.9295 -0.4023 -0.0019
11464SOL     OW35633   1.275   5.420   3.223  0.5673  0.7815 -0.6405
11464SOL    HW135634   1.318   5.336   3.238  0.1416  0.6737 -0.0335
11464SOL    HW235635   1.182   5.399   3.219  0.3065  1.4918  1.4228
11465SOL     OW35636   7.970   0.512   3.686 -0.3060  0.4730  0.0499
11465SOL    HW135637   7.993   0.419   3.689  0.4557  0.6759  1.1651
11465SOL    HW235638   8.020   0.551   3.759 -2.6726  1.2865  1.2814
11466SOL     OW35639   3.707   0.505   8.275  0.3946  0.0112  0.3705
11466SOL    HW135640   3.731   0.583   8.324 -1.1956  0.7329  0.0169
11466SOL    HW235641   3.641   0.535   8.212 -0.3684 -1.6428  0.3592
11467SOL     OW35642   2.831   4.671   3.321 -0.0798  0.0172  0.6039
11467SOL    HW135643   2.906   4.731   3.319 -0.4188  0.4091 -1.2001
11467SOL    HW235644   2.755   4.726   3.304 -0.5092 -0.7487  0.0082
11468SOL     OW35645   6.178   5.764   5.265 -0.3975 -0.1205  0.1237
11468SOL    HW135646   6.134   5.680   5.249  0.8011 -0.8898  0.7751
11468SOL    HW235647   6.106   5.826   5.280 -1.2445 -1.6018  2.4388
11469SOL     OW35648   5.661   1.577   7.224 -0.1053 -0.0274  0.3931
11469SOL    HW135649   5.646   1.512   7.294  0.6450  1.0498  1.5762
11469SOL    HW235650   5.670   1.660   7.270  0.4380  0.7014 -1.0002
11470SOL     OW35651   6.936   6.588   1.615 -0.3090 -0.2840 -0.3658
11470SOL    HW135652   6.960   6.658   1.676  0.2826  1.6282 -2.7497
11470SOL    HW235653   7.003   6.520   1.629  0.5237  0.6503  0.2337
11471SOL     OW35654   3.863   7.688   1.922 -0.5542  0.1728 -0.6396
11471SOL    HW135655   3.882   7.676   2.015 -2.0646 -0.4636 -0.3907
11471SOL    HW235656   3.886   7.779   1.903  2.4503 -0.4757 -0.3354
11472SOL     OW35657   1.119   8.204   3.604  0.4797 -0.3586 -0.9729
11472SOL    HW135658   1.071   8.276   3.643 -0.7396 -0.0752 -2.9270
11472SOL    HW235659   1.075   8.125   3.637  0.2323 -0.1597 -0.8249
11473SOL     OW35660   2.537   2.966   6.839  0.1963  0.6633 -0.3552
11473SOL    HW135661   2.471   3.033   6.855 -0.9112 -0.2094 -1.1973
11473SOL    HW235662   2.570   2.986   6.752  0.0718  0.2958 -0.4874
11474SOL     OW35663   6.591   3.660   0.354 -0.1980 -0.5236 -0.1123
11474SOL    HW135664   6.577   3.708   0.272  0.6383 -1.5855 -0.8925
11474SOL    HW235665   6.530   3.587   0.350  0.2353 -0.8941 -0.0552
11475SOL     OW35666   6.481   4.862   7.818  0.0293 -0.1439 -0.0087
11475SOL    HW135667   6.420   4.788   7.816 -0.0285 -0.0880 -0.5043
11475SOL    HW235668   6.553   4.835   7.761 -0.0091  0.1910 -0.2175
11476SOL     OW35669   4.463   6.530   7.174  0.7215 -0.1401  0.3129
11476SOL    HW135670   4.485   6.623   7.179 -0.2509  0.1538 -0.5633
11476SOL    HW235671   4.501   6.492   7.252  0.3949  1.1537  1.1172
11477SOL     OW35672   1.001   6.858   7.834 -0.6136 -0.1010  0.4720
11477SOL    HW135673   1.004   6.918   7.759 -0.3526 -1.1833 -0.3998
11477SOL    HW235674   1.048   6.903   7.903  0.6090  0.1996 -0.5470
11478SOL     OW35675   7.808   2.702   0.235  0.6201 -0.3662  0.1426
11478SOL    HW135676   7.799   2.676   0.326  1.9302  1.1309  0.7366
11478SOL    HW235677   7.847   2.626   0.192 -0.3795 -1.2218  0.7425
11479SOL     OW35678   0.210   2.058   3.603  0.2181  0.0421  0.3845
11479SOL    HW135679   0.150   2.064   3.529  0.5960  0.3557  0.0958
11479SOL    HW235680   0.296   2.046   3.563  0.3645 -0.2825  0.7888
11480SOL     OW35681   6.800   1.835   1.783 -0.1459  0.2123 -0.6823
11480SOL    HW135682   6.872   1.877   1.831  1.0814 -0.0534 -2.2175
11480SOL    HW235683   6.762   1.774   1.845 -0.3801  1.8330  0.8267
11481SOL     OW35684   8.100   6.062   7.919 -0.2453 -0.1114  0.1056
11481SOL    HW135685   8.141   6.086   8.002 -1.0760 -1.2585  0.8556
11481SOL    HW235686   8.052   6.140   7.893 -0.1937  0.1727  0.8428
11482SOL     OW35687   8.059   5.268   7.029 -0.3778  0.0035 -0.3572
11482SOL    HW135688   8.035   5.257   7.121 -0.7283  1.2960 -0.2888
11482SOL    HW235689   8.079   5.361   7.020  1.3000 -0.4204 -1.2083
11483SOL     OW35690   7.953   7.325   7.862 -0.7511  0.6110 -0.1857
11483SOL    HW135691   7.906   7.242   7.870 -2.5198  1.6210  0.2114
11483SOL    HW235692   7.884   7.391   7.858  0.6340  2.0703 -0.5167
11484SOL     OW35693   4.918   7.162   7.891  0.0546 -0.4060 -0.4480
11484SOL    HW135694   4.962   7.077   7.885  3.7180  1.4432 -1.1976
11484SOL    HW235695   4.888   7.167   7.982  0.7134 -2.0671 -0.1293
11485SOL     OW35696   7.987   5.071   3.133 -0.2065 -0.4404 -0.0312
11485SOL    HW135697   7.945   4.993   3.170 -0.3333  0.6011  2.0935
11485SOL    HW235698   8.033   5.110   3.207 -0.1336  1.5021 -1.0861
11486SOL     OW35699   1.102   5.003   7.910  0.4118  0.6719 -0.3131
11486SOL    HW135700   1.075   4.922   7.954 -0.1645  0.0889 -1.7306
11486SOL    HW235701   1.021   5.053   7.900  0.6975  1.2351  0.1584
11487SOL     OW35702   4.095   0.772   8.133 -0.3144  0.0036  0.1405
11487SOL    HW135703   4.069   0.719   8.057  0.7560  0.6510 -0.6756
11487SOL    HW235704   4.178   0.734   8.162 -0.0297  0.6286  0.1453
11488SOL     OW35705   5.300   0.747   0.449  0.0238 -0.6705  0.5871
11488SOL    HW135706   5.208   0.720   0.460  0.1144 -1.1478  0.1918
11488SOL    HW235707   5.325   0.780   0.535 -0.1629 -1.6577  1.0341
11489SOL     OW35708   6.148   6.092   1.864  0.5941 -0.7212 -0.0421
11489SOL    HW135709   6.146   6.027   1.794 -2.0220 -0.4272 -0.2848
11489SOL    HW235710   6.179   6.172   1.821 -1.4315 -0.4232 -1.0117
11490SOL     OW35711   4.044   7.073   4.582  0.2482 -0.1252  0.2159
11490SOL    HW135712   4.090   6.991   4.565 -3.3321 -2.2443  0.4232
11490SOL    HW235713   4.027   7.109   4.496 -0.3776 -0.8542  0.0352
11491SOL     OW35714   3.126   7.605   1.066 -0.5564 -0.2030  0.3800
11491SOL    HW135715   3.221   7.601   1.077 -0.4580  0.3322 -0.2342
11491SOL    HW235716   3.091   7.589   1.153  0.0875 -0.8572  0.5223
11492SOL     OW35717   5.510   0.401   6.392 -0.4424  0.3169  0.0014
11492SOL    HW135718   5.501   0.451   6.473  3.6943 -1.0862  1.4405
11492SOL    HW235719   5.463   0.319   6.409  2.1404 -0.8376  1.8275
11493SOL     OW35720   1.305   5.686   7.263  0.0916  0.1326  0.0910
11493SOL    HW135721   1.368   5.741   7.308  0.1114 -0.1486  0.4064
11493SOL    HW235722   1.265   5.634   7.332 -0.1704 -0.0058 -0.1644
11494SOL     OW35723   0.141   5.877   2.823  0.7482  0.1876  0.2764
11494SOL    HW135724   0.206   5.936   2.861 -1.5163  2.7418  0.3545
11494SOL    HW235725   0.086   5.851   2.897 -0.3487  0.7673 -0.3233
11495SOL     OW35726   1.226   1.454   8.016  0.6010 -0.2416 -0.0019
11495SOL    HW135727   1.145   1.480   8.061  1.6249  2.7691  0.2459
11495SOL    HW235728   1.201   1.381   7.961 -1.6683 -1.1741  2.1887
11496SOL     OW35729   7.717   3.050   1.264 -0.5166 -0.1210 -0.0511
11496SOL    HW135730   7.801   3.080   1.230  0.0436 -1.3492  0.2238
11496SOL    HW235731   7.711   3.088   1.352 -0.9721  1.2583 -0.6714
11497SOL     OW35732   7.274   3.545   0.158 -0.2925  0.5874  0.3618
11497SOL    HW135733   7.366   3.520   0.147 -0.5820 -0.3420 -0.0618
11497SOL    HW235734   7.258   3.535   0.252 -0.1495  0.0247  0.3324
11498SOL     OW35735   5.795   2.132   7.198 -0.2328 -0.3217 -0.6156
11498SOL    HW135736   5.829   2.219   7.178 -0.4483 -0.3337 -1.0433
11498SOL    HW235737   5.823   2.115   7.288 -1.2587  0.7019 -0.1035
11499SOL     OW35738   3.947   0.223   5.732  0.0846  0.5214 -0.2037
11499SOL    HW135739   4.010   0.155   5.707 -1.1792 -2.1752  3.4163
11499SOL    HW235740   4.000   0.289   5.776  0.5486 -1.8404  3.0322
11500SOL     OW35741   7.726   2.007   4.277  0.3907  0.6728 -0.4549
11500SOL    HW135742   7.653   1.994   4.338  0.6366 -0.6641 -0.4404
11500SOL    HW235743   7.760   1.920   4.261  2.7349  1.4022  0.4346
11501SOL     OW35744   2.031   7.477   7.699 -0.2299  0.6791  0.9253
11501SOL    HW135745   1.979   7.531   7.758 -3.1958  1.4075 -2.2035
11501SOL    HW235746   1.981   7.395   7.691 -0.7951  1.2466 -1.8468
11502SOL     OW35747   2.640   1.445   0.965 -0.2096 -0.3254 -0.2970
11502SOL    HW135748   2.624   1.365   0.914  2.7792 -1.0440 -0.2448
11502SOL    HW235749   2.655   1.513   0.899  1.5015 -0.7840 -0.4133
11503SOL     OW35750   3.972   2.510   6.796 -0.2585 -0.3019  0.1632
11503SOL    HW135751   3.913   2.437   6.779 -1.3904  0.9781 -1.6229
11503SOL    HW235752   3.922   2.569   6.852 -0.5155  0.5721 -0.9776
11504SOL     OW35753   6.677   8.255   5.731  0.5533  0.1138 -0.5223
11504SOL    HW135754   6.698   8.162   5.732  0.9735  0.2128  0.0134
11504SOL    HW235755   6.658   8.274   5.639 -0.1272 -0.6328 -0.5397
11505SOL     OW35756   3.032   6.627   5.353 -0.0683 -0.3151  0.4283
11505SOL    HW135757   3.086   6.706   5.362 -0.0725 -0.1815 -0.6575
11505SOL    HW235758   2.973   6.646   5.281 -0.5944 -1.0248  0.6612
11506SOL     OW35759   6.096   2.083   4.887 -0.1473  0.7483  0.1292
11506SOL    HW135760   6.025   2.036   4.841  0.0344 -0.4653  1.0578
11506SOL    HW235761   6.073   2.076   4.979  0.4236  1.6321  0.3383
11507SOL     OW35762   1.543   1.626   2.082 -0.1751  0.0699  0.8420
11507SOL    HW135763   1.544   1.713   2.123 -0.9202  0.2125  0.5814
11507SOL    HW235764   1.623   1.622   2.030 -0.9850  1.2931 -0.5397
11508SOL     OW35765   6.733   5.691   0.904  0.2312 -0.1129 -0.1379
11508SOL    HW135766   6.645   5.687   0.867  0.5222  0.5023 -0.8998
11508SOL    HW235767   6.776   5.763   0.858  0.8872  0.0966  0.7717
11509SOL     OW35768   3.374   1.947   1.728  0.3210  0.5842 -0.2853
11509SOL    HW135769   3.339   1.932   1.816  0.5531  0.2442 -0.2507
11509SOL    HW235770   3.394   1.859   1.695  1.5332  0.8019 -0.1470
11510SOL     OW35771   3.114   5.251   5.777  0.1453 -0.4243  0.4535
11510SOL    HW135772   3.067   5.317   5.828 -0.6937 -0.4532 -0.2538
11510SOL    HW235773   3.044   5.202   5.733  0.8062 -1.1622  0.2289
11511SOL     OW35774   5.432   1.388   2.174 -0.0270 -0.0915 -0.3050
11511SOL    HW135775   5.492   1.314   2.160 -0.9451 -0.9241  0.1147
11511SOL    HW235776   5.439   1.408   2.267 -1.4990 -1.1573  0.0461
11512SOL     OW35777   1.901   4.945   7.652  0.5252 -0.0732  0.0330
11512SOL    HW135778   1.805   4.945   7.647  0.5130  1.1903  0.2210
11512SOL    HW235779   1.929   5.001   7.580  1.1296 -0.4498 -0.0259
11513SOL     OW35780   3.375   5.051   3.973 -0.4087 -0.2916 -0.3399
11513SOL    HW135781   3.312   5.071   3.905 -0.4477  0.2296 -0.1572
11513SOL    HW235782   3.423   4.975   3.941 -0.9294 -0.5039 -0.6090
11514SOL     OW35783   6.017   0.597   4.207 -0.3594 -0.5243 -0.4886
11514SOL    HW135784   6.012   0.686   4.240 -1.0507 -0.8527  0.3399
11514SOL    HW235785   6.083   0.555   4.262 -0.9361 -0.8508 -0.0249
11515SOL     OW35786   2.570   6.891   1.105  0.1522  0.0300 -0.3822
11515SOL    HW135787   2.613   6.963   1.152 -0.5310 -0.3166  0.7920
11515SOL    HW235788   2.600   6.900   1.015 -0.3040  2.0763 -0.3511
11516SOL     OW35789   1.654   5.869   6.081 -0.0417 -0.3218 -0.1766
11516SOL    HW135790   1.661   5.953   6.127  1.6087 -0.7640  0.4156
11516SOL    HW235791   1.580   5.881   6.021 -0.4722  1.2064  0.6181
11517SOL     OW35792   0.084   6.212   7.408  0.3209 -0.0577  0.2587
11517SOL    HW135793  -0.002   6.180   7.382 -0.0052  1.8934 -1.1330
11517SOL    HW235794   0.088   6.196   7.502  0.2462 -4.2711 -0.3172
11518SOL     OW35795   6.559   1.126   8.091 -0.1595  0.2505 -0.3985
11518SOL    HW135796   6.526   1.036   8.092 -0.9025  0.5122 -0.7518
11518SOL    HW235797   6.630   1.125   8.027 -0.2644 -0.0466 -0.5139
11519SOL     OW35798   7.104   1.767   0.232  0.8693 -0.5511  0.1205
11519SOL    HW135799   7.069   1.682   0.207 -0.6173 -0.8385  2.9744
11519SOL    HW235800   7.161   1.750   0.306  0.3568  0.9425  0.8918
11520SOL     OW35801   3.799   0.043   5.446  0.4130  0.1955  0.6259
11520SOL    HW135802   3.806   0.021   5.539 -1.8084 -0.2884  0.6943
11520SOL    HW235803   3.720   0.096   5.439 -0.5789 -1.4704 -1.2839
11521SOL     OW35804   4.835   5.511   3.608  0.3354 -0.0660  0.1713
11521SOL    HW135805   4.790   5.448   3.663  1.0088  0.8506  1.8156
11521SOL    HW235806   4.885   5.458   3.546  0.0452 -1.1178  0.8279
11522SOL     OW35807   6.898   3.743   0.678 -0.0746 -0.3411  0.3942
11522SOL    HW135808   6.935   3.829   0.698  0.3076 -0.7306  1.3802
11522SOL    HW235809   6.945   3.683   0.734 -2.7110 -0.7628  2.2534
11523SOL     OW35810   4.468   1.166   7.467  0.2502 -0.1312 -0.2831
11523SOL    HW135811   4.411   1.094   7.493 -0.6079  0.3104 -0.9107
11523SOL    HW235812   4.552   1.123   7.446 -0.4244 -1.0309 -1.2263
11524SOL     OW35813   5.377   0.506   6.184  0.2043 -0.4043 -0.1085
11524SOL    HW135814   5.435   0.478   6.255 -1.1278 -0.6527  0.8901
11524SOL    HW235815   5.379   0.602   6.190  2.5393 -0.2962 -1.7445
11525SOL     OW35816   3.796   5.478   7.426 -0.4918  0.4545 -0.4078
11525SOL    HW135817   3.870   5.531   7.395 -0.2758  0.6550  0.4264
11525SOL    HW235818   3.837   5.412   7.482 -0.9697  0.7602  0.3129
11526SOL     OW35819   7.470   6.127   0.533  0.2879  0.4833  0.0644
11526SOL    HW135820   7.395   6.185   0.519  0.8983  1.0983 -0.7040
11526SOL    HW235821   7.541   6.185   0.558  0.6239 -0.0548  0.3611
11527SOL     OW35822   0.928   5.756   2.818  0.4832 -0.3636 -0.3094
11527SOL    HW135823   0.955   5.671   2.784  1.5526  0.1157 -0.6824
11527SOL    HW235824   0.933   5.815   2.742  1.3668  0.3808  0.3051
11528SOL     OW35825   6.044   4.499   6.486 -0.2436 -0.2531  0.4228
11528SOL    HW135826   6.075   4.481   6.574 -1.3277 -0.4461  0.7717
11528SOL    HW235827   6.010   4.589   6.490  2.1701  0.7459 -0.4905
11529SOL     OW35828   3.464   5.585   3.281 -0.0126 -0.4661 -0.5308
11529SOL    HW135829   3.494   5.516   3.339 -0.1093  0.6989  0.9338
11529SOL    HW235830   3.375   5.559   3.255  0.6174 -1.7717 -1.4480
11530SOL     OW35831   3.611   0.414   4.968 -0.7220 -0.0253  0.3887
11530SOL    HW135832   3.542   0.355   4.938 -1.8507  1.2361  0.4162
11530SOL    HW235833   3.579   0.448   5.051 -0.9439  1.9675 -0.4743
11531SOL     OW35834   0.103   4.271   3.771  0.0620 -0.4587 -0.1266
11531SOL    HW135835   0.146   4.355   3.755  0.1225 -0.0858  1.8106
11531SOL    HW235836   0.020   4.276   3.723 -0.5151  1.2315  1.0092
11532SOL     OW35837   3.899   7.729   1.551 -0.6988 -0.0668 -0.1662
11532SOL    HW135838   3.903   7.718   1.456  1.4507  1.0971 -0.2452
11532SOL    HW235839   3.874   7.643   1.585 -0.1111 -0.8602 -1.7000
11533SOL     OW35840   6.865   1.615   2.222  0.2366  0.1087  0.0870
11533SOL    HW135841   6.828   1.662   2.297 -0.3828  0.6283 -0.5330
11533SOL    HW235842   6.941   1.668   2.196  0.2752  0.0919  0.1653
11534SOL     OW35843   3.724   3.623   7.044  0.6612  0.2197  0.0795
11534SOL    HW135844   3.773   3.602   6.964 -0.0241 -0.3946 -0.1864
11534SOL    HW235845   3.789   3.615   7.114  0.9518 -0.5781 -0.2703
11535SOL     OW35846   1.308   3.738   4.802 -0.5854 -0.0524  1.0250
11535SOL    HW135847   1.353   3.693   4.874 -0.7902  0.9396  1.7874
11535SOL    HW235848   1.368   3.807   4.776 -0.3098 -0.7064 -0.0842
11536SOL     OW35849   3.632   7.186   1.787 -0.1289 -0.3437  0.3391
11536SOL    HW135850   3.699   7.243   1.825 -1.1137  0.0509  1.4969
11536SOL    HW235851   3.605   7.231   1.707 -0.5671  0.5665  1.0037
11537SOL     OW35852   2.008   7.915   7.189 -0.5944  0.1070 -0.6730
11537SOL    HW135853   2.091   7.935   7.146 -0.0698  0.3401  0.4453
11537SOL    HW235854   2.015   7.823   7.213 -0.1179  0.4667  0.6040
11538SOL     OW35855   1.524   6.628   6.075  0.0060 -0.1063  0.5465
11538SOL    HW135856   1.440   6.661   6.109 -1.5121 -0.3446 -2.7936
11538SOL    HW235857   1.500   6.579   5.997  3.1723 -1.4251  0.3346
11539SOL     OW35858   5.204   4.772   0.211  0.3902  0.0301 -0.3235
11539SOL    HW135859   5.177   4.863   0.227 -0.7101  0.1198 -2.4740
11539SOL    HW235860   5.128   4.732   0.169  1.5716 -1.3372 -1.2037
11540SOL     OW35861   4.057   5.022   4.535  0.1783 -0.4033 -0.3730
11540SOL    HW135862   3.966   5.022   4.567 -0.2648 -0.7594 -1.6058
11540SOL    HW235863   4.110   5.013   4.615 -0.9130 -1.7550  0.2351
11541SOL     OW35864   2.708   6.002   7.493 -0.0828 -0.0349  0.1441
11541SOL    HW135865   2.634   5.945   7.513  0.7362 -0.1019  3.2241
11541SOL    HW235866   2.694   6.080   7.546  0.8281  0.9667 -1.0592
11542SOL     OW35867   7.055   7.113   6.841 -0.5567  0.3835  0.1088
11542SOL    HW135868   7.149   7.129   6.840 -0.4741 -0.1017 -0.7323
11542SOL    HW235869   7.022   7.164   6.915 -0.2577  3.9073 -2.1149
11543SOL     OW35870   0.466   5.859   6.852  0.2190  0.4535 -0.4689
11543SOL    HW135871   0.508   5.801   6.789  1.8957  0.6157  0.4573
11543SOL    HW235872   0.386   5.887   6.809  0.2065 -1.2368 -1.5947
11544SOL     OW35873   2.650   2.602   6.074 -0.0744  0.2357  0.4056
11544SOL    HW135874   2.709   2.671   6.043 -2.1489 -0.0027 -4.6876
11544SOL    HW235875   2.696   2.520   6.054 -0.2977  0.0911  0.4805
11545SOL     OW35876   3.630   5.908   5.240 -0.2267 -0.6271  0.1643
11545SOL    HW135877   3.621   5.864   5.325 -1.6478 -0.7388 -0.0372
11545SOL    HW235878   3.544   5.946   5.224  0.5076  0.7805 -0.4742
11546SOL     OW35879   1.497   5.904   5.840 -0.2542  0.7892  0.2051
11546SOL    HW135880   1.588   5.917   5.815 -0.7816  3.4170 -0.5323
11546SOL    HW235881   1.447   5.942   5.768 -1.9257  0.1461  1.0051
11547SOL     OW35882   2.181   4.568   5.847 -0.5263 -0.2994 -0.8384
11547SOL    HW135883   2.242   4.552   5.919  1.3785  1.8150 -1.9004
11547SOL    HW235884   2.094   4.552   5.885  0.5550 -1.2769  1.3153
11548SOL     OW35885   6.356   2.845   7.919 -0.9075 -0.3053 -0.4930
11548SOL    HW135886   6.438   2.875   7.958 -0.5671  1.9973 -2.8501
11548SOL    HW235887   6.287   2.886   7.971 -0.5906 -1.4737  0.8882
11549SOL     OW35888   2.948   0.455   5.726 -0.0088  0.1035  0.2335
11549SOL    HW135889   2.882   0.443   5.794 -1.4652  0.0611 -1.1617
11549SOL    HW235890   3.008   0.381   5.736 -1.4256 -1.0779  0.1232
11550SOL     OW35891   5.000   6.778   7.736 -0.4656 -0.1403  0.5955
11550SOL    HW135892   5.041   6.851   7.781  0.5795  0.4957 -1.3106
11550SOL    HW235893   5.069   6.712   7.729 -0.9972 -0.7509  1.0823
11551SOL     OW35894   6.081   0.197   0.850  0.3560  0.2566  0.4458
11551SOL    HW135895   6.023   0.259   0.895 -1.2250 -0.5506 -0.4720
11551SOL    HW235896   6.158   0.191   0.907 -0.4250  1.3745  1.6417
11552SOL     OW35897   1.659   5.652   4.900  0.3764 -0.2019  0.1356
11552SOL    HW135898   1.574   5.696   4.888 -0.6151 -2.2211 -0.3679
11552SOL    HW235899   1.699   5.654   4.813  0.6212  0.2781  0.2570
11553SOL     OW35900   2.493   5.457   2.465  0.7112 -0.3952 -0.1212
11553SOL    HW135901   2.544   5.389   2.509 -1.8875 -0.4046  3.1084
11553SOL    HW235902   2.430   5.409   2.411  1.4698 -0.4546 -0.9619
11554SOL     OW35903   3.503   3.996   1.634 -0.7247 -0.0422  0.3050
11554SOL    HW135904   3.589   4.007   1.594 -0.5264 -1.7337  0.2537
11554SOL    HW235905   3.514   3.925   1.697 -1.7267  0.7122  1.3590
11555SOL     OW35906   1.898   0.681   0.050  0.5255  0.2572  0.2115
11555SOL    HW135907   1.843   0.718   0.119 -0.9529 -1.3642 -0.0517
11555SOL    HW235908   1.921   0.594   0.083 -0.2219 -0.5426 -1.3361
11556SOL     OW35909   2.721   3.229   5.634  0.3554  0.0327 -0.2503
11556SOL    HW135910   2.710   3.142   5.672  1.2316  0.1676  0.3124
11556SOL    HW235911   2.735   3.212   5.541  2.3762 -0.5398  0.1503
11557SOL     OW35912   6.560   3.149   3.726  0.3772  0.8559 -0.2788
11557SOL    HW135913   6.628   3.081   3.730 -0.5793 -0.0534  0.6849
11557SOL    HW235914   6.489   3.116   3.781 -0.9194  1.7241 -1.3978
11558SOL     OW35915   5.996   5.230   5.080  0.5822 -0.5600 -0.2216
11558SOL    HW135916   6.056   5.234   5.007  0.8410  0.2807  0.0277
11558SOL    HW235917   6.029   5.295   5.142 -0.5091 -0.1597 -0.0394
11559SOL     OW35918   3.397   7.991   6.175  0.0134  0.7177  0.3635
11559SOL    HW135919   3.399   7.897   6.194  1.3214  0.9144  1.2470
11559SOL    HW235920   3.322   8.002   6.117 -1.8709 -0.4382  2.5024
11560SOL     OW35921   0.779   6.260   0.882 -0.2508 -0.1242 -0.0522
11560SOL    HW135922   0.696   6.262   0.835 -0.0755 -0.2791 -0.3740
11560SOL    HW235923   0.845   6.264   0.813  0.0095  0.0018  0.2016
11561SOL     OW35924   3.300   6.633   0.407  0.5022 -0.0249  0.2713
11561SOL    HW135925   3.347   6.626   0.490 -0.9042  0.8493  1.1652
11561SOL    HW235926   3.361   6.679   0.348  1.6261 -0.9419  0.7036
11562SOL     OW35927   1.954   3.245   8.221 -0.4138 -0.7373  0.2968
11562SOL    HW135928   1.883   3.222   8.160  0.0659 -1.2547 -0.0643
11562SOL    HW235929   1.949   3.341   8.227 -0.9420 -0.7424  0.0292
11563SOL     OW35930   5.086   7.896   8.102  0.2449  0.2231  0.2080
11563SOL    HW135931   5.005   7.861   8.065 -0.6486  1.5284  0.8983
11563SOL    HW235932   5.058   7.965   8.161  1.8379  0.2354  0.9798
11564SOL     OW35933   7.703   6.174   7.266  0.2581 -0.2646 -0.0189
11564SOL    HW135934   7.672   6.096   7.313  0.1108  0.3053  0.8396
11564SOL    HW235935   7.716   6.144   7.176  1.6574 -1.6706  0.6224
11565SOL     OW35936   4.785   5.463   1.033 -0.0137  0.5366  0.0251
11565SOL    HW135937   4.749   5.380   1.002 -0.2970 -0.1155  2.0583
11565SOL    HW235938   4.858   5.438   1.089  2.7713  1.7986 -2.8746
11566SOL     OW35939   5.601   4.399   5.087 -0.2136  0.2250  0.5176
11566SOL    HW135940   5.680   4.352   5.061  0.3905  1.3628  0.2118
11566SOL    HW235941   5.622   4.491   5.069 -1.7083  0.5093  0.1777
11567SOL     OW35942   2.494   2.360   3.890  0.2009  0.6216 -0.2959
11567SOL    HW135943   2.504   2.284   3.833  2.4541  0.7962 -0.1758
11567SOL    HW235944   2.505   2.436   3.833  2.0083  0.8009  0.2537
11568SOL     OW35945   0.964   0.666   7.081  0.3983  0.0972  0.7097
11568SOL    HW135946   1.002   0.726   7.145  1.8484  0.5360 -0.5631
11568SOL    HW235947   0.973   0.711   6.997  0.1657 -1.2751 -0.0568
11569SOL     OW35948   3.138   2.550   4.445 -0.1497 -0.0104  0.0064
11569SOL    HW135949   3.201   2.479   4.460 -0.4129 -0.0188  1.1516
11569SOL    HW235950   3.093   2.526   4.364 -0.0341 -1.0079  0.2281
11570SOL     OW35951   7.192   8.180   7.993  0.6896  0.4197  0.1468
11570SOL    HW135952   7.198   8.167   7.898 -0.7191  0.3944  0.0445
11570SOL    HW235953   7.152   8.099   8.025  2.1942 -0.0378  0.9158
11571SOL     OW35954   5.049   6.613   2.413 -0.8586 -0.2013 -0.1028
11571SOL    HW135955   5.008   6.657   2.488  0.1842  1.5863 -0.5565
11571SOL    HW235956   5.028   6.670   2.338  0.5768 -0.4375 -0.6931
11572SOL     OW35957   7.390   5.905   7.504 -0.0884 -0.0289  0.2282
11572SOL    HW135958   7.326   5.935   7.569 -0.5956  1.0767 -0.7768
11572SOL    HW235959   7.375   5.961   7.428  1.0077 -0.8275 -0.5805
11573SOL     OW35960   1.032   0.660   1.408  0.3257  0.1952 -0.5379
11573SOL    HW135961   0.953   0.606   1.405  0.3178  0.1138  0.8130
11573SOL    HW235962   1.072   0.640   1.493  1.4119  0.7830 -0.8954
11574SOL     OW35963   7.327   4.475   1.285  0.0126 -0.1682  0.1597
11574SOL    HW135964   7.271   4.440   1.354  0.1164  0.4969  0.5845
11574SOL    HW235965   7.416   4.456   1.314  0.1317  1.7683  1.1295
11575SOL     OW35966   0.872   1.472   5.882 -0.4465 -0.5423 -0.3945
11575SOL    HW135967   0.956   1.444   5.846  0.9837  2.5875  0.3558
11575SOL    HW235968   0.826   1.512   5.808 -0.7560 -1.0790 -0.4980
11576SOL     OW35969   6.472   5.288   7.469  0.0152  0.1674 -0.1184
11576SOL    HW135970   6.565   5.286   7.489 -0.1826 -1.2906  0.7490
11576SOL    HW235971   6.429   5.300   7.554 -0.6415 -1.0945 -0.2443
11577SOL     OW35972   5.807   2.322   3.158  0.2903 -0.3405  0.1983
11577SOL    HW135973   5.767   2.312   3.244  1.1229 -1.9782  0.4140
11577SOL    HW235974   5.872   2.391   3.169 -0.2225  0.0804  0.6363
11578SOL     OW35975   7.176   7.364   4.796  0.2417  0.1470  0.4694
11578SOL    HW135976   7.105   7.426   4.780  0.6389  0.4812  0.0006
11578SOL    HW235977   7.178   7.355   4.891 -0.6775 -0.1557  0.4690
11579SOL     OW35978   2.652   4.450   2.204 -0.4661 -0.3353  0.3616
11579SOL    HW135979   2.650   4.436   2.109  1.1275 -0.2020  0.2941
11579SOL    HW235980   2.744   4.439   2.228 -0.9132 -0.7455  1.9557
11580SOL     OW35981   3.574   8.190   4.603  0.1507  0.2500 -0.0156
11580SOL    HW135982   3.497   8.163   4.552 -0.2712  1.1454  0.1471
11580SOL    HW235983   3.598   8.276   4.567  1.4209 -0.2637 -0.4447
11581SOL     OW35984   6.646   4.743   0.107  0.0490  0.3635  0.0061
11581SOL    HW135985   6.616   4.815   0.163 -1.8420  1.5153 -2.4175
11581SOL    HW235986   6.731   4.772   0.075  0.5251  0.2997  1.1769
11582SOL     OW35987   0.448   5.095   6.125  0.1237 -0.3931  0.0174
11582SOL    HW135988   0.495   5.050   6.054 -1.0327 -0.6150 -0.6092
11582SOL    HW235989   0.395   5.026   6.165  1.0237 -0.3363  1.3089
11583SOL     OW35990   3.312   5.933   3.411  0.1549  0.1144 -0.2701
11583SOL    HW135991   3.219   5.927   3.388 -0.1248 -0.2995  0.9308
11583SOL    HW235992   3.340   6.018   3.376 -1.2827  1.3267  1.4604
11584SOL     OW35993   2.688   3.945   2.470  0.2274  0.4780 -0.1325
11584SOL    HW135994   2.744   3.870   2.447  1.2002  0.8157  1.0901
11584SOL    HW235995   2.599   3.914   2.452  0.7587 -0.2628 -1.5661
11585SOL     OW35996   3.660   7.572   2.409  0.8870 -0.0282  0.3059
11585SOL    HW135997   3.570   7.558   2.438  0.6326 -0.3264 -0.6047
11585SOL    HW235998   3.665   7.666   2.390  0.8431  0.0357  0.6110
11586SOL     OW35999   3.927   4.199   4.728  0.3341 -0.3549 -0.2825
11586SOL    HW136000   3.917   4.195   4.824  0.7777 -0.6092 -0.2487
11586SOL    HW236001   4.019   4.182   4.713  0.7140  1.9517 -0.6324
11587SOL     OW36002   0.928   7.389   1.311  0.2051  0.1394 -0.1216
11587SOL    HW136003   0.907   7.313   1.257 -0.7993  0.2982  0.0290
11587SOL    HW236004   0.897   7.464   1.259 -0.7341  0.2921  0.6523
11588SOL     OW36005   0.926   3.399   5.372 -0.3470 -0.0170  0.3158
11588SOL    HW136006   0.952   3.430   5.285  0.2312 -1.1170  0.0925
11588SOL    HW236007   1.009   3.373   5.413 -0.6024  0.6071  1.2447
11589SOL     OW36008   0.288   5.405   1.921 -0.2669  0.3569  0.2975
11589SOL    HW136009   0.243   5.330   1.960  0.1269  0.8483  1.7309
11589SOL    HW236010   0.331   5.448   1.994  0.8839  1.0465 -0.7604
11590SOL     OW36011   3.564   6.601   3.323 -0.4064 -0.1965 -0.2776
11590SOL    HW136012   3.600   6.549   3.395 -2.4740  0.5870  1.3542
11590SOL    HW236013   3.551   6.688   3.359 -0.3469  0.5292 -1.9590
11591SOL     OW36014   3.675   6.310   6.752  0.0725  0.0623 -0.0273
11591SOL    HW136015   3.646   6.395   6.719  1.1119 -0.2229 -1.7452
11591SOL    HW236016   3.597   6.255   6.749 -0.8807  1.2314  2.1527
11592SOL     OW36017   6.913   2.684   0.826 -0.2834 -0.3441 -0.3265
11592SOL    HW136018   6.953   2.600   0.803  0.8121  0.5043 -1.5981
11592SOL    HW236019   6.956   2.710   0.907 -0.2347 -0.7377 -0.2240
11593SOL     OW36020   1.603   1.150   3.324  0.2370 -0.2207  0.6665
11593SOL    HW136021   1.536   1.217   3.310  0.5799 -0.3523 -1.7498
11593SOL    HW236022   1.566   1.094   3.393 -0.6725  1.5951  1.6988
11594SOL     OW36023   4.240   1.889   0.618  0.9924 -0.1329  0.3349
11594SOL    HW136024   4.237   1.916   0.526 -0.0653 -0.7023  0.1976
11594SOL    HW236025   4.301   1.815   0.620  0.5139 -0.5390 -0.0183
11595SOL     OW36026   6.988   6.420   0.734 -0.3211  0.4177 -0.1506
11595SOL    HW136027   7.028   6.496   0.692  0.4111 -1.3048 -2.6780
11595SOL    HW236028   6.896   6.423   0.706 -0.2769  0.3438 -0.3047
11596SOL     OW36029   5.199   7.235   8.237 -0.2344 -0.6947 -0.2664
11596SOL    HW136030   5.108   7.208   8.229 -0.8545  1.1405  0.4327
11596SOL    HW236031   5.222   7.218   8.328 -0.1442 -0.3725 -0.2253
11597SOL     OW36032   1.373   0.727   5.623 -0.2174  0.4630  0.5124
11597SOL    HW136033   1.453   0.747   5.574 -1.7130 -0.0286 -2.2075
11597SOL    HW236034   1.327   0.810   5.630 -1.3159  0.0579 -1.4156
11598SOL     OW36035   8.287   3.519   5.143 -0.1945 -0.4930  0.4231
11598SOL    HW136036   8.256   3.431   5.165  2.4317 -2.0843 -1.8767
11598SOL    HW236037   8.377   3.522   5.177 -0.2616  1.3079  0.4867
11599SOL     OW36038   5.336   3.945   4.231  0.3872  0.2596  0.0633
11599SOL    HW136039   5.270   3.884   4.197  0.7996  0.0597 -0.4089
11599SOL    HW236040   5.287   4.014   4.273 -0.0968 -0.3477  0.5026
11600SOL     OW36041   7.614   2.284   7.998  0.2943  0.2462  0.2460
11600SOL    HW136042   7.666   2.286   8.079 -0.4149  0.3555  0.6988
11600SOL    HW236043   7.599   2.191   7.982  0.9942  0.1914 -0.1253
11601SOL     OW36044   6.443   3.830   6.385 -0.1437 -0.0024  0.0880
11601SOL    HW136045   6.529   3.845   6.344  0.0577  0.3044  0.6162
11601SOL    HW236046   6.461   3.829   6.479 -0.9636  1.8269  0.2934
11602SOL     OW36047   7.019   7.988   8.079 -0.1640 -0.0883  0.0521
11602SOL    HW136048   7.064   7.961   8.159  0.9851  1.7127  0.0464
11602SOL    HW236049   6.935   7.942   8.081  0.0766 -0.4495  2.0214
11603SOL     OW36050   5.200   1.279   4.837 -0.2485 -0.0033  0.1936
11603SOL    HW136051   5.109   1.289   4.865 -0.1395  0.5797  0.3581
11603SOL    HW236052   5.236   1.212   4.895 -0.4674  0.0490  0.3895
11604SOL     OW36053   7.481   7.491   7.388  0.0979 -0.1492 -0.0086
11604SOL    HW136054   7.508   7.472   7.298  0.4156  1.1094 -0.1889
11604SOL    HW236055   7.514   7.418   7.439  1.1349 -0.1798 -0.7176
11605SOL     OW36056   4.227   0.186   0.526 -0.1711  0.0125 -0.0881
11605SOL    HW136057   4.250   0.167   0.435  1.2923  0.0839  0.2595
11605SOL    HW236058   4.286   0.256   0.552  0.1339 -0.7304  1.2493
11606SOL     OW36059   2.849   2.735   4.561 -0.6010 -0.9838  0.2203
11606SOL    HW136060   2.796   2.803   4.602  1.1227 -0.0198  0.9157
11606SOL    HW236061   2.816   2.729   4.471  0.0711  1.7166 -0.2456
11607SOL     OW36062   5.438   2.042   5.928 -0.1172  0.4800 -0.0678
11607SOL    HW136063   5.509   2.103   5.946  0.1624 -0.2971  1.5593
11607SOL    HW236064   5.406   2.017   6.014 -0.4978 -1.3534 -0.7283
11608SOL     OW36065   6.142   3.226   1.079  0.6503 -0.3218 -0.6423
11608SOL    HW136066   6.215   3.199   1.024 -0.2863 -1.4105 -1.3729
11608SOL    HW236067   6.149   3.171   1.157  0.8530 -0.1250 -0.5202
11609SOL     OW36068   6.346   7.047   3.711  0.6923  0.0789  0.2845
11609SOL    HW136069   6.332   7.127   3.660  0.3067 -0.4497 -0.4407
11609SOL    HW236070   6.279   7.051   3.780  0.0912 -0.0535 -0.2843
11610SOL     OW36071   6.965   7.200   6.035 -0.2628  0.5899 -0.1266
11610SOL    HW136072   7.013   7.278   6.062  1.0666  0.0944 -1.0354
11610SOL    HW236073   6.881   7.207   6.081 -0.4645  2.9421 -0.7654
11611SOL     OW36074   4.732   8.255   5.173  0.0643  0.0590 -0.2986
11611SOL    HW136075   4.637   8.249   5.182  0.2557 -0.0391  1.8418
11611SOL    HW236076   4.750   8.349   5.175  0.1568  0.0257  1.1816
11612SOL     OW36077   3.662   1.753   4.447 -0.0170  0.0466 -0.4915
11612SOL    HW136078   3.737   1.693   4.447 -1.3539 -1.7273 -3.2468
11612SOL    HW236079   3.601   1.714   4.509  1.4213  1.6616  1.9936
11613SOL     OW36080   7.556   5.233   4.083  0.4013  0.4534 -0.2521
11613SOL    HW136081   7.589   5.238   4.173  0.2602  0.6514 -0.2114
11613SOL    HW236082   7.627   5.191   4.035 -0.3521 -1.5042  0.3348
11614SOL     OW36083   6.982   4.276   2.406 -0.1057  0.3437 -0.0353
11614SOL    HW136084   6.933   4.228   2.472 -2.5872  3.9255  0.8910
11614SOL    HW236085   7.074   4.261   2.429 -0.8163 -2.6153  1.0920
11615SOL     OW36086   5.918   3.294   5.612  0.2490  0.4646  0.1901
11615SOL    HW136087   5.949   3.344   5.688 -1.5543 -0.3707  1.5044
11615SOL    HW236088   5.824   3.283   5.627  0.0026 -0.3283 -1.8223
11616SOL     OW36089   0.853   3.549   2.727  0.3506  0.1244  0.3795
11616SOL    HW136090   0.900   3.585   2.802  2.0578 -1.0787 -0.1043
11616SOL    HW236091   0.809   3.471   2.760  0.4261  0.0570  0.3204
11617SOL     OW36092   3.555   6.478   3.102  0.8444 -0.1174 -0.1995
11617SOL    HW136093   3.561   6.544   3.172 -0.5503  0.0898 -0.2653
11617SOL    HW236094   3.645   6.453   3.086  1.5378  2.8086 -1.1580
11618SOL     OW36095   1.057   7.019   0.736 -0.1889  0.3766 -0.0137
11618SOL    HW136096   0.988   7.035   0.800 -0.4093  0.3535 -0.2494
11618SOL    HW236097   1.050   7.091   0.674  0.0095  0.3830 -0.0304
11619SOL     OW36098   0.663   4.313   2.212  0.2638 -0.0112 -0.0784
11619SOL    HW136099   0.644   4.222   2.235 -1.0510 -0.3656 -2.3963
11619SOL    HW236100   0.582   4.360   2.231  0.9987  0.7511  1.2902
11620SOL     OW36101   4.715   6.649   1.507 -0.1248  0.3526 -0.0017
11620SOL    HW136102   4.730   6.646   1.412 -0.6787  0.6290 -0.0991
11620SOL    HW236103   4.652   6.579   1.523  0.4155 -0.0759  0.2454
11621SOL     OW36104   6.252   5.383   3.085  0.2549  0.1301 -0.1436
11621SOL    HW136105   6.303   5.355   3.009  0.7640  2.7830 -0.8416
11621SOL    HW236106   6.181   5.435   3.048  0.3895  1.2754  1.1682
11622SOL     OW36107   6.434   0.226   6.090 -0.3172 -0.0916  0.4583
11622SOL    HW136108   6.509   0.262   6.043 -1.7622  1.9916 -0.3471
11622SOL    HW236109   6.441   0.263   6.178  0.3685 -1.0450  0.8111
11623SOL     OW36110   6.404   1.899   3.120 -0.0080  0.0348  0.2912
11623SOL    HW136111   6.500   1.895   3.110  0.0406  0.5067  0.5561
11623SOL    HW236112   6.379   1.809   3.138  0.4281 -0.0377  0.5513
11624SOL     OW36113   8.172   2.665   4.954 -0.0069  0.4940  0.4471
11624SOL    HW136114   8.146   2.731   4.890 -0.2437  0.5128  0.5600
11624SOL    HW236115   8.096   2.658   5.013  0.4613  0.9661  1.1225
11625SOL     OW36116   0.595   4.767   5.085 -0.7533  0.2028  0.6179
11625SOL    HW136117   0.528   4.819   5.128 -2.1690 -0.8806 -0.2400
11625SOL    HW236118   0.573   4.676   5.107 -0.7313 -0.2845 -1.2916
11626SOL     OW36119   1.026   7.666   5.041 -0.9725 -0.1403 -0.0677
11626SOL    HW136120   1.067   7.752   5.041 -3.1912  0.9565 -0.7931
11626SOL    HW236121   1.099   7.604   5.049  0.5450  1.8392  2.0565
11627SOL     OW36122   1.779   3.930   7.620  0.7821 -0.2867 -0.5369
11627SOL    HW136123   1.833   3.902   7.695 -0.0285  0.0839  0.1926
11627SOL    HW236124   1.696   3.885   7.633 -0.6422  2.6028  0.7794
11628SOL     OW36125   4.392   3.565   3.926  0.0833 -0.8003 -0.2762
11628SOL    HW136126   4.400   3.522   3.841  1.0840  0.5791 -0.9044
11628SOL    HW236127   4.360   3.497   3.985 -0.1908 -1.8854 -1.6622
11629SOL     OW36128   2.904   1.989   4.315  0.2461  0.0549  0.3122
11629SOL    HW136129   2.933   2.073   4.279  1.3018 -0.7859 -0.8471
11629SOL    HW236130   2.981   1.955   4.361 -0.8341  0.7207  2.7103
11630SOL     OW36131   1.545   7.717   8.010 -0.4935 -0.1672 -0.0669
11630SOL    HW136132   1.549   7.772   7.932 -0.3842  0.0521  0.0921
11630SOL    HW236133   1.485   7.646   7.987  0.1365 -0.5201 -0.6084
11631SOL     OW36134   6.175   7.050   1.128  0.0395  0.1458 -0.3041
11631SOL    HW136135   6.243   7.115   1.109 -0.3568  0.7340  0.2914
11631SOL    HW236136   6.212   6.967   1.097  1.7741  0.1653  1.6084
11632SOL     OW36137   6.930   2.458   4.847  0.4272 -0.8002 -0.0683
11632SOL    HW136138   6.914   2.418   4.932  0.9265  1.8521  1.3351
11632SOL    HW236139   7.025   2.466   4.842  0.3420  0.1515 -0.3239
11633SOL     OW36140   7.514   0.385   6.249 -0.1582  0.6491  0.2543
11633SOL    HW136141   7.561   0.407   6.169  0.3435  2.2004  0.9675
11633SOL    HW236142   7.551   0.443   6.316  0.6547 -1.8068  2.0183
11634SOL     OW36143   5.733   5.003   6.453 -0.3309  0.2163 -0.3825
11634SOL    HW136144   5.692   5.061   6.517 -0.8565  0.5117 -0.9744
11634SOL    HW236145   5.660   4.951   6.418  0.4314 -2.4082  1.7567
11635SOL     OW36146   6.116   5.226   7.684 -0.0123  0.1384 -0.2534
11635SOL    HW136147   6.083   5.234   7.774 -3.7595  1.2920 -1.6257
11635SOL    HW236148   6.197   5.278   7.684  1.1416 -1.4839  2.8817
11636SOL     OW36149   0.462   6.858   3.688  0.0469  0.5395 -0.0655
11636SOL    HW136150   0.439   6.872   3.596  1.1221 -0.6461 -0.5293
11636SOL    HW236151   0.385   6.815   3.725 -0.4761  1.2159 -0.3482
11637SOL     OW36152   5.351   2.671   7.461 -0.5293 -0.3817 -0.0641
11637SOL    HW136153   5.299   2.650   7.538  0.2677  0.0684  0.6038
11637SOL    HW236154   5.374   2.764   7.471 -1.7212  0.1171 -1.6197
11638SOL     OW36155   5.123   2.003   2.401  0.0702 -0.8045  0.6193
11638SOL    HW136156   5.173   1.956   2.467  0.7492 -1.5127 -0.3899
11638SOL    HW236157   5.107   1.939   2.332 -1.1724 -0.2474  0.3668
11639SOL     OW36158   2.764   2.482   0.727  0.2411 -0.6800 -0.3106
11639SOL    HW136159   2.739   2.460   0.637 -3.6530  2.3721 -0.1174
11639SOL    HW236160   2.807   2.567   0.719 -0.6773 -0.1080  0.7609
11640SOL     OW36161   4.086   1.756   5.667  0.3542 -0.3174 -0.1399
11640SOL    HW136162   4.139   1.760   5.746 -1.5625  0.3852  1.1336
11640SOL    HW236163   4.136   1.699   5.608  1.3767 -1.5608  1.8696
11641SOL     OW36164   7.249   8.281   6.580 -0.2310 -0.2505  0.2836
11641SOL    HW136165   7.243   8.372   6.610 -1.5916 -0.3827  0.4525
11641SOL    HW236166   7.158   8.256   6.563  0.0970 -1.7371  0.7187
11642SOL     OW36167   4.689   1.993   2.245 -0.5114 -0.2211 -0.7870
11642SOL    HW136168   4.774   1.964   2.211 -0.1738 -1.3716  0.9643
11642SOL    HW236169   4.701   2.086   2.263  0.5633 -0.4984 -0.0333
11643SOL     OW36170   8.108   0.182   5.366  0.1136 -0.1015  0.1921
11643SOL    HW136171   8.036   0.135   5.407 -0.5872  1.5975  0.9682
11643SOL    HW236172   8.074   0.209   5.281 -0.3870  1.1832  0.7840
11644SOL     OW36173   7.462   1.902   4.334 -0.0333 -0.0837 -0.2394
11644SOL    HW136174   7.377   1.937   4.361 -0.0240 -1.1391  1.1689
11644SOL    HW236175   7.450   1.879   4.242 -1.6281 -1.3137  0.2586
11645SOL     OW36176   2.747   7.847   0.340  0.0476  0.0075  0.4034
11645SOL    HW136177   2.667   7.855   0.391 -0.0388 -2.1232  0.6546
11645SOL    HW236178   2.787   7.765   0.370  2.3275  1.0276  0.2860
11646SOL     OW36179   4.968   0.137   4.391 -0.0212 -0.1756  0.4115
11646SOL    HW136180   5.011   0.091   4.464  1.5924 -1.1502 -1.1173
11646SOL    HW236181   5.022   0.214   4.376 -0.1347 -0.1747  0.0050
11647SOL     OW36182   2.563   8.276   1.773  0.4682  0.1707  0.2661
11647SOL    HW136183   2.508   8.355   1.771  0.7382  0.3178 -1.9452
11647SOL    HW236184   2.517   8.217   1.834 -0.9325  1.1648  0.2110
11648SOL     OW36185   0.123   2.748   0.960 -0.1046 -0.5122  0.0199
11648SOL    HW136186   0.214   2.775   0.946 -0.1256 -0.1043  0.6521
11648SOL    HW236187   0.075   2.786   0.886  0.5406 -2.4023 -1.4186
11649SOL     OW36188   8.077   4.434   1.508 -0.1226  0.2313 -0.2074
11649SOL    HW136189   8.094   4.484   1.429 -0.9516  0.4127 -0.2833
11649SOL    HW236190   8.005   4.481   1.551 -1.7173 -1.5172 -0.8635
11650SOL     OW36191   1.582   1.062   6.281  0.4684  0.9917  0.4188
11650SOL    HW136192   1.611   1.152   6.270 -3.0287  1.9204 -2.3002
11650SOL    HW236193   1.559   1.055   6.374  1.6867  2.5787  0.8630
11651SOL     OW36194   4.839   6.571   6.340  0.2678 -0.5108 -0.1540
11651SOL    HW136195   4.840   6.666   6.351 -0.1427 -0.6633  1.2350
11651SOL    HW236196   4.927   6.543   6.365 -0.1426 -0.6761  1.1185
11652SOL     OW36197   0.586   4.213   8.034  0.1261  0.1741  0.0347
11652SOL    HW136198   0.643   4.206   8.111 -1.2116  2.1308  1.2508
11652SOL    HW236199   0.567   4.307   8.028 -2.5370 -0.3909 -0.6450
11653SOL     OW36200   1.769   6.727   1.755 -0.1684 -0.1202 -0.0277
11653SOL    HW136201   1.733   6.704   1.841  2.7116 -0.8745  1.0355
11653SOL    HW236202   1.762   6.647   1.703  0.0261 -0.2793  0.1914
11654SOL     OW36203   2.530   7.652   4.519 -0.5856 -0.2374 -0.2584
11654SOL    HW136204   2.569   7.704   4.589 -0.8016 -0.5991  0.1277
11654SOL    HW236205   2.498   7.717   4.456  2.3466  0.0535 -1.5300
11655SOL     OW36206   5.284   0.935   6.898  0.4214 -0.3337 -0.3410
11655SOL    HW136207   5.247   1.006   6.846  0.0672 -0.2196  0.0619
11655SOL    HW236208   5.216   0.914   6.962  0.6023 -0.8992 -0.3281
11656SOL     OW36209   3.745   3.028   5.390  0.9199  0.4679 -0.2805
11656SOL    HW136210   3.698   3.099   5.345  1.1346  1.0576  0.4229
11656SOL    HW236211   3.698   2.948   5.363  0.9958  0.8161 -1.4849
11657SOL     OW36212   0.181   1.202   6.109  0.2304  0.2511  0.3394
11657SOL    HW136213   0.231   1.230   6.032  1.5051  1.7142  1.6806
11657SOL    HW236214   0.090   1.225   6.088  0.1961 -1.4846 -1.6793
11658SOL     OW36215   6.781   5.007   0.193  0.1113  0.2240  0.1042
11658SOL    HW136216   6.844   5.040   0.129  1.5861 -1.2955  0.7360
11658SOL    HW236217   6.753   5.084   0.241 -1.1640  1.4341 -2.4483
11659SOL     OW36218   0.469   7.524   0.585 -0.0021 -0.6214  0.6661
11659SOL    HW136219   0.544   7.568   0.627  0.3859  0.3716 -0.9848
11659SOL    HW236220   0.421   7.595   0.543 -1.2908 -1.3963  0.8159
11660SOL     OW36221   4.837   0.608   1.301 -0.5065  0.1350  0.8958
11660SOL    HW136222   4.915   0.621   1.354 -0.7522 -0.9633  1.5386
11660SOL    HW236223   4.869   0.570   1.219 -0.1980  1.2491  0.4817
11661SOL     OW36224   4.410   2.728   8.075  0.3258 -0.3792  0.4844
11661SOL    HW136225   4.400   2.690   7.988  0.3607 -0.7907  0.6586
11661SOL    HW236226   4.334   2.695   8.124  0.5175 -0.4733  0.7223
11662SOL     OW36227   3.373   4.052   4.077 -0.3770  0.3392  0.3006
11662SOL    HW136228   3.448   4.029   4.022 -2.9981 -1.2363 -2.8850
11662SOL    HW236229   3.339   3.967   4.107 -3.5427  0.5803 -2.2316
11663SOL     OW36230   7.332   4.196   0.030  0.1012 -0.2533  0.5334
11663SOL    HW136231   7.418   4.162   0.005 -0.1360  0.7323 -1.7278
11663SOL    HW236232   7.271   4.129  -0.000 -0.1740  0.8471 -1.4115
11664SOL     OW36233   4.428   7.263   1.770 -0.1637  0.2450  0.0760
11664SOL    HW136234   4.371   7.295   1.700 -0.2856  2.1766  1.0271
11664SOL    HW236235   4.370   7.214   1.829  0.1502 -2.4764 -1.7608
11665SOL     OW36236   3.972   3.783   2.623  0.1617 -0.5112 -0.0987
11665SOL    HW136237   4.065   3.805   2.630  0.3959 -0.6256 -2.3149
11665SOL    HW236238   3.959   3.765   2.530 -2.1418 -0.2214  0.1336
11666SOL     OW36239   4.134   0.005   3.797 -0.0897 -0.3378  0.1772
11666SOL    HW136240   4.113   0.076   3.736  0.1173 -0.1025  0.3828
11666SOL    HW236241   4.122  -0.075   3.745 -0.0436 -0.1444 -0.1336
11667SOL     OW36242   0.378   2.921   5.646  0.0412  0.2853 -0.4658
11667SOL    HW136243   0.464   2.882   5.627  0.0514 -1.0191  2.1258
11667SOL    HW236244   0.344   2.870   5.719 -2.6568  1.2529 -1.0124
11668SOL     OW36245   6.838   3.404   1.708  0.1277 -0.1987 -0.7684
11668SOL    HW136246   6.814   3.352   1.631  0.9421  0.0725 -1.2055
11668SOL    HW236247   6.918   3.450   1.682 -0.2339  0.7828 -0.1577
11669SOL     OW36248   6.874   8.180   0.226  0.2234  0.5779  0.0312
11669SOL    HW136249   6.917   8.258   0.191 -1.1680  2.1268  1.7056
11669SOL    HW236250   6.908   8.108   0.172  3.1220  2.0410 -0.1781
11670SOL     OW36251   5.507   5.074   2.695 -0.1495 -0.0838 -0.2693
11670SOL    HW136252   5.576   5.018   2.730 -0.3309  0.0040  0.2270
11670SOL    HW236253   5.472   5.120   2.771 -1.1589 -0.5626 -0.4340
11671SOL     OW36254   4.635   4.649   0.402 -0.3366  0.1244  0.1214
11671SOL    HW136255   4.541   4.634   0.392 -0.1690 -0.6634 -0.3178
11671SOL    HW236256   4.652   4.732   0.358 -0.7517  0.0327 -0.2110
11672SOL     OW36257   2.348   1.662   2.328  0.2145 -0.4687  0.0833
11672SOL    HW136258   2.440   1.682   2.309 -0.1931  0.0570 -1.4926
11672SOL    HW236259   2.327   1.592   2.266 -0.6103 -0.1415 -0.0072
11673SOL     OW36260   8.266   7.091   4.725  0.0040  0.1400 -0.4391
11673SOL    HW136261   8.269   7.005   4.683 -0.3298  0.0158 -0.2069
11673SOL    HW236262   8.358   7.113   4.740  0.0558 -0.6535  0.4791
11674SOL     OW36263   3.308   0.166   1.395 -0.1869 -0.2647  0.2713
11674SOL    HW136264   3.333   0.251   1.433  1.4498 -0.0074 -1.3473
11674SOL    HW236265   3.274   0.188   1.308  0.8365 -1.3414 -0.4060
11675SOL     OW36266   0.421   1.313   6.251  0.0744  0.9076 -0.0454
11675SOL    HW136267   0.344   1.348   6.297 -1.0881  0.6552 -1.7742
11675SOL    HW236268   0.392   1.300   6.161  1.3615 -1.7715 -0.1063
11676SOL     OW36269   0.575   6.196   3.291 -0.0201  0.1646 -0.1060
11676SOL    HW136270   0.501   6.159   3.339 -1.0465  1.5614 -0.5621
11676SOL    HW236271   0.575   6.289   3.316  2.4656 -0.1163  1.0125
11677SOL     OW36272   3.714   0.932   3.193  0.3143 -0.1340  0.1579
11677SOL    HW136273   3.697   0.980   3.112  1.1613 -0.5191 -0.2586
11677SOL    HW236274   3.693   0.994   3.262 -1.8442 -0.2851 -0.3311
11678SOL     OW36275   6.903   1.720   5.080  0.0306  0.2645  0.0421
11678SOL    HW136276   6.913   1.626   5.064  0.7558  0.4379 -0.5613
11678SOL    HW236277   6.936   1.734   5.168  2.2714  0.3479 -0.7967
11679SOL     OW36278   0.859   5.434   8.277 -0.3393 -0.6788  0.1075
11679SOL    HW136279   0.942   5.390   8.261 -0.0325 -0.1908  0.3319
11679SOL    HW236280   0.873   5.483   8.359  0.0773  1.6360 -1.2992
11680SOL     OW36281   7.490   4.817   3.661  0.2045  0.0665  0.0585
11680SOL    HW136282   7.405   4.777   3.678  0.4448 -0.7987 -0.7178
11680SOL    HW236283   7.484   4.904   3.700 -0.2013 -0.8485  2.0927
11681SOL     OW36284   4.179   1.427   3.218 -0.0487 -0.3742 -0.0694
11681SOL    HW136285   4.244   1.357   3.211  0.0147 -0.2793 -0.4261
11681SOL    HW236286   4.102   1.393   3.172  0.3234  0.1950 -1.1323
11682SOL     OW36287   0.890   2.140   4.741  0.1503 -0.2602 -0.3062
11682SOL    HW136288   0.977   2.175   4.718 -0.2362  1.4931  0.7928
11682SOL    HW236289   0.849   2.122   4.657  0.7818  0.9483 -0.8888
11683SOL     OW36290   1.304   4.806   0.171 -0.3306  0.3017 -0.3043
11683SOL    HW136291   1.299   4.722   0.217  2.0575 -0.4505 -1.3142
11683SOL    HW236292   1.292   4.784   0.079  1.3794  0.8707 -0.6952
11684SOL     OW36293   8.057   4.373   7.922 -0.0941  0.1185 -0.2773
11684SOL    HW136294   7.981   4.430   7.910  0.3557  1.1490  1.6168
11684SOL    HW236295   8.020   4.285   7.924 -1.0176  0.4643 -1.2417
11685SOL     OW36296   1.422   5.892   7.726 -0.8479  0.5996  0.9020
11685SOL    HW136297   1.444   5.941   7.805  1.8031  1.1090 -0.1186
11685SOL    HW236298   1.450   5.802   7.745  2.3897  1.2570 -0.4134
11686SOL     OW36299   2.344   2.528   7.379  0.7889  0.3135  0.1107
11686SOL    HW136300   2.344   2.608   7.430 -0.8342 -0.3211  1.1560
11686SOL    HW236301   2.377   2.554   7.293 -1.8305  2.6009 -0.2584
11687SOL     OW36302   2.917   7.754   3.526 -0.5767 -0.9610 -0.3608
11687SOL    HW136303   2.990   7.735   3.585 -0.1422  0.4256 -0.4433
11687SOL    HW236304   2.863   7.674   3.529 -0.7064 -0.8308  2.1037
11688SOL     OW36305   0.866   0.751   1.186  0.2735  0.3323  0.4150
11688SOL    HW136306   0.947   0.742   1.236  0.0675  0.3180  0.7447
11688SOL    HW236307   0.813   0.812   1.237  0.0629  0.3123  0.2168
11689SOL     OW36308   0.054   5.665   7.341  0.2351  0.2135  0.0644
11689SOL    HW136309   0.149   5.662   7.354  0.3623  1.1152 -0.6599
11689SOL    HW236310   0.020   5.710   7.419  0.2927 -0.9716  0.7999
11690SOL     OW36311   7.679   6.431   4.880  0.2438  0.3814 -0.4448
11690SOL    HW136312   7.741   6.465   4.815  1.0237  0.8660  0.5441
11690SOL    HW236313   7.732   6.374   4.935 -0.5096 -0.3558 -0.4817
11691SOL     OW36314   7.291   1.988   6.288  0.2547  0.0664  0.0515
11691SOL    HW136315   7.237   1.909   6.295 -0.1868  0.5086  1.6860
11691SOL    HW236316   7.372   1.966   6.333  0.3614  0.3391 -0.0072
11692SOL     OW36317   7.563   3.783   6.354  0.3320 -0.3795  0.0831
11692SOL    HW136318   7.514   3.732   6.290  1.1037 -0.5339 -0.3879
11692SOL    HW236319   7.579   3.867   6.310  0.8895 -0.4968  0.0607
11693SOL     OW36320   1.559   0.372   2.909  0.1525 -0.0674 -0.3395
11693SOL    HW136321   1.597   0.331   2.831  1.3936 -0.8306  0.6526
11693SOL    HW236322   1.513   0.300   2.953  0.4704  0.0848  0.2506
11694SOL     OW36323   7.058   6.973   1.628 -0.4536  0.3448  0.5145
11694SOL    HW136324   7.141   6.954   1.672  0.0021  2.1479  0.5068
11694SOL    HW236325   6.995   6.982   1.700 -0.8505 -1.8735  0.4727
11695SOL     OW36326   1.339   0.590   1.160 -0.2937 -0.0775 -0.3826
11695SOL    HW136327   1.365   0.628   1.077  0.8016  1.0908  0.4727
11695SOL    HW236328   1.351   0.660   1.224  1.1069 -1.6070  1.1180
11696SOL     OW36329   4.381   6.438   3.806 -0.0152 -0.3002 -0.1863
11696SOL    HW136330   4.453   6.387   3.844  0.3118  0.0379 -0.3487
11696SOL    HW236331   4.308   6.424   3.867 -0.7187 -3.0458 -1.5784
11697SOL     OW36332   8.204   0.962   1.166  0.0653  0.6737  0.1500
11697SOL    HW136333   8.120   1.004   1.183 -0.6019 -0.6224  0.0733
11697SOL    HW236334   8.193   0.917   1.083  0.2571 -0.9762  1.0035
11698SOL     OW36335   5.249   3.269   5.530 -0.7700 -0.0584  0.2189
11698SOL    HW136336   5.212   3.350   5.566  0.7526 -0.8949  3.8236
11698SOL    HW236337   5.174   3.211   5.518 -1.5139  0.8699  0.3491
11699SOL     OW36338   8.029   6.044   0.205  0.1090 -0.2471 -0.3718
11699SOL    HW136339   8.054   6.133   0.178  2.5779 -0.7887  0.0679
11699SOL    HW236340   7.956   6.022   0.147 -0.9416  2.2778 -0.1006
11700SOL     OW36341   5.803   4.599   4.690  0.0110 -0.1754 -0.1113
11700SOL    HW136342   5.868   4.530   4.692 -1.5882 -1.7535 -1.6379
11700SOL    HW236343   5.842   4.668   4.636  0.1974 -1.3091 -1.4150
11701SOL     OW36344   4.530   6.258   2.731  0.2166  0.7431 -0.4331
11701SOL    HW136345   4.611   6.218   2.762 -0.7532  1.8938  3.9662
11701SOL    HW236346   4.559   6.339   2.688  1.5308  0.0704 -0.8442
11702SOL     OW36347   6.370   3.181   8.133  0.0806  0.0546  0.3997
11702SOL    HW136348   6.408   3.171   8.045  2.3448  0.4002  1.2814
11702SOL    HW236349   6.389   3.097   8.177 -1.9100 -0.4868  0.2677
11703SOL     OW36350   6.044   2.768   2.801  0.2299  0.2111 -0.4070
11703SOL    HW136351   6.047   2.859   2.774 -1.2667  0.1635 -0.7711
11703SOL    HW236352   6.126   2.731   2.769 -0.0885  0.9283 -2.1303
11704SOL     OW36353   4.451   1.059   3.411 -0.1874  0.1197 -0.5958
11704SOL    HW136354   4.532   1.024   3.372  0.0658 -1.0516  0.9394
11704SOL    HW236355   4.383   0.996   3.386 -0.6148  1.0093 -1.7329
11705SOL     OW36356   4.463   4.817   7.355  0.1479 -0.0133 -0.1162
11705SOL    HW136357   4.558   4.805   7.352  0.1043 -0.5851  0.5869
11705SOL    HW236358   4.427   4.733   7.327 -0.1496  0.3817 -0.9232
11706SOL     OW36359   5.627   1.221   2.075 -0.2961  0.2881  0.4212
11706SOL    HW136360   5.610   1.128   2.060  0.1675  0.2392  0.1756
11706SOL    HW236361   5.645   1.256   1.988  1.1890  0.2608  0.6999
11707SOL     OW36362   5.040   4.586   0.381 -0.0394  0.0671  0.0785
11707SOL    HW136363   5.122   4.628   0.354 -0.3289  1.3260  1.0843
11707SOL    HW236364   5.053   4.493   0.363  1.8080  0.1835  0.7088
11708SOL     OW36365   3.219   6.631   2.264 -0.2969 -0.3838  0.0959
11708SOL    HW136366   3.253   6.543   2.278 -1.4387 -1.0983 -1.5115
11708SOL    HW236367   3.135   6.633   2.310 -1.1756 -0.7784 -1.4457
11709SOL     OW36368   2.047   3.706   3.850  0.4167  0.2548  0.0208
11709SOL    HW136369   2.075   3.786   3.894  1.9367 -0.7354  0.8771
11709SOL    HW236370   1.957   3.693   3.881 -0.2980  2.2486 -1.0562
11710SOL     OW36371   6.791   5.212   0.963  0.3101  0.5125  0.0291
11710SOL    HW136372   6.731   5.195   0.891  0.4908 -2.6633  0.5437
11710SOL    HW236373   6.751   5.168   1.038  1.6060  1.2152  1.1501
11711SOL     OW36374   6.808   7.255   4.936 -0.2506 -0.1086  0.0193
11711SOL    HW136375   6.802   7.321   5.005  1.0062 -0.4001  0.4318
11711SOL    HW236376   6.849   7.301   4.863 -1.1300  0.0692 -0.3693
11712SOL     OW36377   1.856   1.186   5.583  0.6662 -0.1400 -0.1901
11712SOL    HW136378   1.927   1.188   5.519  3.2907 -2.1845  2.5524
11712SOL    HW236379   1.814   1.101   5.569  1.3743 -0.6744  0.9529
11713SOL     OW36380   6.912   1.784   3.720  0.2188 -0.2313  0.4929
11713SOL    HW136381   6.955   1.776   3.635 -0.1704  1.0720  0.1685
11713SOL    HW236382   6.829   1.737   3.710  0.8641 -1.4232  0.6468
11714SOL     OW36383   7.225   7.012   7.081 -0.1201 -0.2898  0.3180
11714SOL    HW136384   7.267   6.994   6.997 -0.2109 -0.1141  0.2336
11714SOL    HW236385   7.215   7.107   7.083 -0.8957 -0.3644  0.1461
11715SOL     OW36386   5.371   5.552   4.273  0.1885 -0.3504  0.0533
11715SOL    HW136387   5.388   5.563   4.367  0.0447  0.3823  0.0008
11715SOL    HW236388   5.414   5.470   4.250 -0.2413 -0.8135  0.8801
11716SOL     OW36389   6.707   3.368   3.666  0.3370 -0.3830 -1.1527
11716SOL    HW136390   6.792   3.340   3.700 -0.0883 -1.5836 -1.0551
11716SOL    HW236391   6.650   3.293   3.680 -1.1649  0.9899  0.3012
11717SOL     OW36392   0.192   5.331   3.227  0.4755  0.2578 -0.1177
11717SOL    HW136393   0.252   5.346   3.299  0.4293  0.9934 -0.2239
11717SOL    HW236394   0.245   5.291   3.158  0.5294 -0.3974  0.3039
11718SOL     OW36395   6.664   2.547   0.941  0.1810  0.6154  0.2543
11718SOL    HW136396   6.751   2.574   0.910  1.4184 -0.1376  2.9403
11718SOL    HW236397   6.629   2.623   0.987  1.2061 -0.3601  2.7453
11719SOL     OW36398   2.063   6.486   3.472 -0.5408 -0.2776 -0.0323
11719SOL    HW136399   1.973   6.475   3.441 -0.7087  0.1983  0.2859
11719SOL    HW236400   2.112   6.510   3.393 -0.8257  0.1715 -0.0750
11720SOL     OW36401   1.843   1.673   1.268 -0.1240 -0.2636 -0.0018
11720SOL    HW136402   1.787   1.740   1.306 -0.0313 -0.8144  1.1206
11720SOL    HW236403   1.794   1.591   1.278  1.0363 -0.8076  1.3384
11721SOL     OW36404   5.878   1.475   3.378 -0.0137  1.0002  0.5825
11721SOL    HW136405   5.933   1.550   3.402 -0.0657  1.2853 -0.1659
11721SOL    HW236406   5.901   1.457   3.287 -2.6078  2.4296 -0.4143
11722SOL     OW36407   6.994   2.611   2.899 -0.1959  0.3481 -0.6920
11722SOL    HW136408   7.049   2.577   2.828  0.1010 -0.1602 -0.2267
11722SOL    HW236409   7.021   2.702   2.910 -0.0556  0.3503 -1.0497
11723SOL     OW36410   0.550   7.692   0.819 -0.0806 -0.5295  0.2926
11723SOL    HW136411   0.645   7.684   0.805 -0.1076 -0.6666  0.1811
11723SOL    HW236412   0.536   7.785   0.834  0.0055 -0.4375 -0.1811
11724SOL     OW36413   6.568   8.097   0.191 -0.1527 -0.0847  0.4941
11724SOL    HW136414   6.662   8.085   0.206  0.0019  2.8475  2.3029
11724SOL    HW236415   6.528   8.023   0.237  1.2187 -1.2046 -0.0426
11725SOL     OW36416   1.459   4.413   5.428 -0.1142 -0.1756 -0.1883
11725SOL    HW136417   1.536   4.422   5.371  0.6617 -2.8297  0.4124
11725SOL    HW236418   1.410   4.341   5.390  0.3390 -1.9103  2.3927
11726SOL     OW36419   6.583   4.811   5.684  0.4051  0.2672 -0.0028
11726SOL    HW136420   6.514   4.868   5.719 -1.1554 -0.8100 -1.2256
11726SOL    HW236421   6.664   4.848   5.717 -0.8211  0.9955  2.3093
11727SOL     OW36422   0.561   5.617   6.215  0.0244  0.0160 -0.7651
11727SOL    HW136423   0.504   5.680   6.170 -1.1130 -1.1244 -0.9453
11727SOL    HW236424   0.649   5.651   6.202 -0.3635  0.2225 -3.0358
11728SOL     OW36425   6.614   1.670   5.292  0.2914  0.0811  0.0110
11728SOL    HW136426   6.593   1.577   5.304  0.6930  0.0090  0.1540
11728SOL    HW236427   6.540   1.716   5.332 -0.9186 -0.1692 -1.8558
11729SOL     OW36428   5.216   2.155   4.723  0.1683  0.3087 -0.1380
11729SOL    HW136429   5.234   2.244   4.693 -0.9085  0.3768 -0.6148
11729SOL    HW236430   5.211   2.163   4.819 -0.8417  0.9508 -0.2279
11730SOL     OW36431   8.299   2.726   1.654 -0.3731  0.5269 -0.0615
11730SOL    HW136432   8.208   2.719   1.624  0.2142 -1.9837 -1.4382
11730SOL    HW236433   8.305   2.665   1.728  0.7815 -1.3078 -1.6107
11731SOL     OW36434   0.944   4.262   4.459 -0.7387  0.0600 -0.5236
11731SOL    HW136435   0.871   4.299   4.410 -1.2579 -0.2874 -0.0121
11731SOL    HW236436   0.979   4.194   4.402 -0.9286  0.1006 -0.6901
11732SOL     OW36437   0.963   2.409   1.537 -0.7247 -0.0313 -0.3110
11732SOL    HW136438   1.013   2.486   1.564 -1.8144 -0.0411  1.8103
11732SOL    HW236439   1.016   2.335   1.567 -0.5865 -0.0864 -0.6884
11733SOL     OW36440   3.333   6.599   7.243 -0.1036  0.0274 -0.0838
11733SOL    HW136441   3.413   6.643   7.272 -0.6676  0.4354  0.8955
11733SOL    HW236442   3.262   6.654   7.277 -0.8459 -2.3821  2.4432
11734SOL     OW36443   3.396   0.461   7.739 -0.6667 -0.4174 -0.5391
11734SOL    HW136444   3.398   0.377   7.786 -4.2386 -0.7530 -0.8191
11734SOL    HW236445   3.419   0.438   7.649  1.6841 -0.5083  0.0509
11735SOL     OW36446   4.430   6.114   5.347 -0.1806 -0.2021  0.3382
11735SOL    HW136447   4.415   6.145   5.258  0.8970 -0.9215 -0.1031
11735SOL    HW236448   4.347   6.074   5.373 -1.0907  1.6087  0.3498
11736SOL     OW36449   7.947   2.419   6.493  0.1147  0.1310  0.3161
11736SOL    HW136450   8.002   2.492   6.521 -0.2536  0.3743  0.4204
11736SOL    HW236451   7.861   2.459   6.478 -0.4469 -0.5143  1.7138
11737SOL     OW36452   6.442   1.013   2.976 -0.1677  0.6215 -0.0576
11737SOL    HW136453   6.380   0.962   3.027  1.6694 -0.6005  0.9912
11737SOL    HW236454   6.400   1.023   2.890 -1.3503 -1.0614  0.3047
11738SOL     OW36455   2.870   7.559   4.963  0.2013 -0.4847 -0.1797
11738SOL    HW136456   2.890   7.495   4.895 -0.0193 -0.7805  0.0314
11738SOL    HW236457   2.936   7.546   5.030  0.2035 -0.4374 -0.1722
11739SOL     OW36458   1.083   0.443   5.923  0.4651 -0.5236  0.2230
11739SOL    HW136459   1.047   0.414   6.006 -1.8722 -1.9028 -1.2136
11739SOL    HW236460   1.129   0.366   5.888 -0.1011 -0.5066 -0.5787
11740SOL     OW36461   5.433   2.982   0.015  0.2003  0.3075 -0.2869
11740SOL    HW136462   5.362   2.925  -0.016  1.0904 -0.6877 -0.5448
11740SOL    HW236463   5.415   3.067  -0.024 -0.5297 -0.0950 -0.8270
11741SOL     OW36464   6.875   0.760   0.693 -0.1280 -0.2338  0.2550
11741SOL    HW136465   6.868   0.742   0.787 -1.2374 -1.4243 -0.0484
11741SOL    HW236466   6.962   0.727   0.669 -0.5736 -1.5810  0.4958
11742SOL     OW36467   1.777   7.409   1.072 -0.2586 -0.0748  0.0611
11742SOL    HW136468   1.804   7.418   0.980 -0.9621  0.0395 -0.1346
11742SOL    HW236469   1.776   7.315   1.088  0.0541 -0.0882  0.0055
11743SOL     OW36470   7.482   6.777   5.747 -0.1361 -0.1387 -0.3592
11743SOL    HW136471   7.548   6.709   5.731 -0.1304 -0.0679 -0.6399
11743SOL    HW236472   7.436   6.785   5.664 -1.4583 -1.2098  0.2475
11744SOL     OW36473   2.296   4.311   8.143 -0.1710  0.0656 -0.2025
11744SOL    HW136474   2.210   4.348   8.160 -0.9409 -1.1907 -1.3039
11744SOL    HW236475   2.355   4.361   8.200 -1.5079  1.4051  0.0435
11745SOL     OW36476   4.577   5.613   3.126 -0.8290  0.4188  0.1190
11745SOL    HW136477   4.635   5.671   3.175 -1.1268  0.2934  0.6160
11745SOL    HW236478   4.587   5.527   3.167  0.0929 -0.0326 -1.0191
11746SOL     OW36479   8.139   1.569   5.156 -0.5738 -0.3216 -0.2683
11746SOL    HW136480   8.116   1.581   5.248 -0.3765 -1.4696 -0.0581
11746SOL    HW236481   8.071   1.616   5.108  0.3220  1.8117  0.4978
11747SOL     OW36482   6.688   7.904   5.298  0.3676 -0.1998 -0.1048
11747SOL    HW136483   6.773   7.890   5.257  0.2379 -2.5270  0.3709
11747SOL    HW236484   6.625   7.888   5.229  0.2704  0.7939 -0.2606
11748SOL     OW36485   0.412   3.680   1.776  0.3067  0.1739 -0.3184
11748SOL    HW136486   0.346   3.667   1.844 -0.2818  1.3030 -0.6684
11748SOL    HW236487   0.493   3.695   1.824  0.0103  0.3718  0.1270
11749SOL     OW36488   7.910   3.976   5.757  0.0747 -0.0391  0.3892
11749SOL    HW136489   7.975   4.015   5.698 -1.7902  1.6466 -0.5918
11749SOL    HW236490   7.907   3.884   5.731  0.7793  0.2549 -0.7779
11750SOL     OW36491   1.627   1.462   7.060  0.4217  0.3829  0.8067
11750SOL    HW136492   1.660   1.515   6.988  0.6648  0.2198  0.7996
11750SOL    HW236493   1.551   1.511   7.093 -1.7290 -1.1437 -1.6526
11751SOL     OW36494   5.477   5.414   2.914  0.4493 -0.2425  0.1822
11751SOL    HW136495   5.451   5.437   3.003  2.0052  0.1065  0.5557
11751SOL    HW236496   5.428   5.333   2.895 -0.8125  0.3331  0.8855
11752SOL     OW36497   1.640   5.538   5.964  0.1749  0.6790 -0.0653
11752SOL    HW136498   1.621   5.444   5.971 -0.8609  0.9349  0.6722
11752SOL    HW236499   1.699   5.556   6.038  2.1055  0.1916 -1.4586
11753SOL     OW36500   7.599   2.906   6.811 -0.5016  0.2722 -0.1882
11753SOL    HW136501   7.561   2.853   6.882 -0.0840  0.4178  0.1478
11753SOL    HW236502   7.675   2.949   6.851 -0.2338  0.3198 -0.7363
11754SOL     OW36503   0.243   8.146   0.556  0.2369 -0.1815 -0.0945
11754SOL    HW136504   0.149   8.154   0.573  0.3669 -0.0591  0.5668
11754SOL    HW236505   0.260   8.212   0.489 -0.5327 -1.6122 -1.7482
11755SOL     OW36506   0.547   1.483   6.875 -0.1860 -0.5680 -0.3350
11755SOL    HW136507   0.536   1.445   6.963 -2.0152 -1.7090 -1.0281
11755SOL    HW236508   0.526   1.576   6.886 -1.9944 -1.0157  0.1455
11756SOL     OW36509   2.073   2.582   2.904  0.0098  0.7069  0.3157
11756SOL    HW136510   2.110   2.551   2.987  1.2529  0.1933 -0.4122
11756SOL    HW236511   1.978   2.572   2.914  0.2015 -0.0560  1.4028
11757SOL     OW36512   0.273   0.153   8.122  0.0369  0.6198  0.5078
11757SOL    HW136513   0.216   0.122   8.194  1.4018  0.5416  1.5706
11757SOL    HW236514   0.216   0.153   8.045 -0.8549 -1.5304  1.1285
11758SOL     OW36515   3.234   3.531   7.341  0.2540  0.2028 -0.1407
11758SOL    HW136516   3.147   3.526   7.303 -0.5558 -1.0041  1.7634
11758SOL    HW236517   3.237   3.617   7.384 -0.2758 -0.0406  0.3928
11759SOL     OW36518   2.832   2.116   3.997  0.1983  0.1120  0.2449
11759SOL    HW136519   2.801   2.170   4.069 -0.9478 -0.8388  0.4822
11759SOL    HW236520   2.781   2.035   4.004  0.1153 -0.0201 -1.5771
11760SOL     OW36521   3.813   2.425   7.884  0.1191  0.1125  0.1142
11760SOL    HW136522   3.833   2.460   7.797  0.1002 -1.1943 -0.4259
11760SOL    HW236523   3.718   2.415   7.885  0.1941 -0.6000  0.0063
11761SOL     OW36524   3.284   6.637   6.658 -0.1297  0.9347  0.0355
11761SOL    HW136525   3.281   6.721   6.611 -0.0282  1.3455  0.7545
11761SOL    HW236526   3.193   6.615   6.675 -0.1419  1.0507  0.1157
11762SOL     OW36527   6.932   5.218   6.238  1.0584  0.6352 -0.0105
11762SOL    HW136528   6.852   5.266   6.217  0.3423 -1.0817 -1.3216
11762SOL    HW236529   6.909   5.164   6.314  1.6596  1.8245  1.0321
11763SOL     OW36530   2.947   5.394   5.942  0.4048 -0.5043  0.5998
11763SOL    HW136531   2.951   5.376   6.036  2.3657 -0.3696  0.5550
11763SOL    HW236532   2.972   5.486   5.933  1.2014 -0.7845 -0.1386
11764SOL     OW36533   1.179   2.031   7.180 -0.1794 -0.2517  0.1552
11764SOL    HW136534   1.208   2.032   7.089 -0.4587 -1.1969  0.0482
11764SOL    HW236535   1.203   2.118   7.214  2.6780 -0.9214  0.0417
11765SOL     OW36536   2.811   1.886   5.371  0.0972 -0.0214  0.4566
11765SOL    HW136537   2.808   1.961   5.430  0.2981  0.9245 -0.7176
11765SOL    HW236538   2.776   1.919   5.289 -0.2376 -1.3427  0.0553
11766SOL     OW36539   4.710   5.070   3.726 -0.5837 -0.1755 -0.0114
11766SOL    HW136540   4.736   4.979   3.716  0.5815  0.2309 -0.8459
11766SOL    HW236541   4.644   5.070   3.795  0.0382 -1.5315  0.5850
11767SOL     OW36542   4.351   3.663   1.989  0.0221  0.2722 -0.7225
11767SOL    HW136543   4.417   3.679   2.056 -1.8275  0.9580  0.9752
11767SOL    HW236544   4.329   3.571   1.997  0.5112  0.1263 -1.0521
11768SOL     OW36545   4.270   3.462   7.557 -0.6826 -0.3343  0.5682
11768SOL    HW136546   4.360   3.428   7.556 -0.8451 -0.7629  0.8011
11768SOL    HW236547   4.215   3.386   7.544 -1.0606 -0.2167  1.4830
11769SOL     OW36548   3.419   4.612   5.413 -0.2911  0.2841  0.0283
11769SOL    HW136549   3.324   4.600   5.405 -0.1234 -1.5392  0.4205
11769SOL    HW236550   3.455   4.536   5.367  1.0036  1.4722 -0.9528
11770SOL     OW36551   3.500   4.844   3.814 -0.2169 -0.5872  0.0771
11770SOL    HW136552   3.411   4.842   3.781  0.4046 -0.9780 -1.6150
11770SOL    HW236553   3.552   4.883   3.744  0.9295 -0.2188  1.0929
11771SOL     OW36554   6.263   8.058   4.476 -0.0987  0.2630  0.1532
11771SOL    HW136555   6.208   8.018   4.543  0.2191 -1.2911 -0.4949
11771SOL    HW236556   6.318   8.120   4.524 -1.0716  0.4308  1.0718
11772SOL     OW36557   4.140   2.377   8.075  0.2953 -0.1320  0.3232
11772SOL    HW136558   4.057   2.330   8.063  0.3426 -0.3481  0.8337
11772SOL    HW236559   4.169   2.352   8.163  0.5441  0.5063  0.4225
11773SOL     OW36560   1.296   0.393   6.126 -0.5050 -0.1979 -0.3064
11773SOL    HW136561   1.377   0.428   6.162 -1.1439 -1.0872  2.0718
11773SOL    HW236562   1.241   0.470   6.110 -0.8701  0.1182  2.3132
11774SOL     OW36563   1.042   8.199   3.063  0.2946  0.5012  0.1801
11774SOL    HW136564   0.980   8.126   3.071  0.2951  0.5993  1.2192
11774SOL    HW236565   1.013   8.246   2.985 -0.2677 -0.0928  0.0219
11775SOL     OW36566   7.512   1.242   1.420  0.3955 -0.2300 -0.4141
11775SOL    HW136567   7.562   1.264   1.498  1.0004  1.7748 -1.3611
11775SOL    HW236568   7.428   1.287   1.431  0.6609  0.4408 -1.1577
11776SOL     OW36569   2.487   3.197   3.713 -0.2690  0.6002  0.2673
11776SOL    HW136570   2.513   3.288   3.699  1.2211 -0.1102 -1.8741
11776SOL    HW236571   2.564   3.156   3.755 -0.0964 -0.1605 -0.7724
11777SOL     OW36572   5.461   5.675   3.127  0.3311  0.0470  0.2678
11777SOL    HW136573   5.395   5.611   3.156  1.2870 -0.4866  1.3253
11777SOL    HW236574   5.411   5.754   3.107 -0.9843 -1.3128 -1.9383
11778SOL     OW36575   3.260   4.360   7.879 -0.6141 -0.4514  0.2857
11778SOL    HW136576   3.253   4.454   7.893 -1.1280 -0.2156 -1.4765
11778SOL    HW236577   3.271   4.350   7.785 -1.3444 -2.1893  0.3572
11779SOL     OW36578   6.831   5.179   2.713  0.0100  0.1087 -0.3311
11779SOL    HW136579   6.881   5.206   2.790 -0.0602 -1.5357  0.3128
11779SOL    HW236580   6.884   5.208   2.638  1.9656 -1.6074  0.3308
11780SOL     OW36581   6.718   3.938   8.074  0.4945  0.4466 -0.4967
11780SOL    HW136582   6.776   3.910   8.145 -0.5826  0.8833  0.5590
11780SOL    HW236583   6.657   4.000   8.114 -0.6241  0.1072 -1.6155
11781SOL     OW36584   5.901   1.782   8.301  0.3498  0.1255 -0.2068
11781SOL    HW136585   5.948   1.759   8.381 -2.0703  2.3809  1.9631
11781SOL    HW236586   5.937   1.866   8.275  0.0444  0.1322 -0.6109
11782SOL     OW36587   7.777   0.914   1.653 -0.0955  0.1972 -0.6241
11782SOL    HW136588   7.703   0.879   1.603  1.4766 -0.3973 -2.6039
11782SOL    HW236589   7.806   0.842   1.708 -0.6364  0.2827 -0.2123
11783SOL     OW36590   4.837   1.927   2.740  0.0061  0.6452  0.1828
11783SOL    HW136591   4.761   1.973   2.706  0.5376  0.7303 -0.9118
11783SOL    HW236592   4.801   1.853   2.789 -0.7401 -0.4931 -2.0316
11784SOL     OW36593   5.229   1.092   1.855  0.1286  0.0605  0.2009
11784SOL    HW136594   5.220   0.997   1.856  0.0991  0.0498 -0.6703
11784SOL    HW236595   5.152   1.123   1.807  0.2243  0.5144  0.3323
11785SOL     OW36596   7.383   4.303   7.998  0.3242 -0.1235  0.5697
11785SOL    HW136597   7.345   4.329   8.082  0.8977  1.7524  0.2621
11785SOL    HW236598   7.477   4.307   8.013  0.4306 -1.7234  0.4032
11786SOL     OW36599   3.370   6.138   1.579  0.5982  0.1430 -0.6018
11786SOL    HW136600   3.457   6.098   1.572  0.1461 -0.9275 -0.1777
11786SOL    HW236601   3.388   6.230   1.598  1.6383 -0.3181  0.7600
11787SOL     OW36602   4.989   3.551   4.875  0.0165 -0.3474 -0.7716
11787SOL    HW136603   5.021   3.463   4.854  3.5612  0.5222  0.5352
11787SOL    HW236604   4.964   3.588   4.791 -2.3090 -2.8543 -1.2434
11788SOL     OW36605   3.640   2.233   5.624 -0.0069  0.1375 -0.2349
11788SOL    HW136606   3.575   2.284   5.577  1.3362  2.5363  0.4330
11788SOL    HW236607   3.626   2.255   5.716 -1.7990 -3.5542  0.4819
11789SOL     OW36608   0.859   7.354   2.648  0.0894 -0.1747 -0.1074
11789SOL    HW136609   0.907   7.381   2.569  0.3497  0.3697  0.2360
11789SOL    HW236610   0.848   7.259   2.638  1.6473 -0.3834  0.0279
11790SOL     OW36611   0.690   3.468   7.537  0.4968  0.3086 -0.0279
11790SOL    HW136612   0.785   3.457   7.544  0.7731  0.2081 -3.3025
11790SOL    HW236613   0.678   3.551   7.491 -0.8761 -1.4217 -2.9396
11791SOL     OW36614   5.788   7.485   7.237  0.0732  0.2769 -0.1161
11791SOL    HW136615   5.719   7.528   7.287 -0.1244 -0.9325  0.6808
11791SOL    HW236616   5.815   7.411   7.292  0.7972 -0.2789 -1.1981
11792SOL     OW36617   2.191   7.872   6.726  0.1740  0.4920 -0.2327
11792SOL    HW136618   2.168   7.935   6.658 -0.1768 -0.6556 -1.1917
11792SOL    HW236619   2.128   7.801   6.716  0.4513  0.0624  0.9485
11793SOL     OW36620   0.342   2.855   7.045  0.6318  0.1324 -0.1366
11793SOL    HW136621   0.346   2.830   7.137 -1.4844  1.8916  0.4815
11793SOL    HW236622   0.305   2.779   7.001  0.7865 -0.3756  0.6050
11794SOL     OW36623   0.284   2.492   6.186 -0.0202 -0.6451  0.2259
11794SOL    HW136624   0.200   2.513   6.227 -0.2100 -1.5459  0.3015
11794SOL    HW236625   0.273   2.519   6.095 -1.0293 -2.3923 -0.1973
11795SOL     OW36626   8.151   3.078   8.037 -0.1975 -0.0749 -0.4232
11795SOL    HW136627   8.119   3.127   8.113  2.2640 -0.0058  0.6278
11795SOL    HW236628   8.122   2.988   8.053  0.8082 -0.1824  0.9448
11796SOL     OW36629   3.722   4.669   3.710  0.1175 -0.9667  0.0954
11796SOL    HW136630   3.635   4.694   3.680  0.8394 -0.3119 -1.5226
11796SOL    HW236631   3.782   4.720   3.656  1.5251 -2.4403  0.2164
11797SOL     OW36632   5.110   5.360   6.070 -0.1759  0.2401  0.4186
11797SOL    HW136633   5.145   5.435   6.022 -0.0242  0.6271  1.1314
11797SOL    HW236634   5.089   5.296   6.002 -1.6205  1.4538 -0.2976
11798SOL     OW36635   5.330   5.221   7.427 -0.7439 -0.4173 -0.0745
11798SOL    HW136636   5.245   5.193   7.461 -2.0355  2.6380 -0.5954
11798SOL    HW236637   5.318   5.223   7.332  1.0537 -3.3148 -0.4316
11799SOL     OW36638   0.391   7.677   7.506  0.2562 -0.0090  0.2292
11799SOL    HW136639   0.377   7.582   7.504 -3.7545  0.4608  1.8433
11799SOL    HW236640   0.457   7.690   7.573 -0.3949 -1.5718  1.2207
11800SOL     OW36641   6.342   4.838   1.679 -0.0160  0.5372 -0.4227
11800SOL    HW136642   6.271   4.775   1.667  0.1797  0.0843  0.6996
11800SOL    HW236643   6.349   4.883   1.595 -0.4398 -0.6479 -1.1044
11801SOL     OW36644   5.101   3.640   5.386  0.0907 -0.7802 -0.8455
11801SOL    HW136645   5.073   3.552   5.410  1.6974 -1.1592 -0.2765
11801SOL    HW236646   5.058   3.697   5.449 -0.3830 -1.2198 -0.7668
11802SOL     OW36647   2.248   8.287   4.398  0.7985  0.1613  0.0261
11802SOL    HW136648   2.261   8.247   4.312 -1.0737 -0.5620  0.0638
11802SOL    HW236649   2.218   8.375   4.378 -1.8504 -0.7306 -0.1077
11803SOL     OW36650   8.266   6.930   1.206  0.4444  0.4283 -0.1996
11803SOL    HW136651   8.281   6.935   1.300  1.2983 -0.1221 -0.2998
11803SOL    HW236652   8.345   6.888   1.171 -0.2451 -0.1893 -1.0515
11804SOL     OW36653   2.947   0.631   5.322  0.6043 -0.6345 -0.3242
11804SOL    HW136654   3.024   0.603   5.370 -0.2680 -2.5044  0.0195
11804SOL    HW236655   2.912   0.552   5.282 -1.6699 -0.0050  0.3094
11805SOL     OW36656   3.507   0.145   3.241  0.8120  0.2711 -0.4308
11805SOL    HW136657   3.457   0.199   3.180  1.3336  0.1342 -0.9891
11805SOL    HW236658   3.446   0.127   3.313  0.5299  1.3014 -0.4109
11806SOL     OW36659   5.138   0.520   0.491  0.2475 -0.3005  0.2197
11806SOL    HW136660   5.143   0.438   0.541  3.6923  0.1760  0.8082
11806SOL    HW236661   5.074   0.573   0.538 -2.4912 -2.8483 -0.5233
11807SOL     OW36662   2.615   5.277   2.641 -0.4341  0.4502 -0.0590
11807SOL    HW136663   2.675   5.338   2.685 -1.6352  0.3822  1.7333
11807SOL    HW236664   2.672   5.225   2.584  1.3907 -0.1892  2.2518
11808SOL     OW36665   2.820   5.621   1.945 -0.0991 -0.0777 -0.1318
11808SOL    HW136666   2.881   5.586   1.880 -0.3036 -0.2831 -0.2133
11808SOL    HW236667   2.736   5.627   1.900 -0.4265 -0.9944  0.3412
11809SOL     OW36668   5.649   2.495   5.516 -0.4157  0.3346 -0.0847
11809SOL    HW136669   5.720   2.559   5.503 -1.2779  0.8461 -2.3838
11809SOL    HW236670   5.649   2.442   5.437 -1.7687 -0.5021  0.4564
11810SOL     OW36671   0.407   5.471   2.460 -0.4655 -0.2500 -0.1239
11810SOL    HW136672   0.463   5.425   2.398 -0.8859  1.2110 -1.5928
11810SOL    HW236673   0.378   5.402   2.520  2.2760 -1.1640  0.2347
11811SOL     OW36674   1.338   5.183   0.880  1.1579  0.0647  0.1457
11811SOL    HW136675   1.307   5.206   0.967  0.6757  2.3905 -0.5948
11811SOL    HW236676   1.269   5.214   0.821  1.1694 -2.0789 -1.0360
11812SOL     OW36677   8.157   6.276   6.331 -0.3695 -0.0156  0.2397
11812SOL    HW136678   8.150   6.230   6.247 -0.4903  0.5155 -0.0421
11812SOL    HW236679   8.212   6.352   6.312 -0.8343  0.3875  0.5242
11813SOL     OW36680   5.491   5.940   2.211  0.4469 -0.0968 -0.1795
11813SOL    HW136681   5.413   5.890   2.188  0.3857 -0.6453  1.1817
11813SOL    HW236682   5.537   5.886   2.275  1.6459  0.4819 -0.5348
11814SOL     OW36683   3.551   7.514   4.082 -0.0354 -0.4060 -0.2948
11814SOL    HW136684   3.625   7.460   4.052 -0.2958  0.2378 -2.1926
11814SOL    HW236685   3.582   7.604   4.071 -1.1654 -0.1307 -1.2713
11815SOL     OW36686   6.960   0.831   7.495 -0.1775  0.3879 -0.3400
11815SOL    HW136687   6.946   0.914   7.449  2.6927  1.4557  0.6040
11815SOL    HW236688   7.034   0.790   7.449 -1.0907 -1.3380 -0.3299
11816SOL     OW36689   3.852   6.729   7.510  0.4988  0.4077  0.3088
11816SOL    HW136690   3.877   6.641   7.538 -1.1857 -0.3453 -0.4756
11816SOL    HW236691   3.776   6.751   7.564  0.2293  0.9381 -0.2826
11817SOL     OW36692   2.352   0.895   3.911 -0.1337 -0.3509 -0.3999
11817SOL    HW136693   2.396   0.813   3.930 -2.6251 -1.5980  0.1093
11817SOL    HW236694   2.403   0.961   3.959  0.3217 -1.9385  1.3500
11818SOL     OW36695   0.357   4.539   0.040  0.5649  0.1512 -0.1362
11818SOL    HW136696   0.316   4.500   0.117 -0.6959 -1.0561 -1.3956
11818SOL    HW236697   0.395   4.621   0.072 -2.7710  1.3013  1.1040
11819SOL     OW36698   4.006   2.323   7.538 -0.2314  0.5971  1.0467
11819SOL    HW136699   4.009   2.263   7.464 -1.8965  2.9528 -0.9895
11819SOL    HW236700   4.007   2.265   7.615 -1.2329 -2.0278 -0.8247
11820SOL     OW36701   6.650   6.558   7.867 -0.2811 -0.3692  0.0934
11820SOL    HW136702   6.590   6.571   7.940  1.8734  1.7586  1.5678
11820SOL    HW236703   6.622   6.621   7.800 -0.5714 -0.4000  0.1859
11821SOL     OW36704   0.736   5.037   5.112  0.7587  0.5886  0.0386
11821SOL    HW136705   0.696   4.951   5.120  0.9743  0.2856 -1.9428
11821SOL    HW236706   0.781   5.050   5.195 -2.1969  0.3192  1.7358
11822SOL     OW36707   2.699   1.306   6.640  0.4769  0.3802 -0.1523
11822SOL    HW136708   2.790   1.327   6.661  0.7852 -0.4020 -0.6986
11822SOL    HW236709   2.676   1.365   6.569  0.5617  0.5602 -0.0305
11823SOL     OW36710   1.743   1.241   2.253  0.2203 -0.2492  0.6398
11823SOL    HW136711   1.724   1.147   2.255  0.2010 -0.2599 -0.0977
11823SOL    HW236712   1.838   1.247   2.242 -0.0819 -0.1970 -2.3982
11824SOL     OW36713   7.768   3.066   4.326  0.0506  0.0727  0.3490
11824SOL    HW136714   7.691   3.032   4.372  0.1138 -0.2615  0.2061
11824SOL    HW236715   7.840   3.054   4.387 -0.1643  1.2345  0.8502
11825SOL     OW36716   6.398   0.283   4.691  0.0151 -0.0429  0.7553
11825SOL    HW136717   6.484   0.305   4.654  0.4787 -0.0462  1.7859
11825SOL    HW236718   6.345   0.257   4.617  0.0834  2.5408 -0.2718
11826SOL     OW36719   5.688   2.302   0.615 -0.6264 -0.1749  0.1053
11826SOL    HW136720   5.779   2.302   0.586 -0.9740 -1.6171 -0.9741
11826SOL    HW236721   5.694   2.300   0.711  0.4753 -0.0520  0.0456
11827SOL     OW36722   5.264   6.645   5.811 -0.0032  0.2783  0.5835
11827SOL    HW136723   5.226   6.647   5.898 -1.0958  2.9997  0.0879
11827SOL    HW236724   5.233   6.563   5.773 -2.3537  0.7209  1.5221
11828SOL     OW36725   2.929   6.426   2.683 -0.2201  0.3284 -0.0967
11828SOL    HW136726   3.010   6.472   2.659  0.1588 -1.5271 -2.4496
11828SOL    HW236727   2.959   6.342   2.718 -1.0125  0.9985  2.2952
11829SOL     OW36728   3.485   0.857   5.297  0.3590  0.6544  0.9455
11829SOL    HW136729   3.501   0.796   5.369  1.1071  2.8214  2.6795
11829SOL    HW236730   3.390   0.866   5.293  0.0376 -2.7966 -1.2570
11830SOL     OW36731   3.825   2.905   2.442  0.2040  0.2712 -0.0115
11830SOL    HW136732   3.900   2.858   2.403  0.1841 -0.0729  0.3580
11830SOL    HW236733   3.866   2.971   2.498  0.2357  1.1269 -1.0286
11831SOL     OW36734   7.808   5.283   0.199  0.1664 -0.2864 -0.3846
11831SOL    HW136735   7.886   5.337   0.195 -2.2477  3.2991 -2.2436
11831SOL    HW236736   7.767   5.306   0.283 -1.3713  1.6083 -1.6191
11832SOL     OW36737   4.730   5.481   2.277  0.1683  0.1153  0.1283
11832SOL    HW136738   4.816   5.476   2.235  0.9643  1.1665  1.6089
11832SOL    HW236739   4.692   5.394   2.265  1.0223 -0.0593 -1.3911
11833SOL     OW36740   8.158   0.082   3.958  0.5453  0.0437  0.1615
11833SOL    HW136741   8.207   0.032   3.893  1.5732  1.2295  0.0103
11833SOL    HW236742   8.221   0.101   4.027  0.0414  0.7227  0.4425
11834SOL     OW36743   7.653   7.444   4.675 -0.1845 -0.2809  0.3625
11834SOL    HW136744   7.731   7.393   4.651  0.2413 -0.7836  2.5881
11834SOL    HW236745   7.660   7.452   4.771 -2.5829  0.1411  0.5173
11835SOL     OW36746   1.213   7.097   4.170  0.1873  0.0360 -0.2837
11835SOL    HW136747   1.261   7.047   4.104 -1.9872 -1.3698 -0.8587
11835SOL    HW236748   1.129   7.116   4.129 -0.5974  0.5087  1.5075
11836SOL     OW36749   5.501   4.974   3.471  0.2630  0.0162  0.4271
11836SOL    HW136750   5.426   4.990   3.530 -0.5729 -0.6616 -0.4315
11836SOL    HW236751   5.546   4.899   3.509 -1.6982 -2.0027 -1.1015
11837SOL     OW36752   3.697   1.480   4.786  0.2394  0.6001  0.1906
11837SOL    HW136753   3.738   1.399   4.754  0.0241  0.6414 -0.1929
11837SOL    HW236754   3.604   1.458   4.795  0.4560  0.2823  1.7871
11838SOL     OW36755   6.622   7.274   2.233 -0.4154 -0.1981 -0.0293
11838SOL    HW136756   6.691   7.253   2.170 -0.1483  2.4731 -0.6870
11838SOL    HW236757   6.542   7.237   2.196  0.0222 -0.0402 -1.1386
11839SOL     OW36758   3.126   4.118   3.548  0.0010  0.0526  0.1017
11839SOL    HW136759   3.129   4.097   3.454 -0.2533 -1.4922  0.4129
11839SOL    HW236760   3.104   4.034   3.589  1.3961  0.4257  1.6419
11840SOL     OW36761   7.983   1.343   7.467 -0.3146  0.2513 -0.1909
11840SOL    HW136762   8.068   1.304   7.488 -0.1749  0.4597 -0.3659
11840SOL    HW236763   7.981   1.346   7.371 -0.5270  0.2312 -0.1882
11841SOL     OW36764   5.816   0.971   1.934 -0.1868  0.0341  0.3014
11841SOL    HW136765   5.839   0.880   1.911 -0.1727  0.6718 -2.4433
11841SOL    HW236766   5.741   0.991   1.879 -0.3354  1.6226  1.0681
11842SOL     OW36767   7.448   8.249   1.014 -0.1334  0.1688  0.2406
11842SOL    HW136768   7.539   8.239   1.043  0.0343 -0.7344 -0.5806
11842SOL    HW236769   7.400   8.181   1.060 -0.4633  0.8735  0.9464
11843SOL     OW36770   4.602   1.341   3.806  0.3414  0.0222 -0.1990
11843SOL    HW136771   4.641   1.371   3.724 -0.3969  1.7888  0.0782
11843SOL    HW236772   4.536   1.277   3.780  1.5321 -0.9707 -0.8382
11844SOL     OW36773   2.686   2.714   6.756  0.2056  0.4733  0.4450
11844SOL    HW136774   2.646   2.627   6.760 -0.9009  0.9866  0.6720
11844SOL    HW236775   2.613   2.775   6.767  0.9342  1.4401  0.0074
11845SOL     OW36776   0.367   0.042   5.320 -0.1974  0.2027  0.3488
11845SOL    HW136777   0.317   0.114   5.281  0.8570  0.2084 -1.0317
11845SOL    HW236778   0.355  -0.031   5.258 -0.7101 -0.6136  1.3983
11846SOL     OW36779   0.305   4.486   4.349 -0.6877  0.0066 -0.0873
11846SOL    HW136780   0.365   4.433   4.297 -0.4612 -0.9268  1.0937
11846SOL    HW236781   0.218   4.464   4.316 -0.4949  0.0400 -0.6210
11847SOL     OW36782   4.176   6.016   3.199 -0.3195 -0.2621 -0.3087
11847SOL    HW136783   4.107   5.967   3.243 -0.9904  0.0512 -1.0103
11847SOL    HW236784   4.231   5.948   3.159  0.1747 -0.5393  0.8161
11848SOL     OW36785   1.705   1.882   2.500  0.3035 -0.2008 -0.1130
11848SOL    HW136786   1.769   1.899   2.430  1.1876 -0.4142  0.6418
11848SOL    HW236787   1.753   1.830   2.564 -0.7480 -0.6976  0.2787
11849SOL     OW36788   0.190   6.826   7.486  0.1266 -0.1941 -0.0435
11849SOL    HW136789   0.259   6.762   7.506 -1.3396 -2.2706 -1.5070
11849SOL    HW236790   0.116   6.799   7.540 -0.2805  0.7353 -0.1264
11850SOL     OW36791   5.762   2.762   4.353  0.1711 -0.0268 -0.2399
11850SOL    HW136792   5.799   2.817   4.423  2.0371 -1.0992 -0.3428
11850SOL    HW236793   5.733   2.824   4.286 -0.8480  0.9719  1.1099
11851SOL     OW36794   3.862   4.109   6.835  0.1300 -0.3131 -0.0462
11851SOL    HW136795   3.894   4.197   6.855 -2.0744  0.6549 -0.7011
11851SOL    HW236796   3.858   4.105   6.740 -1.2897 -0.5484  0.0053
11852SOL     OW36797   6.912   5.827   1.829  0.6155  0.2242 -0.3862
11852SOL    HW136798   6.956   5.752   1.869  2.3022  0.1628 -2.2762
11852SOL    HW236799   6.952   5.903   1.871 -0.2245  0.0959  0.6552
11853SOL     OW36800   1.743   5.281   6.861  0.4543  0.2189 -0.3119
11853SOL    HW136801   1.669   5.315   6.911 -0.1116  0.6484 -1.4096
11853SOL    HW236802   1.715   5.288   6.770  1.4868 -0.4920 -0.6932
11854SOL     OW36803   5.381   0.946   2.492 -0.2270  0.3884 -0.3844
11854SOL    HW136804   5.336   0.968   2.573 -0.2617  0.0833 -0.3187
11854SOL    HW236805   5.312   0.915   2.433 -0.3360  1.5716 -0.8732
11855SOL     OW36806   0.870   7.121   0.929 -0.4183  0.0506  0.2755
11855SOL    HW136807   0.775   7.131   0.941 -0.1933  0.5067  1.7674
11855SOL    HW236808   0.906   7.131   1.017  0.9236 -1.3135 -0.1049
11856SOL     OW36809   1.073   1.293   0.212 -0.3833  0.2343  0.3652
11856SOL    HW136810   1.123   1.371   0.190  0.6812 -0.4623  0.3092
11856SOL    HW236811   0.986   1.326   0.236 -0.8760  1.1999 -2.5963
11857SOL     OW36812   1.963   4.716   8.153 -0.2462 -0.1322  0.1404
11857SOL    HW136813   1.962   4.739   8.060 -0.9655  1.1848  0.4568
11857SOL    HW236814   2.056   4.704   8.174  0.1426  2.1179 -0.1608
11858SOL     OW36815   5.971   3.709   3.038  0.5209 -0.0475 -0.0077
11858SOL    HW136816   6.017   3.746   3.113  1.1986  0.4681 -0.6614
11858SOL    HW236817   6.034   3.647   3.000  0.6069  0.5159 -0.7929
11859SOL     OW36818   3.198   4.824   5.258 -0.3240  0.2319 -0.4085
11859SOL    HW136819   3.205   4.850   5.350 -1.3557 -0.1817 -0.1982
11859SOL    HW236820   3.231   4.899   5.209 -0.5649  0.7935  0.2797
11860SOL     OW36821   6.483   6.050   0.784  0.1451 -0.7780 -0.2260
11860SOL    HW136822   6.437   6.004   0.714  0.0424  2.1417 -2.1473
11860SOL    HW236823   6.569   6.008   0.787  0.0647 -1.1178 -1.9486
11861SOL     OW36824   0.917   7.752   8.039  0.1274  0.2633 -0.0630
11861SOL    HW136825   0.899   7.658   8.041  0.9019  0.0160 -2.4086
11861SOL    HW236826   1.010   7.759   8.060 -0.4647  0.7462  2.5729
11862SOL     OW36827   1.332   3.499   3.666  0.2135 -0.1755  0.1079
11862SOL    HW136828   1.362   3.409   3.680 -0.5032 -0.2846  0.9943
11862SOL    HW236829   1.398   3.537   3.608  0.1154 -1.4988 -0.9121
11863SOL     OW36830   3.145   5.008   4.659 -0.6056 -0.1387  0.3887
11863SOL    HW136831   3.155   4.956   4.579 -0.2179 -1.9459  1.5853
11863SOL    HW236832   3.052   5.000   4.682 -0.4547 -0.6517  0.8136
11864SOL     OW36833   6.930   7.981   7.446 -0.3345  0.4786  1.1584
11864SOL    HW136834   6.889   7.919   7.507 -1.9806  0.9761  0.6005
11864SOL    HW236835   7.016   7.944   7.429 -0.9833 -1.2517  1.4659
11865SOL     OW36836   8.146   5.042   5.203 -0.3459  0.5962  0.5034
11865SOL    HW136837   8.171   4.979   5.270  0.3251  1.2554  0.8765
11865SOL    HW236838   8.200   5.119   5.220  1.4774 -0.0303 -2.1946
11866SOL     OW36839   3.853   2.190   7.316 -0.2890  0.0023 -0.0804
11866SOL    HW136840   3.887   2.101   7.312 -0.5816 -0.2361  2.1703
11866SOL    HW236841   3.758   2.178   7.319 -0.4209  0.4888 -1.7596
11867SOL     OW36842   0.760   0.343   2.565 -0.1615  0.5130 -0.1475
11867SOL    HW136843   0.789   0.380   2.482  1.2702 -0.0428  0.0976
11867SOL    HW236844   0.738   0.252   2.544 -3.3826  1.3431 -0.6865
11868SOL     OW36845   4.240   0.051   2.071 -0.3098  0.4139 -0.2551
11868SOL    HW136846   4.247   0.120   2.005  0.6623 -0.2429 -0.8513
11868SOL    HW236847   4.289   0.084   2.146  1.3611 -0.1880 -1.0402
11869SOL     OW36848   7.415   4.770   5.701  0.3302  0.0264 -0.1373
11869SOL    HW136849   7.506   4.786   5.677  0.1991 -1.6771 -1.8835
11869SOL    HW236850   7.406   4.675   5.699 -1.9057  0.2381 -1.6017
11870SOL     OW36851   6.044   6.774   1.801 -0.0990 -0.1557 -0.0894
11870SOL    HW136852   5.977   6.712   1.830 -0.2471  0.2932  0.5469
11870SOL    HW236853   6.045   6.842   1.869 -1.4226  1.6588 -1.8321
11871SOL     OW36854   4.269   0.317   6.247 -0.1769 -0.4619 -0.1589
11871SOL    HW136855   4.333   0.247   6.259  0.0089 -0.0411  1.4210
11871SOL    HW236856   4.312   0.396   6.280 -1.1962 -0.0233  0.1661
11872SOL     OW36857   2.845   4.159   4.677  0.0072 -0.6052 -0.0646
11872SOL    HW136858   2.814   4.073   4.649  0.9794 -0.8411 -0.4674
11872SOL    HW236859   2.935   4.143   4.706  0.5690  0.4826 -1.1945
11873SOL     OW36860   3.754   3.877   6.521  0.9096  0.3789 -0.5790
11873SOL    HW136861   3.690   3.947   6.509  0.5792  0.0631 -0.6723
11873SOL    HW236862   3.758   3.834   6.436  1.9506  0.9838 -0.8510
11874SOL     OW36863   3.409   5.930   2.728  0.5765 -0.0742 -0.2321
11874SOL    HW136864   3.406   6.025   2.743 -1.8342 -0.1216 -0.2625
11874SOL    HW236865   3.498   5.914   2.696  1.0470  2.1581 -0.1374
11875SOL     OW36866   4.038   0.502   8.003  0.3802 -0.1374  0.5947
11875SOL    HW136867   3.965   0.535   7.951  0.8713 -0.1950 -0.1356
11875SOL    HW236868   4.013   0.412   8.026  0.0097  0.0054  0.7570
11876SOL     OW36869   1.850   1.035   0.073  0.1719  0.2704  0.4713
11876SOL    HW136870   1.867   1.123   0.040 -0.0590  0.2591  0.3184
11876SOL    HW236871   1.879   0.977   0.003  0.4133  0.2244  0.6125
11877SOL     OW36872   4.995   6.215   4.965  1.6148  0.2451  0.2916
11877SOL    HW136873   5.007   6.309   4.951  2.3534  0.4441  2.1646
11877SOL    HW236874   5.001   6.204   5.059 -1.7208 -1.2290  0.4225
11878SOL     OW36875   7.270   4.330   2.660 -0.2135 -0.4536 -0.2845
11878SOL    HW136876   7.305   4.329   2.749 -0.5980 -1.8814 -0.1352
11878SOL    HW236877   7.201   4.397   2.662 -2.5026 -2.7695  1.4100
11879SOL     OW36878   2.089   3.492   1.775 -0.0551  0.2844 -0.5189
11879SOL    HW136879   2.147   3.442   1.718  0.5171 -0.5809  0.8031
11879SOL    HW236880   2.143   3.562   1.810 -0.4711  0.9628 -1.2333
11880SOL     OW36881   5.971   7.017   1.980 -0.0440  0.1503 -0.2684
11880SOL    HW136882   6.024   7.085   2.022  0.5588 -0.9261  0.7340
11880SOL    HW236883   5.965   7.046   1.889  1.0163  1.0558 -0.0772
11881SOL     OW36884   5.620   7.869   2.220 -0.1172  0.2578 -0.6120
11881SOL    HW136885   5.644   7.914   2.139 -1.8299  1.4518 -0.4929
11881SOL    HW236886   5.660   7.922   2.289  0.6821 -0.3116 -0.6406
11882SOL     OW36887   7.199   1.993   7.816 -0.5814 -0.0783 -0.4380
11882SOL    HW136888   7.137   2.056   7.780 -0.2468 -0.0034 -0.9014
11882SOL    HW236889   7.251   1.965   7.740 -2.6179 -3.0779 -0.7874
11883SOL     OW36890   5.310   1.856   6.385  0.6031 -0.7321 -0.0774
11883SOL    HW136891   5.297   1.861   6.480  1.1729 -1.0000  0.0211
11883SOL    HW236892   5.305   1.763   6.365 -0.4276 -0.5990 -0.4514
11884SOL     OW36893   6.780   1.148   5.014 -0.1077  0.3371  0.0255
11884SOL    HW136894   6.811   1.190   4.934  1.2092  1.4100  1.0826
11884SOL    HW236895   6.685   1.151   5.006  0.0005  0.6878 -1.3708
11885SOL     OW36896   4.145   5.305   4.029 -0.3563  0.1241 -0.5651
11885SOL    HW136897   4.224   5.308   3.975 -0.1450 -1.6033 -0.3700
11885SOL    HW236898   4.142   5.216   4.063 -1.1217  0.8439  1.3407
11886SOL     OW36899   6.364   3.504   7.606  0.1059  0.4736  0.1976
11886SOL    HW136900   6.330   3.490   7.517  0.7848 -0.8399  0.1427
11886SOL    HW236901   6.449   3.547   7.593  0.1807  0.3315  0.2208
11887SOL     OW36902   3.727   7.478   5.659 -0.1930 -0.1407 -0.4085
11887SOL    HW136903   3.752   7.386   5.649  0.1649  0.1410 -2.3459
11887SOL    HW236904   3.651   7.488   5.602 -1.1864  0.4086  0.9817
11888SOL     OW36905   0.889   5.090   0.703  0.2649 -0.0587  0.4570
11888SOL    HW136906   0.800   5.101   0.737 -0.3329  0.3049 -1.1589
11888SOL    HW236907   0.907   4.996   0.712 -1.9562 -0.9034 -3.1032
11889SOL     OW36908   0.111   5.397   7.923 -0.3767  0.2139  0.3663
11889SOL    HW136909   0.091   5.378   7.831 -0.8223  2.1020  0.0600
11889SOL    HW236910   0.063   5.331   7.972 -0.8126 -0.2973 -0.7300
11890SOL     OW36911   0.897   1.174   6.468 -0.1450 -0.1056 -0.7969
11890SOL    HW136912   0.912   1.226   6.546 -1.0154 -1.1095  0.0620
11890SOL    HW236913   0.804   1.152   6.472 -0.0613 -0.6673 -1.7982
11891SOL     OW36914   5.068   0.895   7.116  0.6236  0.1434  0.1206
11891SOL    HW136915   5.073   0.819   7.058 -1.9407  0.7194 -0.9072
11891SOL    HW236916   5.022   0.863   7.193  2.3731 -0.1381  1.0676
11892SOL     OW36917   5.135   6.995   2.377 -0.6305 -0.2060  0.8886
11892SOL    HW136918   5.061   7.038   2.420  0.1575  1.8361  0.2525
11892SOL    HW236919   5.178   6.946   2.447 -1.8465 -0.3849  1.5207
11893SOL     OW36920   7.174   2.358   2.020 -0.9017 -0.5174  0.2041
11893SOL    HW136921   7.117   2.300   2.070 -1.3819  0.2792  0.5952
11893SOL    HW236922   7.122   2.437   2.008 -0.5204 -0.4319 -0.9367
11894SOL     OW36923   6.411   1.265   1.497 -0.5840 -0.5240 -0.4989
11894SOL    HW136924   6.489   1.211   1.511 -0.4006 -0.0127  0.4642
11894SOL    HW236925   6.361   1.257   1.579 -1.2237 -0.3213 -0.8625
11895SOL     OW36926   0.342   2.619   8.238  0.3902  0.1636  0.5821
11895SOL    HW136927   0.359   2.647   8.328  1.8532 -1.1077  0.7260
11895SOL    HW236928   0.428   2.620   8.197  0.0285 -1.2869 -0.2136
11896SOL     OW36929   1.583   7.009   6.945 -0.6555  0.0379  0.0031
11896SOL    HW136930   1.668   6.991   6.984 -0.7263  1.3400  0.7757
11896SOL    HW236931   1.595   6.990   6.852  0.8454  1.4280 -0.1034
11897SOL     OW36932   8.099   1.480   5.834  0.1369  0.5353 -0.3685
11897SOL    HW136933   8.012   1.440   5.834  0.8741 -1.1444  0.9628
11897SOL    HW236934   8.128   1.476   5.743 -1.1766  1.1405 -0.8219
11898SOL     OW36935   8.114   4.818   7.809 -0.2424  0.3528 -0.5265
11898SOL    HW136936   8.166   4.833   7.731  0.3720 -1.8624 -0.5679
11898SOL    HW236937   8.036   4.872   7.797  1.0686  2.0920 -1.4091
11899SOL     OW36938   8.284   2.258   0.568  0.3233  0.0848 -0.0218
11899SOL    HW136939   8.238   2.315   0.630  0.6318 -1.6682  1.8806
11899SOL    HW236940   8.311   2.316   0.498 -2.5207  1.6395  0.0878
11900SOL     OW36941   3.118   8.210   5.040 -0.3680 -0.0699  0.5484
11900SOL    HW136942   3.149   8.296   5.068  0.8404 -0.6865  1.1165
11900SOL    HW236943   3.060   8.229   4.966 -1.4249  1.3526  1.7055
11901SOL     OW36944   1.027   0.878   7.739 -0.3550 -0.1314 -0.4534
11901SOL    HW136945   1.080   0.812   7.693 -1.6195 -0.6979 -1.1098
11901SOL    HW236946   1.022   0.845   7.829 -0.1700 -0.4340 -0.5505
11902SOL     OW36947   2.603   2.407   0.926 -0.0937  0.1875 -0.2869
11902SOL    HW136948   2.660   2.396   0.849  0.3989 -0.7328  0.2064
11902SOL    HW236949   2.518   2.375   0.898 -0.0183  0.2342 -0.5742
11903SOL     OW36950   1.590   2.374   0.640  0.1063 -0.4141  0.1007
11903SOL    HW136951   1.566   2.382   0.732 -0.6812 -0.7888 -0.0640
11903SOL    HW236952   1.677   2.413   0.634 -0.4362  0.9372  0.7318
11904SOL     OW36953   0.595   0.101   2.212 -0.5057 -0.1929  0.5625
11904SOL    HW136954   0.563   0.036   2.150 -1.3396  0.2554  0.5183
11904SOL    HW236955   0.587   0.059   2.297 -1.2558 -0.0711  0.5561
11905SOL     OW36956   0.555   2.085   7.087  0.4112  0.0839 -0.4316
11905SOL    HW136957   0.470   2.125   7.102  0.4535  0.1832 -0.4536
11905SOL    HW236958   0.618   2.155   7.105  0.5455 -0.3383  0.8448
11906SOL     OW36959   3.836   3.589   5.555 -0.4097 -0.8417 -0.3445
11906SOL    HW136960   3.741   3.591   5.568 -0.1989 -1.5370  1.4549
11906SOL    HW236961   3.850   3.638   5.474 -2.3590 -1.3208 -1.0125
11907SOL     OW36962   5.759   4.319   4.099  0.0663  0.1987 -0.2154
11907SOL    HW136963   5.772   4.278   4.013 -0.4184  0.1098 -0.2491
11907SOL    HW236964   5.831   4.381   4.107  1.0782 -0.9781  0.0216
11908SOL     OW36965   7.895   7.252   4.108 -0.3855 -0.0787  0.7958
11908SOL    HW136966   7.940   7.327   4.147 -1.5298  0.7414  0.5639
11908SOL    HW236967   7.811   7.247   4.155 -1.1357 -0.0206 -0.4922
11909SOL     OW36968   7.236   2.869   0.854 -0.0618  0.3932 -0.1077
11909SOL    HW136969   7.314   2.903   0.897 -0.8090  2.0754 -0.0467
11909SOL    HW236970   7.253   2.879   0.760 -0.1681  0.6985 -0.0957
11910SOL     OW36971   1.430   5.685   0.140  0.1387  0.2824  0.7032
11910SOL    HW136972   1.374   5.701   0.065  0.0444  2.2660  1.1663
11910SOL    HW236973   1.447   5.591   0.138 -1.1045  0.0740 -0.9053
11911SOL     OW36974   2.642   6.384   7.811  0.1517  0.0070  0.0727
11911SOL    HW136975   2.645   6.314   7.745 -0.5901  1.1603 -1.1901
11911SOL    HW236976   2.733   6.411   7.821  0.0379  1.2680 -2.0561
11912SOL     OW36977   7.067   1.049   4.831  0.0357  0.7171 -0.0661
11912SOL    HW136978   7.153   1.054   4.790  0.3431 -0.2730  0.4244
11912SOL    HW236979   7.080   1.083   4.920 -0.3923  1.8633 -0.4339
11913SOL     OW36980   0.676   6.399   0.060  0.1908  0.2438 -0.4423
11913SOL    HW136981   0.591   6.401   0.103  0.4333  2.2660 -0.0017
11913SOL    HW236982   0.658   6.428  -0.030  0.5254  1.4546 -0.1236
11914SOL     OW36983   2.962   4.168   2.967  0.0819 -0.5818 -0.4157
11914SOL    HW136984   3.047   4.161   2.924 -0.7668 -2.0675 -1.9406
11914SOL    HW236985   2.979   4.147   3.058  1.9127  2.5606  0.0414
11915SOL     OW36986   5.008   2.342   4.066 -0.1020  0.5405  0.0132
11915SOL    HW136987   4.986   2.364   3.976  0.6007 -1.9473 -0.8082
11915SOL    HW236988   4.975   2.253   4.078  0.7898  0.4315  1.8830
11916SOL     OW36989   7.877   0.380   6.267 -0.2245 -0.0959  0.0669
11916SOL    HW136990   7.869   0.428   6.350 -0.9845 -0.9990  0.5203
11916SOL    HW236991   7.813   0.309   6.274  1.5358 -1.7373 -0.2283
11917SOL     OW36992   6.253   3.506   7.325 -0.3227  0.1471 -0.2014
11917SOL    HW136993   6.228   3.501   7.233 -1.1793  1.0298 -0.0280
11917SOL    HW236994   6.349   3.511   7.324 -0.3770  1.2500 -1.0979
11918SOL     OW36995   5.521   5.627   7.325  0.2127  0.4048 -0.6456
11918SOL    HW136996   5.590   5.668   7.273  0.5165  1.0017  0.2228
11918SOL    HW236997   5.555   5.539   7.342  0.4561  0.4671 -0.7934
11919SOL     OW36998   6.560   1.042   4.720 -0.5164 -0.1011 -0.1846
11919SOL    HW136999   6.552   1.131   4.687 -0.5662 -0.3278 -0.7919
11919SOL    HW237000   6.654   1.030   4.734 -0.4709 -0.0885 -0.4834
11920SOL     OW37001   2.171   1.029   4.192  0.2589 -1.2212 -0.0070
11920SOL    HW137002   2.261   1.037   4.225 -0.1242 -0.0661  0.7724
11920SOL    HW237003   2.182   1.002   4.100  1.4537  0.5463 -0.4172
11921SOL     OW37004   7.346   5.896   0.449 -0.7173  0.2863 -0.1001
11921SOL    HW137005   7.350   5.847   0.531  2.0277 -0.7242 -0.7889
11921SOL    HW237006   7.384   5.982   0.471 -2.0952  0.8236  0.2167
11922SOL     OW37007   8.081   4.241   6.583  0.3801 -0.3327  0.3979
11922SOL    HW137008   7.996   4.272   6.551 -0.6125 -0.1528  3.1419
11922SOL    HW237009   8.139   4.317   6.575 -0.0863 -0.0279 -0.0956
11923SOL     OW37010   6.613   2.776   5.078 -0.0469  0.6878  0.1959
11923SOL    HW137011   6.697   2.745   5.045 -0.8217 -0.9342 -0.2852
11923SOL    HW237012   6.608   2.742   5.167 -1.2821 -1.3561 -0.6296
11924SOL     OW37013   3.213   4.650   4.828 -0.3334 -0.3926  0.2093
11924SOL    HW137014   3.246   4.736   4.802  1.7444 -2.1312 -3.1855
11924SOL    HW237015   3.227   4.647   4.923  0.3127  2.6535  0.2654
11925SOL     OW37016   4.479   7.064   6.937  0.2908 -0.5867  0.4443
11925SOL    HW137017   4.564   7.022   6.948  0.3291 -1.3361 -2.2681
11925SOL    HW237018   4.468   7.071   6.842 -1.5837  1.7558  0.7754
11926SOL     OW37019   2.694   2.395   8.275  0.2645  0.0809  0.2407
11926SOL    HW137020   2.688   2.488   8.252  0.7299  0.2256  0.7095
11926SOL    HW237021   2.651   2.350   8.202  0.4012  0.6388 -0.1899
11927SOL     OW37022   8.081   2.579   2.029  0.0605  0.0627 -0.0836
11927SOL    HW137023   7.990   2.557   2.009  0.4204 -1.0267 -0.6203
11927SOL    HW237024   8.120   2.598   1.943  0.6372 -0.6991  0.0026
11928SOL     OW37025   5.668   0.220   7.237 -0.2926 -0.2561  0.3592
11928SOL    HW137026   5.713   0.301   7.212  1.6061 -1.2839  0.4151
11928SOL    HW237027   5.720   0.150   7.197 -2.5934 -1.4229 -0.7133
11929SOL     OW37028   2.717   1.723   4.696  0.0524 -0.0041  0.1800
11929SOL    HW137029   2.641   1.667   4.709  1.1776 -1.4419  0.6375
11929SOL    HW237030   2.692   1.780   4.623 -1.2947 -0.7552  0.0341
11930SOL     OW37031   5.674   3.298   4.324  0.1235 -0.5194 -0.1073
11930SOL    HW137032   5.651   3.389   4.307 -2.1124 -0.5958  2.2252
11930SOL    HW237033   5.758   3.302   4.368  1.0142  0.2637 -1.8325
11931SOL     OW37034   4.410   5.451   4.104  0.3571  0.5333  0.1398
11931SOL    HW137035   4.326   5.431   4.062  0.0049 -0.1954  1.1732
11931SOL    HW237036   4.475   5.432   4.037 -0.2661  0.5987 -0.4987
11932SOL     OW37037   5.095   1.701   1.133 -0.6266  0.0447 -0.2226
11932SOL    HW137038   5.054   1.765   1.074  1.6887  0.7968 -1.0915
11932SOL    HW237039   5.187   1.728   1.137  0.1179 -2.4423  0.4831
11933SOL     OW37040   1.277   7.872   0.054 -0.3569  0.0195  0.1992
11933SOL    HW137041   1.213   7.938   0.079  0.1652  0.2905  0.8472
11933SOL    HW237042   1.361   7.906   0.086  0.1826 -0.0930 -1.0723
11934SOL     OW37043   4.198   2.717   4.781  0.2046  0.1871  0.0762
11934SOL    HW137044   4.190   2.804   4.819  1.0147  0.4107 -0.2567
11934SOL    HW237045   4.109   2.682   4.783  0.0179  0.7060  0.9451
11935SOL     OW37046   3.778   4.749   4.355 -0.3125  0.6400 -0.6314
11935SOL    HW137047   3.861   4.706   4.336 -0.1394  1.4207 -1.7665
11935SOL    HW237048   3.741   4.768   4.268 -3.0320 -2.2316 -0.1736
11936SOL     OW37049   4.497   3.178   5.810  0.5345  0.6937  0.1797
11936SOL    HW137050   4.532   3.124   5.881  2.6311  0.2643 -1.1487
11936SOL    HW237051   4.403   3.159   5.809  1.0611 -2.0078  0.5206
11937SOL     OW37052   3.608   6.352   0.196 -0.1730  0.4830  0.8257
11937SOL    HW137053   3.569   6.385   0.116 -1.6804  1.9196  2.1054
11937SOL    HW237054   3.583   6.417   0.263  1.0875 -0.6464  2.4328
11938SOL     OW37055   2.274   4.042   1.060  0.5236 -0.0078  0.4047
11938SOL    HW137056   2.307   4.128   1.034  0.7226 -0.4019 -0.6925
11938SOL    HW237057   2.179   4.052   1.060  0.4251 -0.5245 -2.4882
11939SOL     OW37058   2.021   0.719   0.434  0.3668 -0.3723 -0.1353
11939SOL    HW137059   1.960   0.662   0.482 -1.0138  0.9179 -0.3186
11939SOL    HW237060   1.972   0.800   0.421  1.1094 -0.3013 -2.7656
11940SOL     OW37061   3.094   5.847   7.036 -0.2969 -0.6104 -0.2206
11940SOL    HW137062   3.061   5.935   7.018 -0.3481 -0.4960  0.4421
11940SOL    HW237063   3.100   5.806   6.949 -1.6189 -0.4274 -0.4204
11941SOL     OW37064   4.804   5.924   0.589  0.1348 -0.0870 -0.0025
11941SOL    HW137065   4.772   6.012   0.568  0.3583  0.5584  2.2833
11941SOL    HW237066   4.816   5.925   0.684  1.6965 -2.0684 -0.1541
11942SOL     OW37067   0.346   6.606   4.893  0.1605 -0.6168  0.3333
11942SOL    HW137068   0.410   6.638   4.957 -0.7473  1.5402  0.1861
11942SOL    HW237069   0.279   6.563   4.946  0.9852 -1.5918  0.5937
11943SOL     OW37070   1.427   3.708   4.418  0.1330  0.0756 -0.0769
11943SOL    HW137071   1.369   3.757   4.477 -2.0162 -0.6251 -1.5318
11943SOL    HW237072   1.448   3.770   4.348  0.6123  0.1351  0.1231
11944SOL     OW37073   2.334   1.211   6.524  0.3128 -0.1222 -0.2290
11944SOL    HW137074   2.262   1.230   6.464  0.5220 -1.1808 -0.8344
11944SOL    HW237075   2.329   1.116   6.538  1.0461 -0.0685  0.4145
11945SOL     OW37076   2.722   8.272   4.090  0.1550 -0.0839  0.2157
11945SOL    HW137077   2.800   8.303   4.137 -0.3374  0.9927  0.3557
11945SOL    HW237078   2.654   8.335   4.113 -0.6363 -0.7396 -0.2911
11946SOL     OW37079   7.708   5.257   2.298  1.0506 -0.0834 -0.0021
11946SOL    HW137080   7.629   5.310   2.309  1.3251  0.0905  1.2640
11946SOL    HW237081   7.765   5.284   2.370  1.8322 -0.9783 -0.2702
11947SOL     OW37082   4.697   6.994   8.049  0.0365  0.3814 -0.2421
11947SOL    HW137083   4.659   7.073   8.086  0.8461 -0.3559  2.2619
11947SOL    HW237084   4.627   6.929   8.054  0.6609 -0.1783  1.6399
11948SOL     OW37085   6.194   6.099   6.024  0.0493 -0.0858 -0.0757
11948SOL    HW137086   6.267   6.087   5.963 -0.2119 -0.7647 -0.2639
11948SOL    HW237087   6.205   6.188   6.058  1.2481 -0.3653  0.2915
11949SOL     OW37088   5.907   3.232   6.436 -0.1275  0.0315  0.6538
11949SOL    HW137089   5.836   3.260   6.379  0.3760 -1.2296 -0.6334
11949SOL    HW237090   5.919   3.139   6.416  1.6305  0.1348  1.1071
11950SOL     OW37091   3.524   8.008   0.505  0.1315 -0.5672  0.8826
11950SOL    HW137092   3.572   8.080   0.546 -0.0926 -0.4720  0.9784
11950SOL    HW237093   3.462   8.051   0.446  0.5954 -0.7097  0.2854
11951SOL     OW37094   6.483   0.404   3.632  0.3100  0.2704  0.0285
11951SOL    HW137095   6.433   0.435   3.708 -0.3889  0.6293 -0.5684
11951SOL    HW237096   6.482   0.309   3.639  0.0065  0.2950  0.3208
11952SOL     OW37097   2.485   1.534   3.540 -0.0380 -0.1926 -0.0771
11952SOL    HW137098   2.491   1.629   3.542  0.8261 -0.1999 -1.5043
11952SOL    HW237099   2.405   1.515   3.492 -1.1912 -0.2014  1.7830
11953SOL     OW37100   3.826   5.246   6.483  0.0935 -0.2469  0.4202
11953SOL    HW137101   3.821   5.307   6.557 -1.5551 -0.9126  0.8793
11953SOL    HW237102   3.807   5.299   6.406  0.9174  0.2706  0.5727
11954SOL     OW37103   2.724   1.236   8.171  0.5650 -0.4962  0.2473
11954SOL    HW137104   2.740   1.194   8.086  2.4698  1.1681 -0.2472
11954SOL    HW237105   2.635   1.271   8.164  0.0998 -1.7618 -0.4479
11955SOL     OW37106   2.433   2.199   4.169  0.4382 -0.6432  0.0602
11955SOL    HW137107   2.435   2.295   4.175  1.4509 -0.5532 -1.3967
11955SOL    HW237108   2.467   2.180   4.081 -2.5535 -2.1953 -0.8730
11956SOL     OW37109   2.417   2.987   7.102 -0.5365  0.1278 -0.4461
11956SOL    HW137110   2.468   2.949   7.030  0.6905 -0.6098  0.7811
11956SOL    HW237111   2.339   3.023   7.060  0.0384 -0.5195 -2.1087
11957SOL     OW37112   6.572   8.295   7.202 -0.1876  0.0279  0.0110
11957SOL    HW137113   6.663   8.272   7.219 -0.1874 -0.1824 -0.2731
11957SOL    HW237114   6.564   8.295   7.107 -0.6428 -0.5687  0.0464
11958SOL     OW37115   5.813   0.832   8.060 -0.8218  0.0386 -0.5566
11958SOL    HW137116   5.816   0.840   7.964  2.5551  0.9819 -0.4430
11958SOL    HW237117   5.840   0.742   8.077 -1.5366 -0.1639 -0.4869
11959SOL     OW37118   3.835   5.777   7.658 -0.5939  0.1066  0.7990
11959SOL    HW137119   3.872   5.838   7.721  0.8827  1.5491 -1.3792
11959SOL    HW237120   3.884   5.696   7.672  0.5487  0.7703  0.7532
11960SOL     OW37121   4.271   6.359   4.305  0.2490  0.1159 -0.0244
11960SOL    HW137122   4.261   6.454   4.299  1.9083  0.1888 -1.8661
11960SOL    HW237123   4.212   6.333   4.376 -0.9950  2.3904 -0.2028
11961SOL     OW37124   7.884   5.822   7.638 -0.2390  0.0935  0.2654
11961SOL    HW137125   7.925   5.817   7.724 -0.7681 -1.7893  0.4428
11961SOL    HW237126   7.790   5.824   7.657 -0.3987 -1.5155 -0.2823
11962SOL     OW37127   4.402   5.228   4.840  0.3146  0.5959 -0.6915
11962SOL    HW137128   4.441   5.291   4.901  1.2990  0.0532 -0.7449
11962SOL    HW237129   4.434   5.142   4.871  1.4787  0.3756 -2.4196
11963SOL     OW37130   3.598   0.152   6.606 -0.0792 -0.3673 -0.2341
11963SOL    HW137131   3.651   0.188   6.536  1.3366  0.3178  1.1642
11963SOL    HW237132   3.522   0.210   6.611 -0.6152 -0.9258 -1.7601
11964SOL     OW37133   3.708   2.053   7.675  0.2964 -0.1843  0.6562
11964SOL    HW137134   3.708   2.146   7.651  1.2640  0.4361  2.9296
11964SOL    HW237135   3.797   2.024   7.657  0.4269 -0.2623  1.4172
11965SOL     OW37136   6.179   4.738   7.598  0.4029 -0.0686 -0.0391
11965SOL    HW137137   6.257   4.743   7.542 -0.0768  0.4166 -0.6760
11965SOL    HW237138   6.198   4.667   7.659  2.0312  1.1390  0.8784
11966SOL     OW37139   6.932   2.446   1.052  0.0325 -0.5798 -0.2286
11966SOL    HW137140   6.881   2.439   1.133 -0.0361  1.5471 -0.0457
11966SOL    HW237141   6.976   2.531   1.060  0.3537 -0.5448 -2.2425
11967SOL     OW37142   2.492   0.387   4.637 -0.6214 -0.0884  0.6853
11967SOL    HW137143   2.476   0.347   4.723  0.0038  0.1729  0.9291
11967SOL    HW237144   2.582   0.419   4.642 -0.2862 -0.8712 -0.4028
11968SOL     OW37145   1.352   3.757   1.372  0.0654  0.0629 -0.2511
11968SOL    HW137146   1.258   3.758   1.392  0.2755 -0.5894  0.8033
11968SOL    HW237147   1.364   3.679   1.319  0.3030 -0.8769  1.1517
11969SOL     OW37148   1.980   0.916   6.157 -0.1492 -0.4691 -0.1703
11969SOL    HW137149   2.005   0.869   6.078  1.5274 -1.6868  1.0467
11969SOL    HW237150   2.015   0.863   6.229 -0.6217  1.2117  1.3488
11970SOL     OW37151   0.087   7.661   0.382  0.1492 -1.0430  0.4651
11970SOL    HW137152   0.182   7.661   0.382  0.1594 -0.7416 -1.2615
11970SOL    HW237153   0.063   7.573   0.351 -0.1299 -0.8391  0.1021
11971SOL     OW37154   5.922   6.912   6.811 -0.0600  0.3176  0.7088
11971SOL    HW137155   5.892   7.001   6.794  0.8728  0.4193 -0.4395
11971SOL    HW237156   6.015   6.922   6.832  0.7243 -0.6395 -2.1167
11972SOL     OW37157   1.988   2.779   4.484  0.3742 -0.5232  0.2633
11972SOL    HW137158   1.921   2.726   4.527  0.6957 -0.2638  1.0944
11972SOL    HW237159   1.945   2.862   4.466  0.7137 -0.0542  1.5674
11973SOL     OW37160   5.172   6.469   3.902 -0.0263  0.4194 -1.0365
11973SOL    HW137161   5.267   6.469   3.915 -0.2857 -1.5932  1.2860
11973SOL    HW237162   5.152   6.381   3.869 -1.3149  0.0251  0.7170
11974SOL     OW37163   1.599   1.597   7.684 -0.4461  0.6118 -0.5642
11974SOL    HW137164   1.610   1.597   7.588 -1.6148 -1.4848 -0.7237
11974SOL    HW237165   1.599   1.504   7.708  0.5611  1.1421  1.5785
11975SOL     OW37166   3.102   2.664   0.120 -0.2138  0.0268 -0.5321
11975SOL    HW137167   3.069   2.670   0.030 -0.4929 -2.2280 -0.6164
11975SOL    HW237168   3.196   2.649   0.111 -0.1474  0.3848 -0.4358
11976SOL     OW37169   3.178   0.768   6.206 -0.0824  0.0230 -0.5353
11976SOL    HW137170   3.157   0.857   6.179 -1.5398 -0.1901 -0.1569
11976SOL    HW237171   3.234   0.779   6.283 -0.4263  0.6216 -0.3664
11977SOL     OW37172   0.521   0.361   6.079 -0.0679 -0.1476  0.4951
11977SOL    HW137173   0.550   0.437   6.029  0.6928 -1.0364 -0.4479
11977SOL    HW237174   0.568   0.367   6.162  0.9648 -0.2666 -0.0738
11978SOL     OW37175   8.199   5.970   4.983  0.6507 -0.4245 -0.5853
11978SOL    HW137176   8.142   6.027   4.932  1.1931  0.4498 -0.2450
11978SOL    HW237177   8.154   5.960   5.067  0.9068  0.1434 -0.3707
11979SOL     OW37178   7.084   3.987   3.420  0.5833  0.2259  0.0842
11979SOL    HW137179   7.096   4.081   3.415 -0.2578  0.2858 -1.2124
11979SOL    HW237180   7.107   3.955   3.333  0.1540 -0.6796  0.2912
11980SOL     OW37181   2.252   2.697   7.153  0.5226  0.1196  0.1778
11980SOL    HW137182   2.230   2.694   7.060 -0.2465  1.2547  0.3042
11980SOL    HW237183   2.225   2.785   7.181  0.5491 -0.2845  1.5211
11981SOL     OW37184   5.272   6.542   2.804  0.3503 -0.5219  0.0449
11981SOL    HW137185   5.178   6.528   2.813  0.1814  0.9517  0.7744
11981SOL    HW237186   5.295   6.597   2.879  1.5399  0.2092 -0.8355
11982SOL     OW37187   3.532   0.736   3.120  0.3963 -0.1644  0.4557
11982SOL    HW137188   3.566   0.650   3.145  1.2175 -0.7640 -2.4815
11982SOL    HW237189   3.594   0.798   3.156  1.4907 -0.9785  0.0072
11983SOL     OW37190   1.139   3.065   3.925  0.3381 -0.3931 -0.5322
11983SOL    HW137191   1.140   2.970   3.941  1.7414 -0.3414 -0.2936
11983SOL    HW237192   1.212   3.099   3.977 -0.8057  0.9655  0.2132
11984SOL     OW37193   6.707   3.333   4.380  0.8164 -0.5772 -0.5668
11984SOL    HW137194   6.769   3.277   4.333  0.8195 -1.4743  0.4981
11984SOL    HW237195   6.749   3.349   4.465 -0.1296 -0.6762 -0.0800
11985SOL     OW37196   3.551   7.761   0.606 -0.5782 -0.1138  0.0532
11985SOL    HW137197   3.557   7.851   0.574 -1.4298 -0.5929 -1.5105
11985SOL    HW237198   3.634   7.721   0.584 -0.5328  0.0359 -0.0446
11986SOL     OW37199   1.217   5.764   4.504  0.3112  0.2272  0.0249
11986SOL    HW137200   1.245   5.747   4.594 -0.2478 -2.6875 -0.3207
11986SOL    HW237201   1.122   5.759   4.506  0.3798 -2.0770 -1.1268
11987SOL     OW37202   3.609   7.291   8.093  0.1278  0.1517  0.8858
11987SOL    HW137203   3.601   7.248   8.008  0.1942 -0.3721  1.1442
11987SOL    HW237204   3.664   7.368   8.077 -0.0718  0.1957  0.4070
11988SOL     OW37205   2.150   6.866   8.280 -0.1306  0.3596  0.2258
11988SOL    HW137206   2.218   6.848   8.215  0.4653  2.8313  0.1071
11988SOL    HW237207   2.195   6.914   8.349 -0.9525 -1.4434  2.0761
11989SOL     OW37208   7.963   0.728   2.450  0.1417  0.5690  0.7729
11989SOL    HW137209   8.036   0.695   2.397  1.5906  1.6882  2.0150
11989SOL    HW237210   7.894   0.664   2.439  1.6218 -0.9538  0.2192
11990SOL     OW37211   2.625   4.840   6.775  0.2394  0.0182 -0.3995
11990SOL    HW137212   2.531   4.838   6.759  0.2732 -0.0370 -0.5963
11990SOL    HW237213   2.659   4.765   6.726  0.2429 -0.6389  0.6012
11991SOL     OW37214   2.315   7.245   2.800 -0.0155  0.1249 -0.5599
11991SOL    HW137215   2.378   7.183   2.837 -0.9602 -0.6583 -0.2533
11991SOL    HW237216   2.309   7.314   2.866 -0.3901 -0.4054 -0.0342
11992SOL     OW37217   3.422   5.697   6.603  0.2621  0.3534  0.8850
11992SOL    HW137218   3.513   5.672   6.618  0.2160  0.7014  1.7748
11992SOL    HW237219   3.375   5.614   6.598  0.3559  0.2105  2.2285
11993SOL     OW37220   1.110   1.758   6.021  0.3437 -0.1179 -0.0664
11993SOL    HW137221   1.053   1.749   6.097 -0.3815 -0.0554 -0.6003
11993SOL    HW237222   1.179   1.693   6.035  0.1074 -0.2382  0.5484
11994SOL     OW37223   2.223   7.709   7.161 -0.8768  0.5966  0.0747
11994SOL    HW137224   2.249   7.719   7.252 -1.4230 -1.6355  0.5043
11994SOL    HW237225   2.262   7.784   7.116  0.8232  0.7995  1.8410
11995SOL     OW37226   7.301   2.298   6.462  0.1065 -0.0437 -0.1071
11995SOL    HW137227   7.240   2.276   6.532 -0.3705  1.3672 -0.0801
11995SOL    HW237228   7.257   2.269   6.382 -0.6803  1.1180 -0.1039
11996SOL     OW37229   1.886   6.240   6.754  0.3823 -0.1658  0.3521
11996SOL    HW137230   1.877   6.150   6.785  0.3713 -0.0450  0.7023
11996SOL    HW237231   1.925   6.286   6.827 -3.1458  0.9700  1.6224
11997SOL     OW37232   2.601   0.313   5.308  0.3998  0.3606  0.2702
11997SOL    HW137233   2.664   0.369   5.264 -1.0569  0.7531 -1.3321
11997SOL    HW237234   2.516   0.340   5.275 -0.6194 -0.3621  2.1841
11998SOL     OW37235   2.566   1.673   0.181  0.1048 -0.3623  0.3782
11998SOL    HW137236   2.540   1.583   0.161 -2.6222  0.4183  0.2007
11998SOL    HW237237   2.580   1.674   0.275  2.6146 -1.5307  0.0648
11999SOL     OW37238   6.238   1.557   5.517 -0.1238 -0.1732  0.3270
11999SOL    HW137239   6.195   1.590   5.438 -1.9023  0.0891  1.3886
11999SOL    HW237240   6.275   1.473   5.490 -0.7555 -0.1095 -0.7841
12000SOL     OW37241   6.657   7.293   0.201 -0.3794 -0.2756 -0.0870
12000SOL    HW137242   6.590   7.235   0.163  0.8417 -0.7010 -1.6164
12000SOL    HW237243   6.683   7.350   0.129 -1.7984  2.4725  1.4679
12001SOL     OW37244   4.004   3.148   4.081 -0.5553  0.4338 -0.1353
12001SOL    HW137245   3.963   3.120   3.999  0.6855  0.1648 -0.6749
12001SOL    HW237246   4.098   3.136   4.066 -0.0976  3.2424  0.2220
12002SOL     OW37247   2.803   3.453   5.036  0.3912  0.4370  0.6677
12002SOL    HW137248   2.864   3.498   5.095  0.4652  0.4607  0.5756
12002SOL    HW237249   2.742   3.408   5.094 -0.0257  1.1235  0.7612
12003SOL     OW37250   8.014   5.673   4.978  0.1481  0.3769 -0.6771
12003SOL    HW137251   8.081   5.711   4.921  1.1429 -0.1281  0.1351
12003SOL    HW237252   8.063   5.636   5.051 -1.1638  1.6330  0.8753
12004SOL     OW37253   4.226   2.291   1.796 -0.5076  0.6869 -0.6937
12004SOL    HW137254   4.144   2.247   1.817  0.8023 -2.5183 -2.0202
12004SOL    HW237255   4.213   2.327   1.709 -0.7808  0.8758 -0.5743
12005SOL     OW37256   6.136   1.048   2.843 -0.0793  0.2450 -0.4262
12005SOL    HW137257   6.113   0.955   2.835 -4.0430  1.1485 -0.3567
12005SOL    HW237258   6.145   1.078   2.753 -1.6044  0.3911 -0.5507
12006SOL     OW37259   7.728   2.756   1.716 -0.0549 -0.5724 -0.1974
12006SOL    HW137260   7.697   2.741   1.627 -1.3818  2.8132 -0.3630
12006SOL    HW237261   7.664   2.712   1.772  0.5993 -2.4211 -0.8587
12007SOL     OW37262   2.245   0.936   3.122  0.1583 -0.1669  0.4872
12007SOL    HW137263   2.269   1.021   3.159  1.5560  0.4407 -1.7732
12007SOL    HW237264   2.149   0.938   3.119  0.1873  1.3957  0.2891
12008SOL     OW37265   4.594   6.071   8.255  0.4303  0.2550 -0.0667
12008SOL    HW137266   4.632   6.145   8.301 -2.3484  2.9862 -1.9826
12008SOL    HW237267   4.625   6.079   8.165  1.1240 -1.6835 -0.0365
12009SOL     OW37268   0.252   1.884   6.930 -0.0629 -0.5006  0.2749
12009SOL    HW137269   0.164   1.881   6.894 -0.1887  0.5116  0.4770
12009SOL    HW237270   0.248   1.951   6.998  1.2622  0.8537 -0.9197
12010SOL     OW37271   6.640   4.719   4.420  0.6803 -0.0177 -0.2488
12010SOL    HW137272   6.620   4.810   4.397  0.2132  0.0092  0.2669
12010SOL    HW237273   6.668   4.680   4.337  0.1631  0.4001 -0.6277
12011SOL     OW37274   2.440   2.014   5.817  0.4427  0.2457 -0.0036
12011SOL    HW137275   2.465   1.924   5.795  0.7022  0.4802 -0.7084
12011SOL    HW237276   2.410   2.051   5.733  0.1518  0.7516  0.3235
12012SOL     OW37277   5.298   1.963   0.081 -0.1406 -0.0580  0.6520
12012SOL    HW137278   5.253   2.042   0.053 -0.1021  0.4941  2.1167
12012SOL    HW237279   5.380   1.963   0.032  0.5016  1.5693  1.7019
12013SOL     OW37280   2.046   0.592   4.069  0.4722 -0.4447  0.3594
12013SOL    HW137281   2.123   0.566   4.019 -0.1414 -2.8860  0.6169
12013SOL    HW237282   2.068   0.573   4.160  0.4557  1.1317  0.7035
12014SOL     OW37283   6.785   4.052   1.408 -0.0391 -0.0167  0.5192
12014SOL    HW137284   6.796   4.135   1.361 -2.2371  0.1502  0.2740
12014SOL    HW237285   6.725   4.001   1.354  0.1450 -1.1844  1.4124
12015SOL     OW37286   0.499   3.287   5.609 -0.0353  0.6379 -0.0976
12015SOL    HW137287   0.512   3.247   5.695 -0.0339  1.5013  0.3072
12015SOL    HW237288   0.542   3.373   5.615  1.5837 -0.0357 -1.5652
12016SOL     OW37289   4.018   3.108   0.184 -0.3310  0.7299  0.0817
12016SOL    HW137290   4.032   3.134   0.275  1.9335  0.1286 -0.0695
12016SOL    HW237291   4.023   3.190   0.135 -0.3722  0.9034  0.3678
12017SOL     OW37292   4.752   0.308   7.661 -0.1328  0.0195  0.1801
12017SOL    HW137293   4.671   0.289   7.708  0.0581  0.2638  0.6105
12017SOL    HW237294   4.729   0.381   7.603 -0.1694  0.2191  0.4448
12018SOL     OW37295   2.125   6.510   1.294  0.7176 -0.0171  1.0596
12018SOL    HW137296   2.175   6.437   1.330 -0.9059 -1.6097  0.1710
12018SOL    HW237297   2.167   6.529   1.210  0.6700 -0.4406  0.9403
12019SOL     OW37298   4.971   7.462   6.780 -0.4168  0.0782  0.1853
12019SOL    HW137299   5.031   7.390   6.799 -0.7713 -0.4355 -0.6339
12019SOL    HW237300   4.904   7.457   6.848  0.4967  0.6909  1.1438
12020SOL     OW37301   5.445   1.244   3.422  0.4848  0.2236 -0.2469
12020SOL    HW137302   5.516   1.199   3.469 -0.3225 -1.1469 -0.3043
12020SOL    HW237303   5.468   1.337   3.426  1.6808 -0.1052  0.7382
12021SOL     OW37304   4.317   1.231   7.778 -0.3782 -0.4079  0.4211
12021SOL    HW137305   4.252   1.265   7.839 -1.4490 -1.1409 -0.2927
12021SOL    HW237306   4.299   1.137   7.774  2.2845 -1.0535  2.0802
12022SOL     OW37307   7.059   5.127   1.038  0.2459  0.3188 -0.0377
12022SOL    HW137308   7.040   5.056   1.099 -0.2683 -0.5061 -1.1397
12022SOL    HW237309   6.973   5.151   1.002  0.7304 -0.3888 -1.7279
12023SOL     OW37310   7.971   1.915   6.053  0.1550  0.6281 -1.0234
12023SOL    HW137311   7.911   1.935   6.125  0.9188  0.8500 -0.4395
12023SOL    HW237312   7.932   1.839   6.010  0.7446 -0.7917  0.8717
12024SOL     OW37313   1.275   0.369   0.321  0.0887  0.0295 -0.0071
12024SOL    HW137314   1.279   0.310   0.396 -0.7061 -2.0343 -1.5580
12024SOL    HW237315   1.361   0.362   0.280 -0.4781 -1.1955 -1.0210
12025SOL     OW37316   3.637   1.994   0.218 -0.3641 -0.3094  0.0815
12025SOL    HW137317   3.563   1.945   0.253 -1.4392 -0.1577 -1.8972
12025SOL    HW237318   3.705   1.987   0.285 -0.8633 -3.5861  0.3164
12026SOL     OW37319   0.216   3.129   0.643 -0.5244 -0.3949 -0.1382
12026SOL    HW137320   0.173   3.079   0.712 -1.9571 -0.8626 -1.3279
12026SOL    HW237321   0.306   3.098   0.643 -0.4836 -0.3038  1.5860
12027SOL     OW37322   0.162   0.318   6.378  0.2413  0.4534 -0.2992
12027SOL    HW137323   0.228   0.363   6.326 -0.4490  0.3229 -1.3229
12027SOL    HW237324   0.201   0.307   6.464  0.9161  1.8414 -0.4199
12028SOL     OW37325   0.752   3.190   7.850  0.1800 -0.4722 -0.1859
12028SOL    HW137326   0.759   3.178   7.756  1.2101 -0.6376 -0.0973
12028SOL    HW237327   0.667   3.232   7.863  0.0387 -0.4369 -1.1796
12029SOL     OW37328   6.734   4.985   1.180 -0.0271  0.1693  0.4388
12029SOL    HW137329   6.653   4.936   1.190 -0.0228  0.2382  0.8178
12029SOL    HW237330   6.793   4.925   1.134 -0.1996  0.0160  0.4187
12030SOL     OW37331   6.276   2.876   4.380  0.8613 -0.5470 -0.1052
12030SOL    HW137332   6.348   2.914   4.331 -0.1972 -0.5412 -1.6962
12030SOL    HW237333   6.313   2.798   4.422  2.0070 -0.0309 -0.1642
12031SOL     OW37334   4.449   3.426   1.438  0.1131  0.0426  0.1433
12031SOL    HW137335   4.398   3.362   1.387 -2.3216  1.3199  0.9063
12031SOL    HW237336   4.532   3.382   1.454 -0.3875 -1.7698 -1.8997
12032SOL     OW37337   3.413   4.872   3.296  0.5246 -0.3306 -0.1995
12032SOL    HW137338   3.429   4.930   3.370  1.1438 -0.9177  0.1224
12032SOL    HW237339   3.433   4.926   3.219  1.1420 -0.1260  0.1008
12033SOL     OW37340   7.141   1.501   7.406  0.4510  0.4269 -0.1313
12033SOL    HW137341   7.208   1.516   7.339 -1.2633 -0.7577 -2.1899
12033SOL    HW237342   7.099   1.419   7.380 -1.0788  0.5950  1.7200
12034SOL     OW37343   8.143   3.215   5.604 -0.4954 -0.2527 -0.0864
12034SOL    HW137344   8.058   3.207   5.647  0.3759  0.5532  1.8726
12034SOL    HW237345   8.189   3.134   5.627 -0.8748 -0.9069 -1.5436
12035SOL     OW37346   3.410   6.065   5.196 -0.0350 -0.1294  0.2455
12035SOL    HW137347   3.385   6.039   5.107 -0.2245  0.9909 -0.0412
12035SOL    HW237348   3.334   6.044   5.250  1.0129 -3.1471  0.5961
12036SOL     OW37349   7.854   2.082   1.757 -0.3489 -0.2514 -0.0807
12036SOL    HW137350   7.759   2.079   1.759 -0.4054  1.5370 -0.0084
12036SOL    HW237351   7.878   2.140   1.829  0.8174 -1.0683  0.1997
12037SOL     OW37352   0.121   6.278   8.040  0.2834  0.1561 -0.8159
12037SOL    HW137353   0.145   6.185   8.035  1.3798  0.3865 -0.0235
12037SOL    HW237354   0.200   6.325   8.013  0.6863  0.9280  1.5753
12038SOL     OW37355   5.440   5.817   5.386 -0.2286 -0.3864  0.1779
12038SOL    HW137356   5.507   5.849   5.324 -2.4064  0.3511 -1.8619
12038SOL    HW237357   5.490   5.792   5.464  2.5687 -0.8935 -1.6796
12039SOL     OW37358   4.455   3.139   4.357 -0.3939 -0.0163 -0.1320
12039SOL    HW137359   4.454   3.080   4.432 -2.4654  0.6745  0.4136
12039SOL    HW237360   4.400   3.213   4.383  1.0755  1.5598 -1.2940
12040SOL     OW37361   7.055   2.771   4.847  0.1050 -0.2635  0.1703
12040SOL    HW137362   7.034   2.837   4.912 -1.3348 -1.0472  0.5217
12040SOL    HW237363   6.992   2.700   4.863  0.2821 -0.8279 -1.5215
12041SOL     OW37364   0.657   0.160   4.967  0.0715  0.5114 -0.1818
12041SOL    HW137365   0.653   0.123   5.056 -1.5390  0.2782 -0.3327
12041SOL    HW237366   0.616   0.094   4.912 -1.9590  2.0772 -0.6045
12042SOL     OW37367   4.574   3.155   7.169  0.3897 -0.2528  0.1025
12042SOL    HW137368   4.631   3.102   7.114  3.3881  1.5047  1.3967
12042SOL    HW237369   4.587   3.120   7.257  3.2741  3.1506  1.1631
12043SOL     OW37370   3.343   1.393   6.788  0.0201  0.2852  0.1163
12043SOL    HW137371   3.304   1.333   6.724  0.2464  1.2424 -0.9467
12043SOL    HW237372   3.274   1.407   6.852 -0.0441 -1.0886  0.3697
12044SOL     OW37373   3.862   3.590   6.232 -0.2392 -0.3112  0.2559
12044SOL    HW137374   3.858   3.568   6.325  0.8235  1.4826  0.7368
12044SOL    HW237375   3.849   3.684   6.229 -0.3324 -0.3705 -1.4273
12045SOL     OW37376   4.630   2.932   0.197 -0.1261 -0.1401 -0.1768
12045SOL    HW137377   4.549   2.981   0.210  0.7130  1.0987  0.4771
12045SOL    HW237378   4.700   2.996   0.211  0.9616 -1.0275 -1.4300
12046SOL     OW37379   8.132   7.727   0.303 -0.4269 -0.0508  0.6197
12046SOL    HW137380   8.214   7.776   0.303  0.6469 -1.8230  2.0775
12046SOL    HW237381   8.080   7.769   0.234  2.6794 -0.5630 -2.1584
12047SOL     OW37382   5.053   0.726   5.251 -0.1272  0.2103 -0.4082
12047SOL    HW137383   4.981   0.703   5.309  0.6671 -2.3012 -0.3462
12047SOL    HW237384   5.130   0.731   5.308  0.5614 -1.7598 -1.1220
12048SOL     OW37385   2.720   0.400   5.886  0.4115 -0.1427  0.2825
12048SOL    HW137386   2.639   0.450   5.884 -0.2959 -1.0833  2.7800
12048SOL    HW237387   2.703   0.325   5.829  0.3037  0.7485 -0.8713
12049SOL     OW37388   1.727   3.885   7.102  0.0386  0.1051 -0.2334
12049SOL    HW137389   1.820   3.893   7.079  0.4392 -0.8671  0.9764
12049SOL    HW237390   1.720   3.926   7.189 -0.7505  0.5682 -0.5105
12050SOL     OW37391   5.090   0.885   0.212  0.4252 -0.4015 -0.2120
12050SOL    HW137392   5.041   0.939   0.274  0.0804 -0.9531  0.0077
12050SOL    HW237393   5.024   0.833   0.167  0.7472 -0.6297 -0.4315
12051SOL     OW37394   5.468   6.417   5.968  0.3311 -0.7832 -0.2464
12051SOL    HW137395   5.489   6.336   6.013  2.8387 -0.3832 -0.6386
12051SOL    HW237396   5.374   6.429   5.982 -0.2848 -4.2325 -1.0115
12052SOL     OW37397   2.245   4.252   0.248  0.2873  0.1115  0.1551
12052SOL    HW137398   2.158   4.221   0.224  0.6330  0.1752 -1.2473
12052SOL    HW237399   2.255   4.335   0.200 -0.0050  1.6073  2.5904
12053SOL     OW37400   3.207   5.928   1.629  0.1953  0.0076  0.0808
12053SOL    HW137401   3.262   6.000   1.597 -1.5608  0.2680 -2.5677
12053SOL    HW237402   3.133   5.971   1.672  0.2512 -0.2629  0.4508
12054SOL     OW37403   3.870   6.664   3.801 -0.2396 -0.5039  0.2836
12054SOL    HW137404   3.905   6.747   3.770  1.1656 -0.4033  2.0138
12054SOL    HW237405   3.783   6.659   3.764  0.1303  1.1614 -0.8599
12055SOL     OW37406   6.164   4.314   1.209  0.1306 -0.2398 -0.3766
12055SOL    HW137407   6.253   4.339   1.185  0.1047  0.3040  0.0937
12055SOL    HW237408   6.170   4.220   1.228  0.3026 -0.5230 -1.7681
12056SOL     OW37409   6.685   2.856   1.535  0.2344  0.0683  0.1566
12056SOL    HW137410   6.712   2.778   1.486  1.2346  0.3028  0.3323
12056SOL    HW237411   6.626   2.822   1.602  1.1529 -0.6220  0.6298
12057SOL     OW37412   2.017   4.080   2.335  0.2409  0.6604 -0.8390
12057SOL    HW137413   2.087   4.039   2.385 -0.1229  1.1078  0.0416
12057SOL    HW237414   1.997   4.017   2.266 -0.8630 -1.0255  0.9632
12058SOL     OW37415   7.793   1.547   7.520  0.1919  0.6448  0.5633
12058SOL    HW137416   7.796   1.600   7.600  1.4434 -0.2071  1.1069
12058SOL    HW237417   7.863   1.482   7.532 -2.5895 -2.4071  0.7957
12059SOL     OW37418   7.407   4.184   4.975  0.6280  0.4268 -0.2529
12059SOL    HW137419   7.410   4.212   4.884  0.4433 -0.2720 -0.4792
12059SOL    HW237420   7.424   4.264   5.025 -0.0179  0.9686 -0.8737
12060SOL     OW37421   1.101   4.305   7.453  0.4608 -0.0230  0.6318
12060SOL    HW137422   1.171   4.240   7.448  1.1668  0.6528  1.5576
12060SOL    HW237423   1.141   4.381   7.496 -0.2313  1.2006 -0.8454
12061SOL     OW37424   3.913   0.440   7.585  0.9169  0.0963 -0.3788
12061SOL    HW137425   3.932   0.387   7.507  0.4457 -0.6350  0.0026
12061SOL    HW237426   3.984   0.505   7.587  0.5247  0.5952 -1.8337
12062SOL     OW37427   0.738   7.086   2.626 -0.1556  0.2333 -0.8665
12062SOL    HW137428   0.713   7.020   2.690 -2.4026  1.6390 -0.2374
12062SOL    HW237429   0.673   7.078   2.557  0.2049  1.0579 -1.3092
12063SOL     OW37430   7.402   8.121   7.561  0.2877 -0.3109 -0.1121
12063SOL    HW137431   7.477   8.063   7.548  0.8365  0.3152  0.2126
12063SOL    HW237432   7.430   8.205   7.526 -1.0388 -0.5931 -1.9392
12064SOL     OW37433   1.330   2.760   5.634 -0.2368 -0.1803 -0.0285
12064SOL    HW137434   1.340   2.854   5.617  1.2639 -0.2963  0.1150
12064SOL    HW237435   1.239   2.741   5.612 -1.3780  1.8724  2.6608
12065SOL     OW37436   6.751   2.585   3.275  0.3354  0.1120 -0.4104
12065SOL    HW137437   6.754   2.529   3.197 -0.5296  1.1190 -1.2069
12065SOL    HW237438   6.831   2.637   3.270 -0.2318  0.9340 -1.2426
12066SOL     OW37439   3.999   0.598   0.063  0.1778 -0.3200 -0.7572
12066SOL    HW137440   3.934   0.642   0.117  2.4156  1.5894  0.5199
12066SOL    HW237441   3.987   0.633  -0.025  0.3820  1.0864 -0.2292
12067SOL     OW37442   7.475   4.069   7.412 -0.0955  0.5987  0.1968
12067SOL    HW137443   7.501   4.154   7.377  0.9016  0.0314 -0.4750
12067SOL    HW237444   7.400   4.088   7.469 -0.5248  1.7926 -0.7322
12068SOL     OW37445   7.521   3.650   2.843  0.2998  0.9055  0.2580
12068SOL    HW137446   7.524   3.565   2.887  0.8521  0.8774  0.1749
12068SOL    HW237447   7.584   3.641   2.771 -1.7885  0.4029 -1.5384
12069SOL     OW37448   1.010   0.866   1.705  0.3449 -0.5122 -0.5890
12069SOL    HW137449   0.944   0.832   1.765 -0.2434  0.8278 -0.4731
12069SOL    HW237450   0.968   0.861   1.619 -0.7667  2.4102 -0.2560
12070SOL     OW37451   5.976   5.916   0.504 -0.0052 -0.3063 -0.2451
12070SOL    HW137452   6.029   5.927   0.425  1.2124 -1.6604  0.3651
12070SOL    HW237453   5.983   6.000   0.548  0.6480 -0.0675 -0.7789
12071SOL     OW37454   5.005   4.149   6.386  0.0611 -0.3387 -0.7348
12071SOL    HW137455   5.043   4.226   6.428  1.6106 -0.9422 -0.9947
12071SOL    HW237456   4.913   4.151   6.411  0.5985  0.2528  1.2815
12072SOL     OW37457   4.190   6.222   0.937  0.0349 -0.1744  0.1114
12072SOL    HW137458   4.216   6.289   0.874  0.8291  1.7263  2.3939
12072SOL    HW237459   4.101   6.198   0.910 -0.4424  2.1164 -0.4903
12073SOL     OW37460   7.282   5.554   3.352  0.3682  0.2193 -0.2511
12073SOL    HW137461   7.376   5.551   3.336  0.4601  0.9848  0.1381
12073SOL    HW237462   7.273   5.532   3.445  0.1888  0.5190 -0.1986
12074SOL     OW37463   7.040   6.292   4.543 -0.0810 -0.0497  0.1560
12074SOL    HW137464   7.126   6.299   4.585 -0.4143  1.2352  0.6403
12074SOL    HW237465   7.036   6.200   4.514  0.5358 -0.7332  2.1075
12075SOL     OW37466   5.197   2.796   5.066 -0.4899  0.4984 -0.6902
12075SOL    HW137467   5.227   2.847   5.141 -2.4408 -0.3071  0.6838
12075SOL    HW237468   5.254   2.719   5.066  0.2890  1.0634 -0.7667
12076SOL     OW37469   8.104   7.968   7.771 -0.5983  0.2775 -0.7755
12076SOL    HW137470   8.101   7.879   7.735  0.9415 -0.1105 -0.0046
12076SOL    HW237471   8.189   8.002   7.742 -0.3626  0.8020  0.5233
12077SOL     OW37472   3.772   6.839   5.542  1.0356 -0.4386 -0.0099
12077SOL    HW137473   3.694   6.871   5.496  1.1743  0.7299  0.5581
12077SOL    HW237474   3.766   6.743   5.535  0.1319 -0.3248 -0.9252
12078SOL     OW37475   0.089   7.097   7.219  0.7923 -0.2404 -0.0324
12078SOL    HW137476   0.012   7.088   7.277  2.1614  0.3277  1.9312
12078SOL    HW237477   0.066   7.168   7.159  0.1969  0.6977  1.2716
12079SOL     OW37478   7.113   1.827   5.542 -0.1141  0.2301 -0.0973
12079SOL    HW137479   7.020   1.836   5.522 -0.0357  0.7739 -0.2303
12079SOL    HW237480   7.130   1.891   5.610  0.0556 -0.2206  0.2880
12080SOL     OW37481   2.672   4.863   5.399  0.0913 -0.7173  0.4273
12080SOL    HW137482   2.742   4.904   5.451 -0.0873  0.8631 -0.5269
12080SOL    HW237483   2.708   4.862   5.310 -1.1217  0.1777 -0.0807
12081SOL     OW37484   1.467   7.633   4.812 -0.8265 -0.6586 -0.0762
12081SOL    HW137485   1.524   7.558   4.792 -1.5477 -1.0409 -0.6911
12081SOL    HW237486   1.378   7.599   4.801 -1.1574  1.0586 -3.1703
12082SOL     OW37487   3.149   3.544   6.944  0.7005 -0.4362  0.0337
12082SOL    HW137488   3.242   3.563   6.954  0.4720 -0.5189  2.6398
12082SOL    HW237489   3.105   3.618   6.987 -0.4391 -0.5246 -0.9519
12083SOL     OW37490   7.851   6.273   7.701 -0.1127  0.5143 -0.4437
12083SOL    HW137491   7.908   6.287   7.777  0.1579 -1.5504 -0.2412
12083SOL    HW237492   7.772   6.323   7.721 -0.1553 -0.2222  1.3425
12084SOL     OW37493   3.995   5.667   6.195  0.0179  0.4586 -0.1419
12084SOL    HW137494   4.024   5.576   6.193  0.5530  0.6390 -0.9506
12084SOL    HW237495   4.075   5.718   6.184 -0.2575  1.0390  0.4719
12085SOL     OW37496   1.752   4.427   0.531  0.2253  0.0569  0.3409
12085SOL    HW137497   1.661   4.420   0.561  0.9667 -1.1248  2.4527
12085SOL    HW237498   1.804   4.406   0.609  2.2634 -2.8070 -1.6812
12086SOL     OW37499   2.368   6.548   2.427 -0.5038  0.0412 -0.0843
12086SOL    HW137500   2.322   6.625   2.396 -1.4060 -0.7287 -0.6839
12086SOL    HW237501   2.359   6.484   2.356 -1.9083 -1.4730  1.4059
12087SOL     OW37502   4.189   2.090   1.509  0.7345  0.3550  0.5813
12087SOL    HW137503   4.223   2.072   1.596 -0.5553  1.2184  1.2832
12087SOL    HW237504   4.172   2.185   1.509 -0.7403  0.1071 -0.0623
12088SOL     OW37505   4.230   3.967   2.570 -0.3036 -0.0123  0.2208
12088SOL    HW137506   4.305   3.917   2.603 -0.5639 -0.8873 -0.4807
12088SOL    HW237507   4.256   4.058   2.579  0.8862 -0.3101 -0.1118
12089SOL     OW37508   4.433   5.695   7.578  0.5721 -0.6918  0.4430
12089SOL    HW137509   4.418   5.701   7.673 -0.7404 -0.4571  0.2356
12089SOL    HW237510   4.517   5.649   7.570 -0.4486 -2.9039  1.7018
12090SOL     OW37511   7.015   3.818   4.964  0.6506 -0.0910 -0.0250
12090SOL    HW137512   7.056   3.759   4.901  0.3590 -2.0429  1.5591
12090SOL    HW237513   6.934   3.774   4.990  0.7537  0.6675  1.7045
12091SOL     OW37514   2.498   1.571   6.078 -0.0543 -0.1749  0.3003
12091SOL    HW137515   2.571   1.618   6.118  0.8685 -0.0774 -1.4507
12091SOL    HW237516   2.439   1.640   6.047 -0.5166 -0.2464  0.9930
12092SOL     OW37517   7.272   4.727   5.274 -0.7504 -0.4629  0.3587
12092SOL    HW137518   7.221   4.794   5.228  2.3447  1.8950  0.2074
12092SOL    HW237519   7.272   4.756   5.365  0.6613 -0.1863  0.2801
12093SOL     OW37520   1.010   4.098   3.430  0.2596  0.1469  0.3328
12093SOL    HW137521   0.919   4.117   3.408  0.0297 -1.0162  0.2430
12093SOL    HW237522   1.050   4.069   3.348  1.1106  2.0843  0.0383
12094SOL     OW37523   8.277   6.772   5.292 -0.0943 -0.2877  0.1792
12094SOL    HW137524   8.274   6.676   5.296  0.1666 -0.3742 -1.5263
12094SOL    HW237525   8.218   6.795   5.221  0.5254  0.7795  0.0060
12095SOL     OW37526   0.224   3.851   6.554  0.4402 -0.5613 -0.3331
12095SOL    HW137527   0.170   3.855   6.633  0.2267  1.4020 -0.5503
12095SOL    HW237528   0.162   3.846   6.482  0.4558  2.4706 -0.6323
12096SOL     OW37529   5.758   7.206   4.497 -0.0615  0.5486  0.0585
12096SOL    HW137530   5.755   7.128   4.551  1.1747 -0.1838 -0.9122
12096SOL    HW237531   5.800   7.272   4.552  1.4889 -0.2809 -0.0993
12097SOL     OW37532   6.606   2.341   1.831 -0.7503 -0.2128  0.3965
12097SOL    HW137533   6.667   2.267   1.831 -2.5092 -1.8041 -2.4038
12097SOL    HW237534   6.655   2.412   1.790 -0.2550 -1.0467 -0.5136
12098SOL     OW37535   0.865   7.375   0.660 -0.1346 -0.2901 -0.4425
12098SOL    HW137536   0.858   7.296   0.714  0.3897 -0.3718 -0.4889
12098SOL    HW237537   0.825   7.351   0.576  0.5738 -0.7095 -0.6692
12099SOL     OW37538   5.632   4.018   1.426  0.0003  0.2636 -0.0205
12099SOL    HW137539   5.647   4.068   1.506 -0.9832  2.8767 -1.4005
12099SOL    HW237540   5.660   4.076   1.355 -0.5464 -1.4001 -1.6673
12100SOL     OW37541   5.629   0.098   4.566  0.1640 -0.1637  0.2954
12100SOL    HW137542   5.535   0.101   4.549  0.2587 -0.2219 -0.2567
12100SOL    HW237543   5.637   0.069   4.657 -0.3558  0.1322  0.4338
12101SOL     OW37544   0.992   2.894   5.314 -0.0441 -0.1089 -0.1533
12101SOL    HW137545   0.963   2.983   5.295 -0.6381 -0.2008  0.3021
12101SOL    HW237546   0.921   2.838   5.281 -1.0217 -0.2764  2.0955
12102SOL     OW37547   2.885   1.277   3.761 -0.2532  0.5314 -0.2459
12102SOL    HW137548   2.888   1.213   3.691 -0.0983 -1.7070  1.7493
12102SOL    HW237549   2.973   1.314   3.764 -0.6910  1.8406 -2.2437
12103SOL     OW37550   0.174   3.495   5.367  0.5311 -0.3720 -0.0252
12103SOL    HW137551   0.086   3.501   5.404  0.8516  0.5198  0.6098
12103SOL    HW237552   0.219   3.432   5.424  0.8359  0.5253  0.7417
12104SOL     OW37553   6.833   7.460   5.121 -0.0076  0.1808 -0.6743
12104SOL    HW137554   6.884   7.534   5.087  2.1694 -0.7193  0.5006
12104SOL    HW237555   6.893   7.416   5.181 -1.2098 -2.6678 -1.5018
12105SOL     OW37556   6.069   5.172   1.747 -0.2911  0.1908  0.2487
12105SOL    HW137557   6.125   5.099   1.775 -1.1177 -0.0071  1.4136
12105SOL    HW237558   5.990   5.130   1.714 -0.9245  0.5655  1.2752
12106SOL     OW37559   2.293   4.054   2.387 -0.2916 -0.5361 -0.1822
12106SOL    HW137560   2.352   4.124   2.359 -0.3042 -0.9010 -1.1403
12106SOL    HW237561   2.350   3.989   2.428 -0.0918 -0.6685 -0.6743
12107SOL     OW37562   0.976   4.352   5.201  0.2136 -0.1439  0.4248
12107SOL    HW137563   1.066   4.330   5.178 -0.3941 -1.9639 -0.3125
12107SOL    HW237564   0.931   4.268   5.204 -1.4871  0.7554  0.6907
12108SOL     OW37565   5.945   3.470   6.534  0.2276 -0.5596  0.1949
12108SOL    HW137566   5.925   3.381   6.506  0.1970  0.0275 -1.7354
12108SOL    HW237567   5.862   3.505   6.566 -0.1281 -0.6640 -0.6178
12109SOL     OW37568   1.759   5.961   6.492  0.6870 -0.3255  0.1144
12109SOL    HW137569   1.714   6.015   6.558 -1.0383 -1.4287 -0.1271
12109SOL    HW237570   1.851   5.968   6.515  0.5189  2.7055  0.1019
12110SOL     OW37571   0.549   0.662   6.780 -0.6896 -0.0102 -0.0671
12110SOL    HW137572   0.465   0.676   6.736 -0.2064  1.6554 -0.4760
12110SOL    HW237573   0.556   0.736   6.841  0.9722  0.4268 -0.7862
12111SOL     OW37574   0.211   8.162   2.993 -0.1692  0.2192  0.4050
12111SOL    HW137575   0.269   8.111   2.936 -0.8601  0.9122 -0.9469
12111SOL    HW237576   0.200   8.107   3.071  1.4188 -0.4016  0.2277
12112SOL     OW37577   1.087   2.885   7.993 -0.0150 -0.0560  0.4580
12112SOL    HW137578   1.173   2.844   7.980 -0.0572  0.6282 -2.3225
12112SOL    HW237579   1.039   2.824   8.049  1.2680 -1.8892 -0.4033
12113SOL     OW37580   3.730   4.343   6.352 -0.1818  0.2113 -0.1399
12113SOL    HW137581   3.667   4.342   6.280  0.2003 -0.5306 -0.4788
12113SOL    HW237582   3.789   4.270   6.332  0.6318  0.7450  0.3024
12114SOL     OW37583   5.225   1.251   2.442 -0.4435  0.6986  0.2458
12114SOL    HW137584   5.241   1.229   2.534 -0.0890  0.9652  0.2495
12114SOL    HW237585   5.310   1.237   2.399 -1.5564 -3.3547 -0.8283
12115SOL     OW37586   4.125   7.572   3.159  0.4648 -0.3715  0.0971
12115SOL    HW137587   4.190   7.631   3.198  0.6754  0.9218 -2.1518
12115SOL    HW237588   4.056   7.631   3.127 -0.1659 -1.4906 -0.6045
12116SOL     OW37589   4.784   2.020   1.330  0.3836  0.4015  0.2059
12116SOL    HW137590   4.734   2.076   1.270 -0.5087  0.4989  1.0251
12116SOL    HW237591   4.741   1.934   1.324  0.6362  0.2685  0.2927
12117SOL     OW37592   2.629   5.061   2.444  0.1126  0.1262  0.2480
12117SOL    HW137593   2.535   5.079   2.440  0.2623  0.7781 -0.3875
12117SOL    HW237594   2.649   5.016   2.362  0.4875  0.5873  0.0883
12118SOL     OW37595   4.889   5.987   3.217 -0.2186  0.2779 -0.0776
12118SOL    HW137596   4.947   5.986   3.141  0.9308 -0.8413  0.7917
12118SOL    HW237597   4.947   6.002   3.292 -1.5298  3.0268  0.4540
12119SOL     OW37598   1.935   6.089   2.829  0.0478 -0.3650 -0.1859
12119SOL    HW137599   1.871   6.120   2.893 -0.2205  1.7109 -1.4234
12119SOL    HW237600   1.889   6.094   2.745  1.1151 -0.9623 -0.8147
12120SOL     OW37601   6.864   5.438   6.497 -0.4935 -0.0752 -0.0687
12120SOL    HW137602   6.837   5.376   6.565  1.0639 -0.6744  0.0286
12120SOL    HW237603   6.795   5.432   6.431 -1.2865 -0.5554  0.7847
12121SOL     OW37604   6.318   2.155   0.113 -0.0057 -0.0924 -0.5305
12121SOL    HW137605   6.397   2.103   0.126  0.9357  1.3212 -0.5332
12121SOL    HW237606   6.312   2.209   0.192 -0.2027  0.8090 -1.1670
12122SOL     OW37607   8.246   6.824   4.646  0.0940  0.3385  0.3783
12122SOL    HW137608   8.243   6.750   4.706  0.8535 -1.1993 -1.4330
12122SOL    HW237609   8.158   6.829   4.610  0.7056 -1.3761 -1.4475
12123SOL     OW37610   0.509   5.431   7.663  0.4595 -0.1375 -0.2275
12123SOL    HW137611   0.529   5.365   7.729  0.9577 -0.5327 -0.7689
12123SOL    HW237612   0.414   5.425   7.651  0.3478  0.0605  0.5820
12124SOL     OW37613   1.053   6.492   4.642 -0.1189 -0.2750 -0.1552
12124SOL    HW137614   1.055   6.399   4.662  0.9245 -0.0085  1.0284
12124SOL    HW237615   1.145   6.519   4.641 -0.3504  0.4998 -1.6862
12125SOL     OW37616   0.117   5.862   1.261 -0.3953  0.3453  0.2617
12125SOL    HW137617   0.028   5.827   1.258 -0.0473 -0.4954 -0.4926
12125SOL    HW237618   0.115   5.937   1.202 -0.2860 -0.4546 -0.7810
12126SOL     OW37619   1.680   3.273   3.410 -0.1793  0.5099 -0.1319
12126SOL    HW137620   1.724   3.221   3.478 -0.6901 -0.3606 -0.4613
12126SOL    HW237621   1.726   3.357   3.412  1.3728 -0.3119 -0.3251
12127SOL     OW37622   5.859   5.750   6.585  1.0251 -0.0282 -0.2058
12127SOL    HW137623   5.943   5.746   6.630  1.5743 -0.9197 -1.2800
12127SOL    HW237624   5.882   5.752   6.492 -0.1060  1.2516 -0.4627
12128SOL     OW37625   2.513   5.843   7.584 -0.2605  0.6646 -0.1911
12128SOL    HW137626   2.453   5.838   7.658 -1.1959  1.9334 -0.8287
12128SOL    HW237627   2.468   5.796   7.513  1.5429 -2.3303  0.6042
12129SOL     OW37628   3.946   5.425   0.205  0.2378  0.0063 -0.2521
12129SOL    HW137629   3.986   5.498   0.253  0.8314 -0.8666  0.5865
12129SOL    HW237630   3.854   5.427   0.231  0.3947  0.0282  0.3063
12130SOL     OW37631   4.920   3.545   2.919 -0.1699 -0.2708  0.0087
12130SOL    HW137632   4.941   3.638   2.933 -0.2647 -0.2215 -0.1723
12130SOL    HW237633   4.972   3.499   2.985  0.9594 -0.1981 -0.8181
12131SOL     OW37634   0.117   1.871   3.169  0.5098 -0.0151  0.3957
12131SOL    HW137635   0.168   1.799   3.206  0.1184 -0.7969 -0.5672
12131SOL    HW237636   0.153   1.949   3.211  2.4228 -0.5630 -0.1671
12132SOL     OW37637   7.950   3.252   4.706 -0.4168 -0.0211  0.0725
12132SOL    HW137638   7.968   3.216   4.793  0.3244  0.7935  0.2615
12132SOL    HW237639   8.028   3.229   4.655 -0.8065 -0.4019 -0.3486
12133SOL     OW37640   8.209   4.698   2.335 -0.3237  0.3757 -0.2933
12133SOL    HW137641   8.134   4.663   2.384  1.2091 -1.5760  0.7372
12133SOL    HW237642   8.244   4.767   2.390  0.4907 -0.8114  0.7081
12134SOL     OW37643   5.900   1.042   2.183  0.1123 -0.2127 -0.1109
12134SOL    HW137644   5.878   1.022   2.092 -0.6878 -0.2172  0.0842
12134SOL    HW237645   5.944   1.127   2.178 -2.1690  0.9949 -0.2397
12135SOL     OW37646   7.592   6.366   0.147  0.3661  0.5020  0.1243
12135SOL    HW137647   7.537   6.293   0.117  0.5419  0.9061 -1.1872
12135SOL    HW237648   7.618   6.341   0.236 -0.2569 -0.6460 -0.0087
12136SOL     OW37649   2.488   3.057   6.430  0.4294 -0.0863  0.4503
12136SOL    HW137650   2.444   2.972   6.438  1.8819 -0.9113 -0.0563
12136SOL    HW237651   2.432   3.107   6.370 -0.3650 -0.7411  0.6359
12137SOL     OW37652   2.073   5.594   6.057 -0.3424 -0.0469  0.1038
12137SOL    HW137653   2.036   5.620   5.972  0.3286  1.0991  0.1483
12137SOL    HW237654   2.086   5.677   6.104 -1.6779 -0.7519  1.7368
12138SOL     OW37655   2.736   0.472   4.726  0.6486 -0.4146 -0.3312
12138SOL    HW137656   2.755   0.566   4.734 -0.6938 -0.2522  1.0493
12138SOL    HW237657   2.807   0.430   4.776  0.1772 -0.0298  0.6886
12139SOL     OW37658   1.027   3.016   3.634 -0.3241  0.0878 -0.5885
12139SOL    HW137659   1.034   3.086   3.700  1.3519  0.7356 -1.4220
12139SOL    HW237660   0.985   3.059   3.559  2.7535  0.8775 -1.9460
12140SOL     OW37661   4.999   4.528   0.646 -0.2149  0.0619 -0.1112
12140SOL    HW137662   5.043   4.597   0.695 -0.4812  0.6951 -0.7617
12140SOL    HW237663   4.991   4.562   0.557 -0.6244 -0.6777 -0.3669
12141SOL     OW37664   3.282   5.824   4.703 -0.0182  0.6721 -0.1681
12141SOL    HW137665   3.214   5.786   4.648 -2.2787  2.6221  1.1778
12141SOL    HW237666   3.302   5.756   4.767 -0.5709  0.0181 -0.6767
12142SOL     OW37667   1.577   0.909   7.712  0.0009  0.4966 -0.2681
12142SOL    HW137668   1.536   0.909   7.798 -0.6417 -0.4795 -0.5666
12142SOL    HW237669   1.657   0.858   7.723  0.2645  0.9376 -0.1008
12143SOL     OW37670   0.470   0.709   0.477  0.0740 -0.3300  0.2174
12143SOL    HW137671   0.463   0.802   0.455  0.8417 -0.3154  0.0120
12143SOL    HW237672   0.380   0.681   0.492 -0.3952 -0.0594 -1.8651
12144SOL     OW37673   3.180   2.150   3.593  0.0473 -0.7537  0.3581
12144SOL    HW137674   3.190   2.170   3.500 -2.1795 -0.7320  0.1111
12144SOL    HW237675   3.176   2.236   3.635 -0.3938 -0.7600  0.3235
12145SOL     OW37676   4.795   2.099   7.838 -0.5506  0.0616  0.6099
12145SOL    HW137677   4.729   2.030   7.829 -0.3384 -0.1863  0.9412
12145SOL    HW237678   4.774   2.141   7.921 -0.5138  0.2250  0.5363
12146SOL     OW37679   3.996   4.622   5.109 -0.2292  0.3817 -0.2750
12146SOL    HW137680   3.969   4.586   5.025 -1.8570  1.1383 -0.1016
12146SOL    HW237681   3.914   4.631   5.159  0.8060 -1.0070  1.7727
12147SOL     OW37682   5.079   6.302   6.261  0.1217  0.5694 -0.2005
12147SOL    HW137683   5.025   6.255   6.324  0.6297  0.6283  0.2927
12147SOL    HW237684   5.117   6.374   6.313  0.4499  0.6863 -0.6060
12148SOL     OW37685   6.237   7.542   6.338  0.4021  0.8924 -0.6465
12148SOL    HW137686   6.296   7.579   6.404  0.4552 -0.9758  0.3837
12148SOL    HW237687   6.150   7.549   6.377  0.1833  1.7279 -1.2802
12149SOL     OW37688   1.156   1.755   0.733  0.3688 -0.6122 -0.3573
12149SOL    HW137689   1.187   1.728   0.819 -0.2612  0.4459  0.2141
12149SOL    HW237690   1.236   1.770   0.682  0.7711 -0.1053  0.4078
12150SOL     OW37691   4.622   7.838   0.959  0.0225 -0.3470 -0.1760
12150SOL    HW137692   4.652   7.760   1.006  1.3926 -0.5254 -1.3267
12150SOL    HW237693   4.531   7.848   0.986  0.0977 -1.8104  0.6918
12151SOL     OW37694   7.601   4.753   1.601  0.0389 -0.2916 -0.7173
12151SOL    HW137695   7.645   4.741   1.685  1.2271  2.6723 -0.8618
12151SOL    HW237696   7.524   4.807   1.622 -0.6336 -1.0309 -1.2696
12152SOL     OW37697   1.247   7.246   4.724  0.3668  0.2722  0.2147
12152SOL    HW137698   1.250   7.218   4.816 -0.1877  0.8547  0.4136
12152SOL    HW237699   1.338   7.244   4.695  0.3608 -1.6880  0.2353
12153SOL     OW37700   3.194   1.192   0.386 -0.1008 -0.1513  0.0668
12153SOL    HW137701   3.154   1.158   0.306 -2.4009  2.5369  0.0183
12153SOL    HW237702   3.210   1.284   0.368  0.4982  0.2027  2.2800
12154SOL     OW37703   6.083   6.167   8.030 -0.3594 -0.5185 -0.2027
12154SOL    HW137704   5.999   6.122   8.026  0.1728 -1.6633  1.2002
12154SOL    HW237705   6.077   6.235   7.963 -2.4461 -0.5075 -0.0198
12155SOL     OW37706   4.163   7.859   7.750  0.0707 -0.2827 -0.5102
12155SOL    HW137707   4.148   7.894   7.838  0.0519 -1.1473 -0.1648
12155SOL    HW237708   4.222   7.785   7.763  1.2384  0.4913 -1.4024
12156SOL     OW37709   4.136   5.521   4.461 -0.2127 -0.3360 -0.4500
12156SOL    HW137710   4.078   5.572   4.405  0.9673  0.8991 -0.5704
12156SOL    HW237711   4.126   5.559   4.548 -0.5739 -0.9809 -0.2058
12157SOL     OW37712   6.210   2.014   5.703  0.2020 -0.2472  0.2685
12157SOL    HW137713   6.181   1.993   5.792  1.2121 -0.5274  0.5363
12157SOL    HW237714   6.241   2.104   5.709  0.0417 -0.1836  0.1408
12158SOL     OW37715   7.158   5.323   0.176  0.2454 -0.0653  0.0063
12158SOL    HW137716   7.245   5.283   0.174  0.3310 -0.1441  2.6948
12158SOL    HW237717   7.168   5.403   0.126  1.6678 -0.4748 -0.4094
12159SOL     OW37718   5.443   6.442   3.938 -0.0858 -0.3192 -0.0264
12159SOL    HW137719   5.513   6.463   3.877  0.7152  0.5519  1.1732
12159SOL    HW237720   5.484   6.444   4.024 -0.9284 -2.7129  0.4759
12160SOL     OW37721   5.917   6.994   4.326 -0.2661  0.5434 -0.0913
12160SOL    HW137722   5.911   7.068   4.386  2.0426  0.9343 -0.3185
12160SOL    HW237723   5.918   7.034   4.239 -0.5664  0.1514 -0.2768
12161SOL     OW37724   1.937   4.535   7.439 -0.0760 -0.9118  0.3338
12161SOL    HW137725   1.939   4.444   7.467  0.1256 -0.7123  1.0013
12161SOL    HW237726   1.960   4.584   7.518 -0.4028 -0.2723  0.0375
12162SOL     OW37727   2.581   5.364   5.615 -0.3059  0.4348 -0.2132
12162SOL    HW137728   2.645   5.343   5.682  0.4227  0.0566 -1.0156
12162SOL    HW237729   2.551   5.279   5.582  0.0235  0.6163 -0.9993
12163SOL     OW37730   4.115   0.133   4.618  0.4302 -0.2583  0.0889
12163SOL    HW137731   4.179   0.063   4.608  0.7242 -0.2903  1.9010
12163SOL    HW237732   4.060   0.104   4.692 -1.2155  0.1075 -0.9565
12164SOL     OW37733   6.954   7.764   7.628 -0.0283  0.1995 -0.1089
12164SOL    HW137734   7.024   7.704   7.652 -0.1960 -0.0556 -0.2541
12164SOL    HW237735   6.873   7.717   7.650 -0.1496  0.6662  0.4636
12165SOL     OW37736   7.334   5.728   5.049 -0.5341 -0.1303  0.7156
12165SOL    HW137737   7.297   5.653   5.002 -1.6386  0.0986  1.1974
12165SOL    HW237738   7.259   5.770   5.090  0.1409  0.9687  0.8492
12166SOL     OW37739   3.464   7.836   3.422 -0.0092  0.1586 -0.1274
12166SOL    HW137740   3.556   7.838   3.449 -0.3916  1.5889  1.1182
12166SOL    HW237741   3.454   7.911   3.363  0.2476 -1.5728 -2.4509
12167SOL     OW37742   6.859   6.436   7.063  0.4880  0.3596  0.2012
12167SOL    HW137743   6.943   6.423   7.019  1.1986 -1.3243  1.9691
12167SOL    HW237744   6.871   6.515   7.115  0.6575  0.6717 -0.3123
12168SOL     OW37745   5.801   3.798   4.207  0.0488  0.2396 -0.1739
12168SOL    HW137746   5.804   3.811   4.112  0.5866  1.6168  0.0192
12168SOL    HW237747   5.823   3.884   4.244  2.0429 -0.8105  1.1867
12169SOL     OW37748   2.912   6.842   7.893  0.3947 -0.2359  0.4825
12169SOL    HW137749   2.917   6.898   7.815  0.3360 -1.5154 -0.4560
12169SOL    HW237750   2.898   6.754   7.858  2.3842 -1.1200  1.8535
12170SOL     OW37751   7.766   6.179   4.667 -1.0324  0.7681 -0.8684
12170SOL    HW137752   7.795   6.265   4.637 -1.1116  0.8223 -0.7917
12170SOL    HW237753   7.842   6.122   4.654 -0.4249  1.2106  0.6012
12171SOL     OW37754   3.964   4.452   0.124 -0.0367  0.5000  0.3061
12171SOL    HW137755   3.937   4.459   0.215 -2.7457  0.4247 -0.4404
12171SOL    HW237756   3.927   4.529   0.081 -2.7254 -1.6882 -1.5770
12172SOL     OW37757   4.136   1.098   2.830 -0.1636 -0.1587 -0.3856
12172SOL    HW137758   4.203   1.029   2.829  0.0963  0.1058 -1.0104
12172SOL    HW237759   4.065   1.065   2.775 -0.8124 -0.7008  0.7642
12173SOL     OW37760   1.084   7.693   4.034  0.3649  0.0988  0.0313
12173SOL    HW137761   1.074   7.755   4.105 -0.9421  2.0331 -1.7782
12173SOL    HW237762   1.167   7.717   3.992  0.6395 -0.4083  0.2670
12174SOL     OW37763   0.197   4.805   4.996  0.3065  0.3412  0.3706
12174SOL    HW137764   0.222   4.745   4.926  0.3020 -0.0315  0.6882
12174SOL    HW237765   0.101   4.809   4.992  0.4330  2.1599 -1.1696
12175SOL     OW37766   1.459   0.250   3.494 -0.0894  0.3600  0.3125
12175SOL    HW137767   1.442   0.342   3.473 -0.4084  0.3389  0.4881
12175SOL    HW237768   1.450   0.204   3.411 -1.1016  0.3133  0.4429
12176SOL     OW37769   5.537   5.845   5.781  0.4333  0.9817  0.2588
12176SOL    HW137770   5.550   5.766   5.729  0.3701  1.2976 -0.2448
12176SOL    HW237771   5.449   5.875   5.758  0.4520  1.1907  0.4578
12177SOL     OW37772   1.119   7.682   0.257 -0.1423 -0.4249  0.0408
12177SOL    HW137773   1.176   7.605   0.254  0.3665 -0.1751  2.1884
12177SOL    HW237774   1.136   7.729   0.176  0.6094 -1.8348 -0.6303
12178SOL     OW37775   0.843   4.282   7.711 -0.0614  0.2324 -0.0052
12178SOL    HW137776   0.861   4.310   7.801 -0.3341  0.6348 -0.0728
12178SOL    HW237777   0.797   4.356   7.672 -0.4848 -0.1822 -0.2937
12179SOL     OW37778   6.562   0.103   1.840  0.2024 -0.3104  0.0538
12179SOL    HW137779   6.560   0.189   1.797  0.2040  0.4819  1.5911
12179SOL    HW237780   6.615   0.117   1.919 -0.2410 -1.5990  0.5970
12180SOL     OW37781   8.077   6.520   6.492 -1.0241 -0.2615 -1.0082
12180SOL    HW137782   8.109   6.432   6.477  1.1139  0.6282 -1.8132
12180SOL    HW237783   8.100   6.568   6.413 -1.8111  1.1161 -0.4160
12181SOL     OW37784   3.449   7.289   3.655 -0.0708 -0.1406  0.3953
12181SOL    HW137785   3.544   7.280   3.662  0.0489  0.1013 -0.7953
12181SOL    HW237786   3.422   7.331   3.736  0.6313 -1.7483  1.4798
12182SOL     OW37787   7.554   5.397   3.427 -0.1009  0.6941 -0.7174
12182SOL    HW137788   7.563   5.326   3.490 -1.7946  3.5293  2.8989
12182SOL    HW237789   7.643   5.429   3.414  0.2071  0.4893  0.7736
12183SOL     OW37790   7.161   6.960   6.122  0.6486  0.3189  0.1616
12183SOL    HW137791   7.106   7.035   6.100 -0.3214 -0.3779  0.1660
12183SOL    HW237792   7.106   6.884   6.104  1.3097 -0.3709  1.0140
12184SOL     OW37793   1.290   2.299   0.252  0.3780 -0.2247  0.3682
12184SOL    HW137794   1.357   2.231   0.261  0.2875 -0.3328  0.2366
12184SOL    HW237795   1.298   2.352   0.332 -0.2718 -1.0415  0.9841
12185SOL     OW37796   0.048   5.670   5.997  0.2594  0.7668 -0.0445
12185SOL    HW137797   0.026   5.742   6.056 -0.7555  0.3434  0.1140
12185SOL    HW237798  -0.037   5.630   5.977  0.7911 -0.1921 -0.3747
12186SOL     OW37799   5.360   7.537   4.308  0.4057 -0.1338 -0.1286
12186SOL    HW137800   5.387   7.610   4.253 -1.3363  0.3103 -0.4322
12186SOL    HW237801   5.334   7.577   4.391  0.9405 -0.5721  0.2503
12187SOL     OW37802   1.347   5.476   0.797 -0.0196 -0.5452 -0.6107
12187SOL    HW137803   1.285   5.546   0.816 -0.4027 -1.1341  0.3391
12187SOL    HW237804   1.295   5.396   0.797  0.4779 -0.8795 -1.3318
12188SOL     OW37805   3.304   7.852   2.522  0.0021  0.0291 -0.1599
12188SOL    HW137806   3.310   7.892   2.435 -0.2228  0.9256  0.2333
12188SOL    HW237807   3.247   7.776   2.509 -0.9267  0.7841 -0.5698
12189SOL     OW37808   6.354   3.736   2.515 -0.5326 -0.1080 -0.4798
12189SOL    HW137809   6.416   3.761   2.583 -0.2457 -1.9043 -0.0830
12189SOL    HW237810   6.277   3.706   2.563 -1.1546  0.6580 -0.9720
12190SOL     OW37811   4.266   3.788   0.194  0.0050  0.5984  0.1438
12190SOL    HW137812   4.313   3.751   0.119  0.0475  0.2314  0.3507
12190SOL    HW237813   4.276   3.723   0.263 -1.0193  0.4098  0.1171
12191SOL     OW37814   5.738   5.572   6.120  0.1248 -0.0011  0.0400
12191SOL    HW137815   5.820   5.523   6.131 -0.9100 -1.4900  1.3936
12191SOL    HW237816   5.696   5.567   6.206 -1.0101  1.4687 -0.4093
12192SOL     OW37817   7.620   6.057   5.123 -0.0286 -0.0628  0.2169
12192SOL    HW137818   7.658   6.018   5.201  0.0765 -0.5508 -0.0816
12192SOL    HW237819   7.533   6.087   5.152 -1.0863 -2.6751 -0.1677
12193SOL     OW37820   7.656   0.455   4.425 -0.5582  0.2926  0.1157
12193SOL    HW137821   7.579   0.443   4.369 -0.4741  0.5889 -0.0653
12193SOL    HW237822   7.631   0.526   4.484 -0.4381  0.3614  0.0828
12194SOL     OW37823   6.175   3.833   2.259 -0.0799 -0.3008 -0.0306
12194SOL    HW137824   6.128   3.778   2.197 -1.4900  1.1822 -0.3441
12194SOL    HW237825   6.114   3.842   2.333 -0.8386  2.5691 -0.9225
12195SOL     OW37826   2.936   7.734   1.735  0.5626  0.0690  0.4849
12195SOL    HW137827   3.029   7.743   1.758  0.9064 -2.1839  0.0785
12195SOL    HW237828   2.902   7.671   1.798 -0.7188  0.9500  0.6810
12196SOL     OW37829   2.227   1.378   0.800 -0.2709 -0.6372 -0.1966
12196SOL    HW137830   2.143   1.373   0.846 -0.1488 -0.4976  0.0412
12196SOL    HW237831   2.258   1.467   0.815 -0.5748 -0.3635 -1.1635
12197SOL     OW37832   4.787   4.322   1.105  0.1868  0.7195  0.3787
12197SOL    HW137833   4.812   4.249   1.049 -1.1665  0.8628 -0.4236
12197SOL    HW237834   4.843   4.313   1.182  0.7496 -0.5593 -0.1688
12198SOL     OW37835   1.831   2.471   2.180  0.1034  0.5779  0.1675
12198SOL    HW137836   1.880   2.390   2.168  0.5755  1.2867 -3.2191
12198SOL    HW237837   1.739   2.446   2.169  0.1893  0.3580 -0.0546
12199SOL     OW37838   5.012   1.136   2.322 -0.1691 -0.4499 -0.1383
12199SOL    HW137839   4.939   1.149   2.382 -0.9884  1.2411 -1.4508
12199SOL    HW237840   5.084   1.185   2.361  0.1380 -1.6993  0.8981
12200SOL     OW37841   1.132   3.945   7.990  0.0989  0.4765  0.2885
12200SOL    HW137842   1.099   3.856   7.981  2.0945 -0.3464  0.7062
12200SOL    HW237843   1.064   4.001   7.953 -0.7042 -1.3094 -0.9635
12201SOL     OW37844   0.697   5.616   4.827  0.1742 -0.2233  0.4704
12201SOL    HW137845   0.713   5.591   4.736  0.4346 -1.8453  0.9623
12201SOL    HW237846   0.784   5.616   4.867 -0.0337 -0.2805  0.9182
12202SOL     OW37847   7.247   3.764   5.173 -0.1358  0.6893  0.1205
12202SOL    HW137848   7.244   3.855   5.202 -2.3670  0.7238 -0.1188
12202SOL    HW237849   7.172   3.755   5.116 -0.0370 -1.3646  0.2800
12203SOL     OW37850   7.466   0.464   5.085 -0.2895 -0.5353  0.0560
12203SOL    HW137851   7.536   0.529   5.098 -0.6808 -0.0425 -0.2929
12203SOL    HW237852   7.437   0.442   5.173  0.4512 -0.9037  0.2134
12204SOL     OW37853   3.694   0.555   1.521  0.2876  0.0173  0.1658
12204SOL    HW137854   3.751   0.605   1.464 -0.2904 -1.1182 -1.4530
12204SOL    HW237855   3.749   0.532   1.596  2.1683 -1.4901 -1.5894
12205SOL     OW37856   0.621   7.915   0.103  0.6856  0.4134  0.0403
12205SOL    HW137857   0.663   7.968   0.171  0.8619  0.3551 -0.0207
12205SOL    HW237858   0.684   7.916   0.031 -0.1468  1.6837 -0.6773
12206SOL     OW37859   0.634   7.554   6.451 -0.3130 -0.8784 -0.4551
12206SOL    HW137860   0.719   7.537   6.491 -0.5928 -0.6440  0.2473
12206SOL    HW237861   0.574   7.566   6.525 -0.8088 -0.2946 -0.9441
12207SOL     OW37862   7.885   7.910   1.072  0.0566  0.2449 -0.1797
12207SOL    HW137863   7.807   7.864   1.041  0.4323 -0.0849 -0.6547
12207SOL    HW237864   7.956   7.878   1.015  0.7970 -0.4837  1.1307
12208SOL     OW37865   2.338   7.630   1.363 -0.4635 -0.2034  0.1809
12208SOL    HW137866   2.282   7.571   1.312 -0.2155  0.9469 -1.4413
12208SOL    HW237867   2.420   7.633   1.314 -0.2263  0.9390  0.6503
12209SOL     OW37868   4.746   0.331   3.113  0.4203  0.1377  0.0320
12209SOL    HW137869   4.668   0.277   3.100  1.5554 -1.7787  0.8937
12209SOL    HW237870   4.727   0.381   3.193  0.0845 -0.3443  0.2581
12210SOL     OW37871   3.295   8.079   1.873 -0.1544 -0.1792 -0.1061
12210SOL    HW137872   3.385   8.092   1.902 -0.1819 -0.9353  0.3360
12210SOL    HW237873   3.294   7.990   1.837 -0.9594 -0.5610  0.8313
12211SOL     OW37874   0.901   4.914   1.477 -0.4203  0.2201  0.0569
12211SOL    HW137875   0.959   4.841   1.500 -0.2268  0.3757  0.0599
12211SOL    HW237876   0.813   4.876   1.481 -0.2382 -0.4220 -1.3995
12212SOL     OW37877   3.542   7.354   7.249 -0.2804  0.7440 -0.2933
12212SOL    HW137878   3.466   7.300   7.229 -1.4724  0.9580  3.2793
12212SOL    HW237879   3.584   7.310   7.323  0.6622  2.8760  0.4928
12213SOL     OW37880   7.363   4.884   7.684  0.8531  0.0559 -0.1836
12213SOL    HW137881   7.272   4.856   7.694  1.3194 -0.7922  1.9612
12213SOL    HW237882   7.378   4.946   7.755  1.5628  1.2546 -1.3525
12214SOL     OW37883   1.557   6.319   8.025  0.1437  0.5516  0.1890
12214SOL    HW137884   1.507   6.278   7.955  1.0062 -0.7953  0.3335
12214SOL    HW237885   1.636   6.353   7.982  0.7738 -0.4635  0.5349
12215SOL     OW37886   7.145   0.735   1.397 -0.6119 -0.3499 -0.2800
12215SOL    HW137887   7.062   0.760   1.357  0.3067  0.3588 -1.7932
12215SOL    HW237888   7.185   0.674   1.335  1.2057  1.3897 -0.8761
12216SOL     OW37889   0.880   0.180   4.236  0.6283 -0.0236 -0.0827
12216SOL    HW137890   0.900   0.089   4.217  2.0061  0.1051  0.6541
12216SOL    HW237891   0.850   0.216   4.153 -1.3187 -1.5001 -0.0410
12217SOL     OW37892   4.806   5.371   1.831  0.2213 -0.2108 -0.2554
12217SOL    HW137893   4.714   5.385   1.811  0.2428 -1.5241 -1.3512
12217SOL    HW237894   4.848   5.455   1.812 -0.3406 -0.3698 -2.3354
12218SOL     OW37895   5.026   3.585   0.864 -0.2516  0.0577 -0.0044
12218SOL    HW137896   5.009   3.504   0.816 -0.9375 -0.4750  1.1157
12218SOL    HW237897   5.103   3.565   0.918  0.6039  0.6993 -0.9499
12219SOL     OW37898   1.846   4.363   7.956  0.3532  0.0772  0.2136
12219SOL    HW137899   1.868   4.294   7.893 -2.4625  0.6441 -1.4749
12219SOL    HW237900   1.780   4.323   8.013  1.2600  0.2880  1.4264
12220SOL     OW37901   5.210   7.577   8.195  0.5470  0.5519 -0.3759
12220SOL    HW137902   5.122   7.604   8.169  0.5491  1.0392  0.1242
12220SOL    HW237903   5.196   7.507   8.259  0.5310  0.1343 -0.8354
12221SOL     OW37904   0.170   5.101   1.208 -0.2605  0.1118 -0.0038
12221SOL    HW137905   0.178   5.088   1.114  0.7372  1.8793 -0.1904
12221SOL    HW237906   0.260   5.104   1.239 -0.5041  2.2959  0.5828
12222SOL     OW37907   6.814   1.151   7.894 -0.2663  0.3459 -0.1624
12222SOL    HW137908   6.858   1.236   7.903 -0.6890  0.8930 -2.7857
12222SOL    HW237909   6.885   1.087   7.897  0.1574  0.8482  0.8583
12223SOL     OW37910   0.435   5.914   0.159  0.5794 -0.7480 -0.4134
12223SOL    HW137911   0.398   5.952   0.079 -0.0360  3.2290  1.6261
12223SOL    HW237912   0.359   5.875   0.203 -0.1783  2.2081  0.9639
12224SOL     OW37913   2.186   6.991   3.080 -0.3374 -0.0920 -0.3045
12224SOL    HW137914   2.222   6.951   3.159 -0.9664 -0.8691 -0.4106
12224SOL    HW237915   2.259   6.990   3.018  0.3215  1.0149  0.4295
12225SOL     OW37916   7.082   0.100   0.426 -0.0083 -0.3299 -0.3813
12225SOL    HW137917   6.990   0.117   0.446 -0.1143 -1.0290 -0.2537
12225SOL    HW237918   7.096   0.009   0.451  1.0405  0.1260  0.7424
12226SOL     OW37919   0.245   7.712   6.400  0.2710  0.5217  0.1740
12226SOL    HW137920   0.227   7.651   6.472 -1.3700 -0.6927 -1.2524
12226SOL    HW237921   0.202   7.793   6.427  1.5034  0.7341  1.5540
12227SOL     OW37922   1.012   5.033   3.716  0.2504  0.2329 -0.0124
12227SOL    HW137923   0.997   5.108   3.773 -0.1485 -0.2387  0.5092
12227SOL    HW237924   0.945   5.041   3.648  0.9896  1.0238 -0.6592
12228SOL     OW37925   6.697   0.064   1.176 -0.0702  0.3674  0.1740
12228SOL    HW137926   6.742   0.044   1.258  1.3259  0.1979 -0.6273
12228SOL    HW237927   6.766   0.088   1.115 -1.2192  1.9697 -0.5509
12229SOL     OW37928   6.419   5.765   8.257 -0.3078 -0.5244  0.1892
12229SOL    HW137929   6.326   5.789   8.258  0.0068  0.7507  1.9803
12229SOL    HW237930   6.420   5.670   8.266 -1.4548 -0.7255 -1.4411
12230SOL     OW37931   3.908   0.143   1.278  0.2361  0.0619 -0.5780
12230SOL    HW137932   3.898   0.048   1.289  0.2028 -0.1379 -2.2150
12230SOL    HW237933   3.990   0.153   1.229  0.2361  0.8839 -0.4167
12231SOL     OW37934   5.115   3.850   0.313  0.0827  0.0490 -0.7412
12231SOL    HW137935   5.042   3.905   0.343  0.6791  0.1528  0.5556
12231SOL    HW237936   5.137   3.885   0.226 -1.1009  0.3168 -0.9429
12232SOL     OW37937   7.585   5.764   0.753 -0.0311 -0.0369 -0.0100
12232SOL    HW137938   7.649   5.719   0.808 -1.3034 -1.6700  0.1724
12232SOL    HW237939   7.630   5.843   0.723  1.1132  0.2232  2.3239
12233SOL     OW37940   1.221   0.272   0.039  1.0448  0.2746  0.1197
12233SOL    HW137941   1.248   0.319  -0.040 -2.4232  1.7997 -0.2668
12233SOL    HW237942   1.206   0.340   0.104 -0.3980 -0.5776  0.7107
12234SOL     OW37943   5.375   6.338   1.613  0.5675  0.1063  0.3056
12234SOL    HW137944   5.450   6.378   1.569 -0.4944  2.4493  0.5439
12234SOL    HW237945   5.413   6.290   1.687  1.8731  0.7039  0.0311
12235SOL     OW37946   3.208   6.879   0.560  0.0283 -0.0793  0.0917
12235SOL    HW137947   3.291   6.924   0.541 -0.5792  1.5062  1.1070
12235SOL    HW237948   3.161   6.880   0.477  0.9064 -0.7602 -0.4313
12236SOL     OW37949   0.828   4.178   2.555  0.2416 -0.2180 -0.0120
12236SOL    HW137950   0.899   4.171   2.492 -0.5123 -1.2055 -0.7606
12236SOL    HW237951   0.753   4.136   2.513 -0.2918 -0.8572  1.5046
12237SOL     OW37952   5.769   6.328   4.986 -0.4212  0.3216  0.0286
12237SOL    HW137953   5.717   6.387   5.040 -0.4021  1.0128 -0.6978
12237SOL    HW237954   5.803   6.383   4.915 -0.5852 -0.6041 -0.7959
12238SOL     OW37955   4.785   1.159   3.492  0.1163 -0.3910 -0.1875
12238SOL    HW137956   4.757   1.170   3.401 -1.2736  2.3676  0.5155
12238SOL    HW237957   4.731   1.087   3.525 -1.3924  0.4457 -0.7750
12239SOL     OW37958   7.827   5.793   6.512 -0.1459 -0.2819  0.2053
12239SOL    HW137959   7.737   5.813   6.537 -0.0615 -2.1013  2.1052
12239SOL    HW237960   7.848   5.712   6.559  2.6101  0.3265  0.1273
12240SOL     OW37961   1.643   5.848   6.768  0.5659 -0.1637 -0.1797
12240SOL    HW137962   1.680   5.812   6.848 -1.6133 -0.0917  0.8757
12240SOL    HW237963   1.651   5.943   6.777  0.1643 -0.1495  0.0365
12241SOL     OW37964   2.581   6.398   4.001  0.2651  0.0726  0.0311
12241SOL    HW137965   2.618   6.458   3.935 -0.9855 -0.4365 -1.1536
12241SOL    HW237966   2.571   6.452   4.079 -1.1744  1.5475 -1.1221
12242SOL     OW37967   3.955   0.287   7.340 -0.2773  0.3971 -0.3683
12242SOL    HW137968   4.025   0.221   7.345  1.4327  2.3195  2.6739
12242SOL    HW237969   3.979   0.342   7.266  1.0939  0.6033  0.2024
12243SOL     OW37970   1.504   0.045   4.982 -0.1147 -0.2616 -0.3819
12243SOL    HW137971   1.444  -0.025   4.955 -0.4847  0.8095 -2.4753
12243SOL    HW237972   1.452   0.102   5.037  0.2581 -1.7394  1.5604
12244SOL     OW37973   4.139   3.479   7.093 -0.2345 -0.6376  0.4194
12244SOL    HW137974   4.114   3.472   7.001 -0.3638 -0.7502  0.4635
12244SOL    HW237975   4.225   3.438   7.098  0.4280  0.6747  0.0621
12245SOL     OW37976   0.016   2.270   4.356 -0.2711  0.1125  0.0815
12245SOL    HW137977   0.108   2.280   4.379  0.1855 -0.1858 -1.5195
12245SOL    HW237978   0.017   2.215   4.277 -1.8335 -0.1712  0.2488
12246SOL     OW37979   5.505   1.793   6.860 -0.1219  0.4105  0.4152
12246SOL    HW137980   5.562   1.798   6.784 -1.0639 -0.3109 -0.3511
12246SOL    HW237981   5.550   1.844   6.927  0.5408  1.3474 -0.7287
12247SOL     OW37982   4.071   4.431   1.743  0.2136  0.1828  0.2134
12247SOL    HW137983   4.017   4.507   1.765 -1.6660 -1.5405  1.7939
12247SOL    HW237984   4.057   4.419   1.649 -1.8768  0.0213  0.5147
12248SOL     OW37985   3.080   4.521   8.025  0.3415 -0.0744  0.2760
12248SOL    HW137986   3.030   4.602   8.035  0.2539 -0.0490 -0.3911
12248SOL    HW237987   3.037   4.474   7.954  0.3234 -0.7638  0.7415
12249SOL     OW37988   3.359   1.566   5.280 -0.2758 -0.0323  0.0881
12249SOL    HW137989   3.409   1.533   5.205 -0.7493 -1.2734  0.2927
12249SOL    HW237990   3.425   1.601   5.339  0.2203 -0.2436 -0.3338
12250SOL     OW37991   1.945   2.228   5.744  0.1503  0.0084 -0.0916
12250SOL    HW137992   2.015   2.206   5.806  0.4567  0.2608 -0.3398
12250SOL    HW237993   1.944   2.156   5.682 -1.3838 -1.1384  1.2358
12251SOL     OW37994   3.879   6.996   7.230  0.3997 -0.5053 -0.6055
12251SOL    HW137995   3.889   6.901   7.229  2.5267 -0.3370  0.7186
12251SOL    HW237996   3.842   7.015   7.316  3.2644  0.0744  0.5828
12252SOL     OW37997   0.931   5.218   7.429  0.3718 -0.1130  0.3158
12252SOL    HW137998   0.909   5.311   7.432  0.7384  0.0525 -1.4558
12252SOL    HW237999   0.846   5.174   7.424  0.2622  0.2436 -1.0462
12253SOL     OW38000   1.957   7.372   2.534 -0.0990 -0.1495 -0.3922
12253SOL    HW138001   1.873   7.416   2.528 -1.6203 -2.6041  1.7584
12253SOL    HW238002   2.006   7.422   2.600  0.0586  1.1370 -1.4677
12254SOL     OW38003   2.560   1.340   6.407  0.3125  0.2442 -0.3146
12254SOL    HW138004   2.520   1.283   6.472 -1.7384 -0.9911 -2.6003
12254SOL    HW238005   2.504   1.418   6.404  0.6495  0.4933 -0.3073
12255SOL     OW38006   8.151   5.537   2.373 -0.2731 -0.3383  0.3492
12255SOL    HW138007   8.168   5.614   2.318  0.7635 -1.5744 -1.0836
12255SOL    HW238008   8.080   5.491   2.327  1.0408 -1.7149 -0.3208
12256SOL     OW38009   2.116   6.806   0.525 -0.2927 -0.4218 -0.0314
12256SOL    HW138010   2.065   6.857   0.462 -0.4600 -0.7538 -0.1656
12256SOL    HW238011   2.105   6.715   0.497  0.1831 -0.5143  0.0772
12257SOL     OW38012   7.083   1.449   8.177 -0.3131 -0.5728  0.0003
12257SOL    HW138013   7.096   1.537   8.141 -0.5508 -0.0768  1.0932
12257SOL    HW238014   7.083   1.462   8.272 -1.0444 -1.6479  0.1599
12258SOL     OW38015   5.698   7.087   5.609 -0.2559 -0.3827  0.9785
12258SOL    HW138016   5.745   7.147   5.551  0.4333  0.6077  2.5139
12258SOL    HW238017   5.754   7.009   5.614 -0.9167 -0.9687 -0.6438
12259SOL     OW38018   0.258   2.572   2.743  0.1495  0.8442 -0.3457
12259SOL    HW138019   0.336   2.626   2.725  1.3787 -1.0113 -0.7186
12259SOL    HW238020   0.228   2.545   2.656  0.1024  0.1515 -0.1123
12260SOL     OW38021   0.150   7.966   2.763  0.1742  0.2166  0.3004
12260SOL    HW138022   0.076   8.014   2.801 -0.1945 -0.1210  0.0176
12260SOL    HW238023   0.164   7.892   2.822 -0.7667 -0.6267 -0.5103
12261SOL     OW38024   7.309   6.367   6.462 -0.0643  0.6736 -0.5322
12261SOL    HW138025   7.386   6.312   6.462 -0.0296  0.7151 -0.9997
12261SOL    HW238026   7.235   6.306   6.467 -0.1134  0.4102 -3.3319
12262SOL     OW38027   7.981   6.859   4.549  0.4328 -0.2829 -0.1641
12262SOL    HW138028   7.890   6.865   4.576  0.6655 -0.2271  0.6363
12262SOL    HW238029   7.982   6.889   4.458 -0.0655  1.4877  0.4081
12263SOL     OW38030   0.345   6.129   0.028 -0.1973 -0.8672  0.2222
12263SOL    HW138031   0.256   6.107  -0.002 -0.3569  0.1668 -0.1012
12263SOL    HW238032   0.333   6.160   0.117  0.0502 -2.2289  0.7429
12264SOL     OW38033   4.863   3.748   3.988  0.4444  0.0292  0.3704
12264SOL    HW138034   4.925   3.785   3.926  0.8636 -1.6697 -0.2444
12264SOL    HW238035   4.779   3.750   3.943  0.1272  1.7692  0.9797
12265SOL     OW38036   1.570   6.760   6.355  0.0417 -0.8511  0.4703
12265SOL    HW138037   1.563   6.815   6.277  2.4391 -0.3132  0.6065
12265SOL    HW238038   1.563   6.670   6.322 -3.2827 -0.5278  0.1776
12266SOL     OW38039   4.921   0.431   2.312  0.8308 -0.0476  0.0289
12266SOL    HW138040   4.972   0.357   2.278  2.2290  0.8054  0.2335
12266SOL    HW238041   4.961   0.451   2.396 -0.2448  0.2508  0.4747
12267SOL     OW38042   7.876   2.382   2.708 -0.2370 -0.1484 -0.6463
12267SOL    HW138043   7.883   2.286   2.705 -0.9148 -0.2509  0.7974
12267SOL    HW238044   7.792   2.399   2.751 -0.2739  1.0984 -1.1994
12268SOL     OW38045   7.028   8.069   4.216 -0.1702  0.4307  0.0054
12268SOL    HW138046   7.056   8.008   4.148  0.7618 -1.2277  1.8369
12268SOL    HW238047   7.044   8.156   4.178  1.7081 -0.4703 -1.3322
12269SOL     OW38048   6.190   6.785   0.533 -0.3524  0.8185  0.1765
12269SOL    HW138049   6.262   6.732   0.569 -0.8238  0.9325  1.3185
12269SOL    HW238050   6.174   6.748   0.447  1.3079  1.0070 -0.2292
12270SOL     OW38051   1.544   4.799   1.048 -0.3276  0.0057  0.2424
12270SOL    HW138052   1.559   4.787   0.954  1.3063  2.1408  0.2033
12270SOL    HW238053   1.626   4.775   1.090 -0.3750  1.0218  0.9514
12271SOL     OW38054   4.446   0.094   7.373 -0.0836 -0.5151  0.1586
12271SOL    HW138055   4.471   0.148   7.448 -0.7620 -0.0215  0.0320
12271SOL    HW238056   4.523   0.097   7.316  0.8425 -1.7650  1.3016
12272SOL     OW38057   3.839   0.231   6.013  0.4830  0.6969  0.0782
12272SOL    HW138058   3.756   0.202   5.977  0.5701  1.6384 -0.9185
12272SOL    HW238059   3.869   0.299   5.953  2.7500 -0.7244 -0.4642
12273SOL     OW38060   2.447   4.094   4.566  0.0913  0.1575 -0.2787
12273SOL    HW138061   2.369   4.058   4.523  1.0770 -1.6393 -0.6196
12273SOL    HW238062   2.489   4.018   4.607  2.0072  0.9709 -0.6728
12274SOL     OW38063   7.722   1.567   0.250  0.8343 -0.0630 -0.3489
12274SOL    HW138064   7.769   1.487   0.274  1.0813  0.3358  0.5075
12274SOL    HW238065   7.768   1.637   0.295 -1.9537  0.0923  2.4194
12275SOL     OW38066   7.805   6.047   3.001  0.3703 -0.0388 -0.5090
12275SOL    HW138067   7.816   6.137   3.030  1.5773 -0.7816  1.4745
12275SOL    HW238068   7.762   6.003   3.075 -0.1382 -1.0901 -1.4245
12276SOL     OW38069   7.477   1.810   7.969  0.3043 -0.4125  0.3708
12276SOL    HW138070   7.506   1.816   8.060  1.2108 -3.1517  0.3234
12276SOL    HW238071   7.385   1.785   7.974 -0.1379  1.2140  0.5199
12277SOL     OW38072   4.829   4.252   3.639  0.0834 -0.4596  0.5722
12277SOL    HW138073   4.779   4.181   3.678  0.7358 -1.7459 -0.8827
12277SOL    HW238074   4.901   4.268   3.701  0.4838 -1.7187  0.4375
12278SOL     OW38075   3.085   0.921   2.476  0.0500 -0.1997  0.9014
12278SOL    HW138076   3.149   0.868   2.523 -0.8453  0.3688  2.8260
12278SOL    HW238077   3.021   0.946   2.543 -0.5542  1.7313 -0.3445
12279SOL     OW38078   5.910   0.198   2.646  0.7314 -0.8106 -0.3431
12279SOL    HW138079   5.903   0.227   2.555 -0.9122  0.7261  0.2448
12279SOL    HW238080   5.883   0.274   2.697  2.5592 -1.3392  1.4768
12280SOL     OW38081   5.810   1.405   6.496  0.4135  0.1160  0.3158
12280SOL    HW138082   5.733   1.443   6.537  0.3007  0.3505 -0.1140
12280SOL    HW238083   5.853   1.356   6.567 -0.2803 -0.2564  0.4872
12281SOL     OW38084   6.094   4.375   2.725 -0.1041  0.1394 -0.3901
12281SOL    HW138085   6.085   4.374   2.820  1.1149 -0.7346 -0.2765
12281SOL    HW238086   6.011   4.410   2.693 -0.3589  0.8416  1.0132
12282SOL     OW38087   3.625   3.932   0.444  0.3521  0.4203  0.1091
12282SOL    HW138088   3.689   3.966   0.381 -0.1708 -0.4395 -0.9077
12282SOL    HW238089   3.568   3.875   0.392 -0.0147 -0.4080  1.3948
12283SOL     OW38090   3.365   3.513   2.611  0.0483 -0.0738 -0.0892
12283SOL    HW138091   3.348   3.529   2.518 -1.9671 -0.4052  0.2041
12283SOL    HW238092   3.420   3.587   2.638  0.1513  0.3450 -1.4032
12284SOL     OW38093   3.127   8.006   1.172 -0.3098 -0.1613  0.1980
12284SOL    HW138094   3.148   8.056   1.093  1.4282  0.3296  0.9346
12284SOL    HW238095   3.212   7.976   1.204 -1.1525 -1.8566  0.9155
12285SOL     OW38096   1.708   5.258   2.145  0.0936 -0.1906  0.4864
12285SOL    HW138097   1.693   5.179   2.094  0.8802  0.7536 -1.2729
12285SOL    HW238098   1.794   5.246   2.184  0.4471 -0.0072 -0.2141
12286SOL     OW38099   5.712   1.273   0.477  0.3220  0.0427  0.8354
12286SOL    HW138100   5.689   1.363   0.453  1.3749  0.3369  0.8797
12286SOL    HW238101   5.642   1.245   0.537  1.3142  1.7554  2.8839
12287SOL     OW38102   6.032   2.994   4.870  1.0128  0.1127  0.4616
12287SOL    HW138103   6.092   2.925   4.842  0.5209 -0.2906  0.3992
12287SOL    HW238104   5.950   2.949   4.888  0.3600  0.8329 -0.6338
12288SOL     OW38105   2.183   1.196   2.346  0.3686 -0.0476 -0.3767
12288SOL    HW138106   2.141   1.277   2.377  2.1631  1.1461 -0.9899
12288SOL    HW238107   2.117   1.157   2.288 -0.6361  0.8122  0.1536
12289SOL     OW38108   5.865   6.421   3.709  0.4857  0.6669  0.2517
12289SOL    HW138109   5.917   6.392   3.785 -0.3505 -2.2764 -0.2482
12289SOL    HW238110   5.865   6.346   3.650 -1.0154  2.0463 -1.5540
12290SOL     OW38111   5.942   4.297   1.479  0.8962 -0.0774  0.0947
12290SOL    HW138112   5.853   4.319   1.507  1.2953  1.4302  0.2083
12290SOL    HW238113   5.941   4.308   1.384  0.9211 -0.2304  0.0762
12291SOL     OW38114   2.744   3.524   6.156  0.0531 -0.3314 -0.2041
12291SOL    HW138115   2.728   3.584   6.229  0.8707 -0.7829  0.3542
12291SOL    HW238116   2.804   3.571   6.099  1.5707 -1.0291  0.7859
12292SOL     OW38117   3.045   6.141   1.688  0.0923 -0.2444  0.7591
12292SOL    HW138118   3.040   6.212   1.752 -0.5191  0.0017  0.4403
12292SOL    HW238119   3.075   6.182   1.607 -2.5509  0.1217 -0.0917
12293SOL     OW38120   0.236   0.222   5.183 -0.0668  0.1487 -0.6724
12293SOL    HW138121   0.172   0.270   5.235 -0.0045 -0.1575 -0.3110
12293SOL    HW238122   0.186   0.185   5.111 -0.7927 -2.2568  1.0127
12294SOL     OW38123   3.174   2.132   0.371 -0.2928 -0.3390  0.6516
12294SOL    HW138124   3.145   2.041   0.365 -1.0073 -0.1616  1.2347
12294SOL    HW238125   3.093   2.181   0.388  0.0402  0.4398  0.0436
12295SOL     OW38126   4.828   7.874   0.712  0.1472  0.3940 -0.2351
12295SOL    HW138127   4.738   7.909   0.714  0.0335  0.0625  0.6312
12295SOL    HW238128   4.875   7.926   0.778  0.3805 -0.0029 -0.0883
12296SOL     OW38129   1.646   2.039   8.215  0.1455  0.3986 -0.4158
12296SOL    HW138130   1.684   1.952   8.215  0.5884  0.5938 -0.0150
12296SOL    HW238131   1.707   2.092   8.164 -1.8860 -0.2980 -3.7191
12297SOL     OW38132   7.421   3.519   1.173 -0.0512  0.4737 -0.5039
12297SOL    HW138133   7.470   3.446   1.135  1.4705  1.4602 -0.5176
12297SOL    HW238134   7.445   3.517   1.266  0.7250  1.4859 -0.6689
12298SOL     OW38135   1.041   3.094   5.938  0.2146  0.1394  0.5545
12298SOL    HW138136   1.007   3.182   5.954 -1.6169 -0.5956  0.7457
12298SOL    HW238137   1.001   3.040   6.006 -0.2782 -1.2262 -0.7945
12299SOL     OW38138   5.856   2.313   1.070  0.3232 -0.3943  0.2098
12299SOL    HW138139   5.862   2.323   1.165 -0.4485  1.7004  0.0739
12299SOL    HW238140   5.947   2.316   1.040  0.4346  2.1106  0.6418
12300SOL     OW38141   1.548   1.294   1.544  0.5422 -0.3597 -0.1278
12300SOL    HW138142   1.575   1.265   1.631  1.3542  0.2188 -0.1766
12300SOL    HW238143   1.551   1.216   1.490  1.5857 -0.4187  0.0027
12301SOL     OW38144   2.873   0.843   3.792  0.0817  0.4528  0.0182
12301SOL    HW138145   2.908   0.764   3.832 -1.5633 -0.2598  0.1055
12301SOL    HW238146   2.943   0.908   3.800  0.5342 -0.2757  2.1540
12302SOL     OW38147   0.235   2.086   4.600 -0.2666 -0.2385 -0.0532
12302SOL    HW138148   0.242   1.991   4.593 -1.2464 -0.2493 -1.1700
12302SOL    HW238149   0.326   2.116   4.608  0.0397 -1.2686  0.4543
12303SOL     OW38150   3.937   2.169   6.929 -0.2198 -0.3671  0.1457
12303SOL    HW138151   3.955   2.241   6.989  0.7509 -0.2760 -0.2425
12303SOL    HW238152   3.897   2.211   6.853  0.2883 -0.2340 -0.0545
12304SOL     OW38153   6.945   8.118   1.276  0.0592  0.1018 -0.2682
12304SOL    HW138154   6.984   8.039   1.314 -0.3621  0.5050  1.0252
12304SOL    HW238155   7.015   8.155   1.222  1.7834  1.1800  2.5375
12305SOL     OW38156   1.071   8.088   7.800  0.1193  0.0384 -0.3904
12305SOL    HW138157   1.134   8.156   7.776 -1.0381  0.6829 -1.7110
12305SOL    HW238158   1.015   8.128   7.866  0.9316 -0.4641  0.6241
12306SOL     OW38159   5.448   4.335   2.259  0.5245 -0.4672 -0.6912
12306SOL    HW138160   5.535   4.294   2.255  0.8686  0.0935  0.8079
12306SOL    HW238161   5.413   4.326   2.170  2.4915  0.1139 -1.5467
12307SOL     OW38162   3.956   2.197   5.605 -0.8010 -0.2476  0.6097
12307SOL    HW138163   3.864   2.222   5.617 -0.4285  0.7124  1.4183
12307SOL    HW238164   3.963   2.112   5.649 -1.7299 -1.2128 -1.0059
12308SOL     OW38165   3.157   3.931   2.686 -0.2133  0.3048 -0.8604
12308SOL    HW138166   3.196   3.971   2.608  0.1133  0.0672 -0.8180
12308SOL    HW238167   3.064   3.922   2.664  0.4209 -2.8060 -2.5051
12309SOL     OW38168   4.071   8.108   6.890  0.8621  0.1840  0.0388
12309SOL    HW138169   4.100   8.159   6.965 -1.4325 -0.6339  1.5448
12309SOL    HW238170   4.030   8.172   6.831  1.1277  0.5755  0.2789
12310SOL     OW38171   8.222   7.788   6.265  0.0290 -0.0105 -0.0101
12310SOL    HW138172   8.288   7.803   6.197  0.0059 -1.4512 -0.3632
12310SOL    HW238173   8.184   7.702   6.244 -1.4420  0.4596  0.6184
12311SOL     OW38174   0.496   2.593   4.748 -0.1313 -0.1414  0.0955
12311SOL    HW138175   0.450   2.667   4.710  0.5252 -1.2653 -3.0023
12311SOL    HW238176   0.576   2.631   4.786 -0.2794  0.8516 -0.5902
12312SOL     OW38177   5.299   5.190   3.204  0.2686  0.4562  0.0276
12312SOL    HW138178   5.366   5.124   3.221 -0.5058 -0.0604  1.0954
12312SOL    HW238179   5.216   5.144   3.213 -0.2897  1.6193  1.0739
12313SOL     OW38180   0.429   7.799   3.591  0.8132 -0.2722  0.0800
12313SOL    HW138181   0.362   7.822   3.527  1.4367 -1.4413 -1.0187
12313SOL    HW238182   0.479   7.729   3.549 -0.0295 -2.4780  2.6398
12314SOL     OW38183   6.493   0.882   3.625  0.1948 -0.6589 -0.6361
12314SOL    HW138184   6.512   0.907   3.535  2.7084  1.6836  0.4590
12314SOL    HW238185   6.447   0.958   3.661  0.1660 -1.1451  0.3634
12315SOL     OW38186   7.356   6.721   0.938  0.2196  0.2872  0.7434
12315SOL    HW138187   7.396   6.638   0.964 -0.2451  0.2454  1.3254
12315SOL    HW238188   7.262   6.707   0.947 -0.0572 -0.2771 -2.5788
12316SOL     OW38189   1.900   3.487   8.288  0.2294 -0.3161 -0.4152
12316SOL    HW138190   1.856   3.486   8.373 -0.6499 -1.9077 -0.8830
12316SOL    HW238191   1.884   3.575   8.254 -2.5982 -0.8546 -0.5712
12317SOL     OW38192   1.413   6.671   3.619  0.4015 -0.4692  0.1517
12317SOL    HW138193   1.439   6.644   3.707  1.0028 -1.2976 -0.2728
12317SOL    HW238194   1.326   6.632   3.607 -0.3674  0.9360  0.9502
12318SOL     OW38195   4.098   6.218   3.596  0.2324 -0.2575  0.5244
12318SOL    HW138196   4.140   6.249   3.515  0.1156 -1.5451 -0.0365
12318SOL    HW238197   4.071   6.298   3.640 -0.8838  0.4262 -1.3369
12319SOL     OW38198   4.203   4.562   3.413  0.1988 -0.2331  0.3295
12319SOL    HW138199   4.235   4.555   3.323  1.3606 -0.7594  0.7801
12319SOL    HW238200   4.193   4.656   3.427 -0.2137 -0.1559 -0.4147
12320SOL     OW38201   3.841   6.092   0.997 -0.2923 -0.3426  0.4406
12320SOL    HW138202   3.803   6.103   1.084 -1.3062 -0.0827 -0.0220
12320SOL    HW238203   3.855   5.998   0.988 -2.8118 -0.7096 -0.1663
12321SOL     OW38204   4.435   4.594   6.105  0.2822  0.5763  0.5908
12321SOL    HW138205   4.470   4.628   6.187 -0.5620  2.8523  0.0469
12321SOL    HW238206   4.511   4.556   6.060  1.6934  3.5073  0.3808
12322SOL     OW38207   7.592   6.230   4.420 -0.1465 -0.0312  0.7721
12322SOL    HW138208   7.653   6.201   4.488  0.4054 -0.5568  0.0535
12322SOL    HW238209   7.645   6.236   4.341 -1.0602 -0.6539  0.1058
12323SOL     OW38210   7.902   6.704   7.112 -0.1610 -0.1322  0.1684
12323SOL    HW138211   7.913   6.756   7.192  0.7981 -1.9401  1.2498
12323SOL    HW238212   7.989   6.700   7.074  0.0601 -1.9671  0.7840
12324SOL     OW38213   7.042   2.804   4.096  0.1321  0.1783 -0.4391
12324SOL    HW138214   7.093   2.793   4.176  0.0433 -1.0835 -0.5559
12324SOL    HW238215   7.078   2.739   4.035 -2.2419 -1.3862 -0.2160
12325SOL     OW38216   6.736   1.631   1.065  0.3517 -0.3619 -0.1118
12325SOL    HW138217   6.803   1.585   1.015  1.2302  0.3272  0.4201
12325SOL    HW238218   6.711   1.704   1.010  0.9778  0.1239  0.2404
12326SOL     OW38219   7.854   5.556   6.664 -0.1082  0.3810 -0.0235
12326SOL    HW138220   7.848   5.578   6.757  1.4438  0.6746  0.0271
12326SOL    HW238221   7.804   5.475   6.655  2.0786 -1.2208  1.6228
12327SOL     OW38222   0.187   0.286   7.545 -0.0697 -0.2084  0.1632
12327SOL    HW138223   0.248   0.279   7.618 -0.6128 -1.3921  0.5080
12327SOL    HW238224   0.219   0.222   7.481  0.4532  0.8787 -0.6857
12328SOL     OW38225   0.417   1.379   7.901 -0.3150 -0.4533 -0.1859
12328SOL    HW138226   0.342   1.435   7.881  1.5837  2.1302 -0.4561
12328SOL    HW238227   0.412   1.364   7.995 -1.9023 -1.4304 -0.4226
12329SOL     OW38228   8.040   3.262   8.239  0.0899 -0.1875  0.5655
12329SOL    HW138229   8.042   3.333   8.303 -0.7605 -1.4833  2.0562
12329SOL    HW238230   8.006   3.186   8.287 -0.5599 -1.1961 -1.4122
12330SOL     OW38231   8.178   7.209   2.812  0.0977 -0.0069  0.3641
12330SOL    HW138232   8.188   7.117   2.789  0.2641 -0.1405  0.9728
12330SOL    HW238233   8.106   7.211   2.874  1.4285  0.0162  1.9439
12331SOL     OW38234   7.330   4.098   2.842 -0.6663  0.0770 -0.1944
12331SOL    HW138235   7.375   4.102   2.926 -0.8732 -1.9755  0.0468
12331SOL    HW238236   7.400   4.088   2.778 -0.5859  0.3072 -0.1425
12332SOL     OW38237   1.742   0.051   7.579 -0.2724  0.1539 -0.2881
12332SOL    HW138238   1.804  -0.020   7.564 -1.2296 -0.8795  0.6007
12332SOL    HW238239   1.793   0.131   7.564  1.2229 -0.6881  0.2511
12333SOL     OW38240   5.324   4.334   6.425 -0.1306  0.2382 -0.1193
12333SOL    HW138241   5.247   4.347   6.481  0.1898 -0.7103  0.5515
12333SOL    HW238242   5.318   4.404   6.360  0.2282  2.2316  1.9237
12334SOL     OW38243   3.255   6.245   2.061  0.0872 -0.3312  0.0846
12334SOL    HW138244   3.312   6.182   2.018  0.0488 -0.4116  0.1503
12334SOL    HW238245   3.168   6.206   2.057  0.0735 -0.3117  0.1785
12335SOL     OW38246   5.015   1.166   1.667 -0.1393  0.4938  0.1114
12335SOL    HW138247   4.922   1.168   1.690 -0.2931 -1.7622 -0.2017
12335SOL    HW238248   5.015   1.161   1.571  0.1658 -3.4954  0.2443
12336SOL     OW38249   1.612   6.153   1.885  0.0480  0.6159  0.3987
12336SOL    HW138250   1.672   6.189   1.819 -0.5524  0.3475 -0.3039
12336SOL    HW238251   1.670   6.114   1.951  0.6589 -0.0126 -0.4869
12337SOL     OW38252   7.293   5.739   3.911  0.1445 -0.6256 -0.1451
12337SOL    HW138253   7.220   5.727   3.850 -0.8365  1.2439  0.6224
12337SOL    HW238254   7.360   5.679   3.880 -0.2999  0.3384 -3.1004
12338SOL     OW38255   1.807   7.362   3.188  0.2240 -0.3516 -0.1402
12338SOL    HW138256   1.829   7.437   3.134  0.5720 -0.5799 -0.3197
12338SOL    HW238257   1.711   7.357   3.185  0.1504  0.6142  0.6063
12339SOL     OW38258   3.220   3.110   4.420 -0.5341 -0.5600 -0.3522
12339SOL    HW138259   3.201   3.164   4.343  0.4299 -0.7144 -0.7032
12339SOL    HW238260   3.185   3.024   4.398  0.7991 -0.9160 -1.1083
12340SOL     OW38261   5.466   6.488   7.192 -0.5669  0.3969 -0.4508
12340SOL    HW138262   5.521   6.565   7.206 -0.7357  0.1555  1.6280
12340SOL    HW238263   5.490   6.428   7.262 -1.1571 -1.0482 -1.4542
12341SOL     OW38264   5.901   5.361   3.338  0.2558 -0.7411  0.6693
12341SOL    HW138265   5.828   5.302   3.323 -1.6737  1.4795  0.9605
12341SOL    HW238266   5.932   5.383   3.250  0.4065 -1.5045  0.5328
12342SOL     OW38267   4.781   5.855   2.769  0.0695 -0.0712 -0.6285
12342SOL    HW138268   4.808   5.775   2.814  0.8061 -0.3017 -1.4723
12342SOL    HW238269   4.793   5.836   2.676 -0.4893  0.7493 -0.8744
12343SOL     OW38270   6.574   7.686   7.146  0.3923  0.1325  0.0348
12343SOL    HW138271   6.517   7.734   7.206  0.0225 -1.1061  0.6840
12343SOL    HW238272   6.602   7.751   7.082 -0.2949  1.1574  0.7716
12344SOL     OW38273   4.128   0.050   2.524  0.2451 -0.3964 -0.8727
12344SOL    HW138274   4.068   0.108   2.572  0.6413  0.2603 -1.1581
12344SOL    HW238275   4.077  -0.030   2.509  0.8434 -1.5789  2.6962
12345SOL     OW38276   5.493   7.348   0.074  0.1673  1.0767 -0.1545
12345SOL    HW138277   5.515   7.267   0.120  1.1723  1.2411 -0.3234
12345SOL    HW238278   5.467   7.409   0.143  0.2841  0.8878  0.0554
12346SOL     OW38279   2.942   1.863   4.778  0.7238  0.6455  0.0615
12346SOL    HW138280   2.872   1.805   4.749 -0.0290  1.0737  0.9928
12346SOL    HW238281   2.983   1.894   4.697 -0.6655  1.0035 -0.5072
12347SOL     OW38282   8.185   3.745   7.700  0.5368  0.1281  0.6021
12347SOL    HW138283   8.185   3.839   7.685  0.2989  0.3998  2.2375
12347SOL    HW238284   8.106   3.713   7.654 -0.3366  0.9643  1.5118
12348SOL     OW38285   2.751   0.746   4.099  0.1187  0.3958 -0.0142
12348SOL    HW138286   2.842   0.767   4.078 -0.3501  0.2112 -2.3793
12348SOL    HW238287   2.714   0.828   4.132  1.0381  0.5633  0.5917
12349SOL     OW38288   2.437   3.824   2.449  0.0809 -0.4862  0.1284
12349SOL    HW138289   2.408   3.807   2.539 -3.3872 -0.7031 -0.9541
12349SOL    HW238290   2.385   3.764   2.396  2.1951 -0.4615 -2.0641
12350SOL     OW38291   0.890   2.063   4.174  0.0100  0.4148  0.1724
12350SOL    HW138292   0.796   2.050   4.160  0.1624  1.0708 -1.5866
12350SOL    HW238293   0.896   2.143   4.227 -0.4204  0.4704  0.1364
12351SOL     OW38294   3.684   3.561   7.731  0.0687 -0.5576 -0.1794
12351SOL    HW138295   3.701   3.473   7.699  2.8720 -0.3035  0.5178
12351SOL    HW238296   3.700   3.617   7.655 -0.1911 -0.5298 -0.2128
12352SOL     OW38297   5.240   3.949   2.938  0.1457  0.0325  0.3458
12352SOL    HW138298   5.280   3.904   2.863 -1.1733  0.2680 -0.5250
12352SOL    HW238299   5.291   4.030   2.946  2.5107 -1.5456  1.9043
12353SOL     OW38300   2.866   2.419   3.195  0.1623  0.3381  0.1839
12353SOL    HW138301   2.916   2.466   3.128  1.5573 -0.4979  0.6317
12353SOL    HW238302   2.839   2.487   3.257  0.8183  0.7757 -0.0066
12354SOL     OW38303   5.387   2.031   7.255  0.4587  0.1795  0.2490
12354SOL    HW138304   5.449   2.102   7.241  2.0756 -1.2838 -0.2951
12354SOL    HW238305   5.337   2.057   7.333  0.5365  2.2008 -0.3662
12355SOL     OW38306   7.753   6.944   8.103  0.0202  0.3219  0.4538
12355SOL    HW138307   7.704   6.862   8.098  1.0370 -0.3362  0.9498
12355SOL    HW238308   7.695   7.005   8.148  0.0657 -0.7687  2.0311
12356SOL     OW38309   6.020   1.926   1.306  0.2251 -0.0353  0.1300
12356SOL    HW138310   6.062   1.999   1.261 -1.5309 -0.0013 -1.5639
12356SOL    HW238311   5.926   1.943   1.296 -0.2819 -3.3234 -1.7637
12357SOL     OW38312   0.158   1.989   7.872  0.1189 -0.3090  0.6272
12357SOL    HW138313   0.142   1.982   7.966 -1.6714  0.7086  0.4296
12357SOL    HW238314   0.160   2.083   7.855 -1.6329 -0.4634 -0.6449
12358SOL     OW38315   3.308   7.100   4.317 -0.3162  0.3187  0.6609
12358SOL    HW138316   3.353   7.067   4.239 -0.2866 -3.8250  2.2917
12358SOL    HW238317   3.378   7.128   4.376 -0.0647 -1.3865  1.1967
12359SOL     OW38318   6.888   5.678   7.294  0.3023 -0.0255 -0.1989
12359SOL    HW138319   6.808   5.626   7.302  0.4043 -0.2283 -0.4846
12359SOL    HW238320   6.875   5.751   7.354  0.3773 -0.6485  0.5754
12360SOL     OW38321   3.019   2.587   4.694 -0.0710  0.0542 -0.1773
12360SOL    HW138322   2.951   2.644   4.659 -0.3199  0.0568  0.3112
12360SOL    HW238323   3.050   2.538   4.618 -0.0803  0.6039 -0.5435
12361SOL     OW38324   7.827   1.657   6.617 -0.2438 -0.1950  0.0431
12361SOL    HW138325   7.752   1.653   6.558  0.6290 -0.7918 -1.0609
12361SOL    HW238326   7.903   1.653   6.559  0.6417  0.3169  1.1468
12362SOL     OW38327   6.215   6.394   5.056 -0.0177  0.3158  0.0873
12362SOL    HW138328   6.221   6.402   4.961 -0.2827  2.0860  0.2015
12362SOL    HW238329   6.124   6.416   5.076 -0.3158 -1.3197  0.6577
12363SOL     OW38330   6.130   1.903   7.237 -0.3704  0.1421  0.0962
12363SOL    HW138331   6.071   1.867   7.302 -0.8045 -1.1615 -0.9863
12363SOL    HW238332   6.199   1.837   7.228  0.3825  0.9042  0.1673
12364SOL     OW38333   2.519   6.334   1.322  0.2229 -0.2931  0.4093
12364SOL    HW138334   2.567   6.284   1.388  0.3234  0.8301  1.1832
12364SOL    HW238335   2.500   6.269   1.254 -0.4590 -1.6173  1.8252
12365SOL     OW38336   5.129   1.409   7.683  0.1481 -0.0267 -0.2680
12365SOL    HW138337   5.104   1.340   7.744  1.0314 -1.4073 -1.4168
12365SOL    HW238338   5.084   1.487   7.714  0.1621 -0.8242  1.8180
12366SOL     OW38339   1.412   6.729   0.102 -0.0178 -0.0120 -0.3468
12366SOL    HW138340   1.496   6.760   0.139 -0.3453 -0.5780  0.9099
12366SOL    HW238341   1.423   6.634   0.094 -0.8219 -0.1950  0.6009
12367SOL     OW38342   0.027   2.098   1.188 -0.1768  0.4676  0.1006
12367SOL    HW138343   0.073   2.086   1.271  1.3596 -1.6241 -1.0200
12367SOL    HW238344  -0.062   2.066   1.205 -0.0318  0.5630  1.0854
12368SOL     OW38345   2.511   1.248   0.852 -0.0878  0.0498 -0.3402
12368SOL    HW138346   2.428   1.295   0.841 -0.2084  0.3343  1.6602
12368SOL    HW238347   2.504   1.173   0.793 -1.1238  0.9211 -1.3449
12369SOL     OW38348   5.690   1.365   5.467  0.1632  0.4811 -0.1295
12369SOL    HW138349   5.748   1.426   5.421 -0.5832  1.4067  0.1281
12369SOL    HW238350   5.664   1.412   5.546 -0.3238 -0.2253  0.1337
12370SOL     OW38351   2.356   0.103   2.963  0.5311  0.1745  0.4887
12370SOL    HW138352   2.306   0.028   2.931  1.2367 -0.0833 -0.0338
12370SOL    HW238353   2.447   0.075   2.959  0.7431  0.7324  1.1744
12371SOL     OW38354   6.685   3.121   6.403 -0.0121  0.3730  0.4873
12371SOL    HW138355   6.653   3.114   6.493  0.3262 -0.3013  0.5572
12371SOL    HW238356   6.611   3.093   6.349 -0.2227  0.7975  0.5455
12372SOL     OW38357   6.283   3.256   0.165 -0.4112 -0.2752  0.7047
12372SOL    HW138358   6.335   3.209   0.231 -0.6788  0.2276  1.2782
12372SOL    HW238359   6.232   3.319   0.216  0.1391  0.8192 -0.0823
12373SOL     OW38360   0.966   3.936   5.847 -0.2429 -0.0344  0.9070
12373SOL    HW138361   0.929   3.990   5.777 -0.3289 -1.8612 -0.4964
12373SOL    HW238362   0.905   3.862   5.854  1.0037 -1.0327  1.3239
12374SOL     OW38363   7.348   2.394   2.394 -0.4070 -0.6444 -0.1233
12374SOL    HW138364   7.377   2.351   2.474 -0.9146 -1.9933 -0.6467
12374SOL    HW238365   7.394   2.348   2.324 -1.4410 -0.7579 -0.7364
12375SOL     OW38366   4.772   5.048   1.617  0.0329 -0.4814 -0.1600
12375SOL    HW138367   4.713   5.019   1.687  0.5708  0.1475  0.5602
12375SOL    HW238368   4.842   4.983   1.618  0.1829 -0.3168  0.0721
12376SOL     OW38369   4.525   0.855   7.480 -0.0912  0.4908 -0.4625
12376SOL    HW138370   4.582   0.901   7.542 -0.1247  1.0220 -0.8300
12376SOL    HW238371   4.585   0.826   7.410  0.0768 -0.7559  0.1724
12377SOL     OW38372   2.799   4.992   2.218  0.4591  0.1213  0.1603
12377SOL    HW138373   2.760   4.909   2.246 -0.2614  0.5403  0.4038
12377SOL    HW238374   2.881   4.967   2.177 -0.4950 -0.8525 -1.1937
12378SOL     OW38375   4.936   3.416   4.432  0.1235 -0.0868 -0.6554
12378SOL    HW138376   4.931   3.451   4.343  1.2406 -0.3337 -0.8215
12378SOL    HW238377   5.017   3.364   4.433 -0.2570 -0.6704  0.2922
12379SOL     OW38378   7.234   2.882   2.331 -0.1309  0.3563  0.1643
12379SOL    HW138379   7.262   2.839   2.411 -2.5472  0.9594  1.3913
12379SOL    HW238380   7.212   2.971   2.359 -0.8627  0.6128 -1.1958
12380SOL     OW38381   3.154   3.206   2.272  0.5025 -0.0275 -0.4792
12380SOL    HW138382   3.173   3.199   2.178 -1.3532  0.1643 -0.8926
12380SOL    HW238383   3.169   3.298   2.293 -0.2302  0.1807 -0.8590
12381SOL     OW38384   3.475   0.051   1.063  0.2668 -0.2506  0.0203
12381SOL    HW138385   3.442   0.140   1.052  0.6954 -0.0213  0.5841
12381SOL    HW238386   3.529   0.036   0.985 -0.3624 -0.2753 -0.4182
12382SOL     OW38387   5.813   6.349   1.225 -0.2938  0.5878 -0.5759
12382SOL    HW138388   5.874   6.339   1.297 -1.1884  2.3257  0.4417
12382SOL    HW238389   5.867   6.345   1.146  0.8597  0.1750  0.2284
12383SOL     OW38390   4.115   1.626   2.443  0.8133 -0.0969 -0.4621
12383SOL    HW138391   4.174   1.556   2.472  0.3039 -0.6184 -0.6821
12383SOL    HW238392   4.110   1.615   2.348  0.3828 -0.0389 -0.4464
12384SOL     OW38393   7.955   7.367   3.179  0.4213 -0.0606  0.3310
12384SOL    HW138394   7.910   7.362   3.263  0.5934 -0.1878  0.4149
12384SOL    HW238395   7.951   7.459   3.155 -0.5644 -0.1935 -0.0287
12385SOL     OW38396   0.772   3.400   3.923 -0.0443  0.2798 -0.3143
12385SOL    HW138397   0.865   3.381   3.935 -0.6925 -2.2184  0.9882
12385SOL    HW238398   0.732   3.315   3.903 -2.5262  0.7764  2.1965
12386SOL     OW38399   2.996   5.224   2.453 -1.0610 -0.2795  0.4511
12386SOL    HW138400   2.916   5.184   2.488 -1.4817  0.7506  0.6699
12386SOL    HW238401   2.965   5.294   2.396 -0.3520 -1.1801 -1.0568
12387SOL     OW38402   5.438   4.115   2.620 -0.1327 -0.1548 -0.5074
12387SOL    HW138403   5.397   4.070   2.546 -0.6936 -1.3222  0.5056
12387SOL    HW238404   5.524   4.074   2.628 -0.2551 -0.3521 -0.2148
12388SOL     OW38405   3.329   1.636   5.594  0.3684 -0.1842  0.4649
12388SOL    HW138406   3.305   1.578   5.666  0.1075 -1.5285 -0.6687
12388SOL    HW238407   3.422   1.652   5.606  0.2012  0.0939  1.4397
12389SOL     OW38408   0.133   0.415   2.115  0.3351 -0.0955  0.1162
12389SOL    HW138409   0.191   0.342   2.135  0.9515 -0.2878 -2.1729
12389SOL    HW238410   0.082   0.385   2.040 -0.1027  1.4559 -0.2249
12390SOL     OW38411   3.208   5.293   0.085  0.4071  0.1697  0.0622
12390SOL    HW138412   3.113   5.283   0.091  0.2951 -0.0444 -1.6304
12390SOL    HW238413   3.222   5.387   0.078  0.3899  0.2623  1.2880
12391SOL     OW38414   7.142   7.750   7.921  0.2020  0.1051 -0.0682
12391SOL    HW138415   7.074   7.816   7.933 -0.4164 -0.4922 -0.2579
12391SOL    HW238416   7.207   7.770   7.988  0.0851  0.9845 -0.2106
12392SOL     OW38417   1.533   4.463   0.918  0.2164 -0.0767  0.6300
12392SOL    HW138418   1.562   4.481   1.008 -0.2402 -1.8508  1.1492
12392SOL    HW238419   1.462   4.525   0.903  0.0654 -0.0041  1.6140
12393SOL     OW38420   1.454   8.117   1.812  0.1092 -0.0349 -0.1488
12393SOL    HW138421   1.512   8.165   1.870 -0.9202  0.3284  0.5932
12393SOL    HW238422   1.465   8.158   1.727  0.7010  0.2349  0.0583
12394SOL     OW38423   8.301   7.223   3.246  0.6908  0.2049 -0.2094
12394SOL    HW138424   8.224   7.172   3.270  0.1063  1.6125  0.9460
12394SOL    HW238425   8.267   7.297   3.196  1.0784  1.8804  1.9549
12395SOL     OW38426   1.465   6.208   2.580 -0.9787  0.2910 -0.5615
12395SOL    HW138427   1.416   6.223   2.661 -0.9789  0.6247 -0.6194
12395SOL    HW238428   1.533   6.146   2.604 -1.2966 -0.0064 -0.4281
12396SOL     OW38429   7.648   1.700   0.019 -0.0257 -0.0388 -0.6051
12396SOL    HW138430   7.653   1.664   0.108  0.6892  1.5534  0.0112
12396SOL    HW238431   7.569   1.754   0.020 -0.1151 -0.1632 -0.9915
12397SOL     OW38432   3.408   8.221   5.528 -0.0931  0.0043 -0.0609
12397SOL    HW138433   3.444   8.180   5.449  0.0816  1.4339 -0.7395
12397SOL    HW238434   3.468   8.293   5.546  1.5667 -2.0341  3.0957
12398SOL     OW38435   6.698   4.650   4.170 -1.4880  0.4569  0.3751
12398SOL    HW138436   6.693   4.561   4.135 -2.9531  0.0154  1.6372
12398SOL    HW238437   6.656   4.704   4.103 -0.0746  0.3039 -0.6642
12399SOL     OW38438   6.662   1.328   6.492 -0.1033  0.3333 -0.4589
12399SOL    HW138439   6.732   1.279   6.450  2.5391  2.1705  1.6557
12399SOL    HW238440   6.659   1.293   6.582  0.2499  2.4025  0.3845
12400SOL     OW38441   2.693   8.193   7.674 -0.0271  0.2821 -0.3612
12400SOL    HW138442   2.705   8.157   7.762 -0.7898  1.8284  0.3872
12400SOL    HW238443   2.633   8.131   7.632 -1.7777  0.9348  1.0985
12401SOL     OW38444   0.113   1.031   3.155 -0.5916 -0.3150 -0.3028
12401SOL    HW138445   0.082   0.984   3.232 -1.1602 -0.6979 -0.7664
12401SOL    HW238446   0.184   0.976   3.120  0.8065  0.6842  0.9010
12402SOL     OW38447   6.875   2.326   6.765  0.4020  0.1950 -0.0987
12402SOL    HW138448   6.826   2.408   6.764 -0.0357 -0.0654 -1.0596
12402SOL    HW238449   6.896   2.310   6.673  0.4954 -0.7665  0.0855
12403SOL     OW38450   1.204   1.586   3.946  0.1256 -0.6133 -0.3449
12403SOL    HW138451   1.180   1.565   4.036 -1.6095 -0.6238 -0.7967
12403SOL    HW238452   1.149   1.530   3.892 -0.5427  1.0818 -1.4547
12404SOL     OW38453   4.485   6.600   0.913  0.0168 -0.0448  0.2520
12404SOL    HW138454   4.405   6.590   0.965  0.1887  0.1774  0.5558
12404SOL    HW238455   4.458   6.576   0.824 -0.4362  0.2125  0.3173
12405SOL     OW38456   3.904   7.979   1.939 -0.3804  0.4560  0.2997
12405SOL    HW138457   3.826   8.026   1.909 -1.1425 -0.6984  0.4623
12405SOL    HW238458   3.974   8.010   1.880 -0.8656  1.7705  0.3889
12406SOL     OW38459   7.986   2.548   6.081 -0.1206 -0.3510 -0.1459
12406SOL    HW138460   7.960   2.554   5.989  0.7689 -0.6928 -0.4287
12406SOL    HW238461   7.968   2.635   6.117  0.9818  0.2696 -1.0434
12407SOL     OW38462   5.996   6.202   7.675 -0.0380  0.1480  0.5768
12407SOL    HW138463   5.967   6.116   7.706  1.3661 -0.3480  0.5530
12407SOL    HW238464   6.073   6.221   7.729 -0.2688  1.3453  0.4972
12408SOL     OW38465   0.182   6.194   5.603 -0.2880  0.2003  0.2641
12408SOL    HW138466   0.096   6.151   5.605 -0.9050  1.4498  1.0917
12408SOL    HW238467   0.243   6.124   5.578 -1.3659 -0.9993  0.9283
12409SOL     OW38468   2.153   4.261   4.721 -0.5924  0.0197  0.2357
12409SOL    HW138469   2.238   4.286   4.685 -0.8081 -0.0453 -0.3363
12409SOL    HW238470   2.113   4.209   4.651 -0.2883 -1.6268  1.2652
12410SOL     OW38471   1.431   7.589   3.582  0.1438  0.2975 -0.6178
12410SOL    HW138472   1.365   7.616   3.517 -0.1092  0.4180 -0.3126
12410SOL    HW238473   1.492   7.534   3.533  0.2038  0.7587 -1.0614
12411SOL     OW38474   7.471   0.373   6.885 -0.8352  0.0994  0.3838
12411SOL    HW138475   7.415   0.391   6.960 -0.4830 -1.5310  1.0607
12411SOL    HW238476   7.411   0.348   6.815 -1.0511 -0.3201  0.7143
12412SOL     OW38477   7.650   0.685   5.125  0.2914  0.4004  0.0102
12412SOL    HW138478   7.664   0.673   5.219  1.8463  0.1092 -0.2449
12412SOL    HW238479   7.691   0.770   5.106  1.6515 -0.4064 -0.7359
12413SOL     OW38480   2.976   5.417   3.345 -0.0991 -0.1142  0.0826
12413SOL    HW138481   2.890   5.376   3.348 -0.2411  0.1582 -0.1525
12413SOL    HW238482   2.981   5.468   3.426 -0.5278  0.5798 -0.3123
12414SOL     OW38483   2.910   6.038   6.890  0.2400 -0.0506  0.2461
12414SOL    HW138484   2.916   6.108   6.826  0.3614  0.4862  0.8394
12414SOL    HW238485   2.819   6.040   6.920 -0.5123 -1.9819 -1.7786
12415SOL     OW38486   7.823   4.932   5.484 -0.1452  0.1697  0.0818
12415SOL    HW138487   7.836   4.921   5.578  0.4015  1.5892  0.1883
12415SOL    HW238488   7.730   4.918   5.471 -0.0247 -1.2348  0.6539
12416SOL     OW38489   0.619   3.212   2.205  0.1629  0.2904  0.1967
12416SOL    HW138490   0.593   3.299   2.174  1.2033  0.5264 -0.0228
12416SOL    HW238491   0.620   3.220   2.301  0.6656  0.6379  0.1627
12417SOL     OW38492   3.320   4.897   4.816 -0.0321 -0.4080  0.2531
12417SOL    HW138493   3.410   4.928   4.802 -0.0012 -0.3404  0.5915
12417SOL    HW238494   3.266   4.955   4.763 -0.0988  1.0234  1.8392
12418SOL     OW38495   7.967   6.744   7.408 -0.0504  0.1070 -0.5710
12418SOL    HW138496   7.892   6.686   7.422  1.0288 -1.1022  0.3251
12418SOL    HW238497   7.993   6.771   7.496 -1.2261  2.8871 -1.0291
12419SOL     OW38498   5.928   2.921   6.579 -0.2421 -0.4380  0.3345
12419SOL    HW138499   5.887   2.983   6.640  0.3866 -1.9200  2.3223
12419SOL    HW238500   5.873   2.843   6.583  0.7843 -1.1807  0.3842
12420SOL     OW38501   1.239   7.317   6.995  0.5025 -0.3519  0.1123
12420SOL    HW138502   1.159   7.293   6.949  0.7839  0.2375 -0.6979
12420SOL    HW238503   1.275   7.390   6.944  0.8939  0.2132  1.1794
12421SOL     OW38504   2.875   0.967   1.796 -0.3169  0.2209  0.2962
12421SOL    HW138505   2.832   0.956   1.880 -1.8387  1.2491 -0.3223
12421SOL    HW238506   2.844   1.051   1.763  3.2207  1.6670  0.3971
12422SOL     OW38507   5.072   6.438   4.644  0.6023  0.2612 -0.0002
12422SOL    HW138508   5.114   6.457   4.560  0.1786  1.9751  0.1559
12422SOL    HW238509   4.978   6.448   4.626  0.4076 -1.0484  0.2713
12423SOL     OW38510   4.595   3.244   2.518  0.3852  0.2855 -0.6569
12423SOL    HW138511   4.566   3.244   2.609 -1.2129 -0.5081 -1.1485
12423SOL    HW238512   4.670   3.184   2.517 -0.2872 -0.5816 -0.0781
12424SOL     OW38513   5.157   4.388   7.324  0.6762 -0.1852  0.4489
12424SOL    HW138514   5.248   4.415   7.340  1.2499 -1.7178 -0.1520
12424SOL    HW238515   5.128   4.353   7.409  1.2687 -1.3886  0.1745
12425SOL     OW38516   2.020   2.041   7.470  0.0064  0.0671  0.1545
12425SOL    HW138517   1.937   2.077   7.439 -0.6027 -0.4032  1.2068
12425SOL    HW238518   1.996   1.957   7.510  0.7956  0.5520  1.6817
12426SOL     OW38519   0.393   2.173   1.188 -0.6074  0.2097 -0.6092
12426SOL    HW138520   0.484   2.179   1.159 -0.2449  0.8905  0.6162
12426SOL    HW238521   0.367   2.083   1.170  0.9578 -0.5503  0.8848
12427SOL     OW38522   3.936   3.590   7.254 -0.4080 -0.6434  0.1013
12427SOL    HW138523   3.982   3.556   7.177 -1.8967  1.1739 -1.6494
12427SOL    HW238524   4.005   3.611   7.317  0.9618 -0.4119 -1.4513
12428SOL     OW38525   8.011   7.453   7.152 -0.3961  0.0242  0.3799
12428SOL    HW138526   7.981   7.412   7.071  2.8406 -0.5515 -0.6012
12428SOL    HW238527   8.018   7.546   7.131  1.5579 -0.2690 -0.4429
12429SOL     OW38528   6.820   1.470   6.783 -0.1526 -0.0074 -0.4362
12429SOL    HW138529   6.744   1.490   6.838  0.2178  1.1432 -0.3306
12429SOL    HW238530   6.795   1.502   6.696  0.0331 -0.0345 -0.4988
12430SOL     OW38531   1.256   6.951   2.445 -0.3111  1.0469  0.2035
12430SOL    HW138532   1.213   7.036   2.434 -1.5783  0.3078 -0.6120
12430SOL    HW238533   1.302   6.937   2.362  0.8909  1.4725  0.7800
12431SOL     OW38534   0.863   8.252   4.123  0.4433  0.8115 -0.1160
12431SOL    HW138535   0.837   8.255   4.031  0.8078  1.6949 -0.2011
12431SOL    HW238536   0.781   8.253   4.171  0.2794  2.3927 -0.4059
12432SOL     OW38537   3.857   4.668   8.302  0.6981  0.1032 -0.3593
12432SOL    HW138538   3.841   4.758   8.274 -0.2498  0.2608  0.6604
12432SOL    HW238539   3.813   4.614   8.236  0.4413  0.4113 -0.4410
12433SOL     OW38540   5.465   7.054   5.481  0.0475 -0.5795  0.3699
12433SOL    HW138541   5.547   7.054   5.530  0.3007 -0.6981 -0.0471
12433SOL    HW238542   5.424   6.970   5.503 -0.1342 -0.3582  0.8671
12434SOL     OW38543   8.221   1.177   2.993  0.0662  0.3788  0.5992
12434SOL    HW138544   8.149   1.135   3.040 -0.9291  1.4545  0.0825
12434SOL    HW238545   8.300   1.148   3.038 -0.5617 -2.2458  0.0688
12435SOL     OW38546   7.929   2.855   2.847  0.1280 -0.1914  0.0454
12435SOL    HW138547   7.863   2.901   2.796 -0.5147  1.2683  2.1055
12435SOL    HW238548   7.886   2.773   2.874 -0.4134  0.1864  0.3421
12436SOL     OW38549   3.394   8.296   4.922 -0.1201 -0.1255  0.2164
12436SOL    HW138550   3.415   8.204   4.936  0.7929 -0.1552 -1.2270
12436SOL    HW238551   3.303   8.295   4.891 -0.2617 -0.4903  0.6319
12437SOL     OW38552   1.828   4.202   4.543 -0.0596  0.0818  0.0887
12437SOL    HW138553   1.732   4.202   4.542 -0.1568  1.7550  3.1586
12437SOL    HW238554   1.852   4.288   4.509  0.2984  0.1007  0.3773
12438SOL     OW38555   2.299   5.773   4.194  0.0728 -0.5945 -0.2762
12438SOL    HW138556   2.321   5.816   4.111  1.1985 -0.8260 -0.1139
12438SOL    HW238557   2.349   5.821   4.259 -1.5612  0.1983  0.4086
12439SOL     OW38558   0.327   4.193   1.632  0.0413 -0.1057  0.5675
12439SOL    HW138559   0.298   4.279   1.663 -0.0852 -0.5720  1.7847
12439SOL    HW238560   0.344   4.143   1.713  0.0760 -1.2324 -0.1291
12440SOL     OW38561   8.062   2.071   1.568 -0.3270 -0.7030 -0.1848
12440SOL    HW138562   7.986   2.085   1.625 -1.6238 -1.8565 -1.6035
12440SOL    HW238563   8.108   2.155   1.569 -1.5748 -0.0036  0.7334
12441SOL     OW38564   3.602   3.809   3.033  0.4761  0.3433 -0.6374
12441SOL    HW138565   3.549   3.732   3.010  3.4483 -3.1457  3.3827
12441SOL    HW238566   3.671   3.811   2.967  1.0299 -1.1751 -0.1255
12442SOL     OW38567   7.262   4.918   2.455  0.6425 -0.2549 -0.5617
12442SOL    HW138568   7.275   4.823   2.452 -0.4710 -0.4565  0.6441
12442SOL    HW238569   7.319   4.947   2.526 -2.6385 -0.6963  2.4049
12443SOL     OW38570   5.591   2.027   2.518  0.3951  0.1713 -0.0843
12443SOL    HW138571   5.566   2.074   2.598 -1.0192 -0.5503 -0.0901
12443SOL    HW238572   5.636   2.092   2.465  0.3706  0.9496  0.8317
12444SOL     OW38573   0.276   0.915   6.083 -0.0366  0.0249 -0.1372
12444SOL    HW138574   0.204   0.860   6.051 -1.0477 -0.4528  2.8365
12444SOL    HW238575   0.238   1.003   6.086  0.0615  0.0717 -0.2917
12445SOL     OW38576   1.994   6.798   1.888 -0.1128  0.1535 -0.1843
12445SOL    HW138577   1.928   6.778   1.822 -0.5775 -1.7846  0.8432
12445SOL    HW238578   1.950   6.856   1.950 -0.4282 -0.0171 -0.2498
12446SOL     OW38579   8.019   7.279   6.175  0.2388 -0.1394  0.5456
12446SOL    HW138580   8.026   7.185   6.158  2.1136  0.2626 -1.1669
12446SOL    HW238581   7.926   7.294   6.191 -0.6886 -1.6953 -2.9024
12447SOL     OW38582   0.750   7.081   2.210  0.3599 -0.2073 -1.0686
12447SOL    HW138583   0.807   7.144   2.254  0.7008 -0.1525 -1.5775
12447SOL    HW238584   0.716   7.128   2.134 -2.1405  0.4766  0.4324
12448SOL     OW38585   6.923   7.269   6.453 -0.1924  0.4179 -0.3669
12448SOL    HW138586   7.005   7.245   6.409 -0.2663 -0.2190 -0.1583
12448SOL    HW238587   6.939   7.357   6.488  0.9860 -0.3414  1.0855
12449SOL     OW38588   1.222   6.095   7.227 -0.8315  0.0512  0.3281
12449SOL    HW138589   1.176   6.026   7.179 -0.1725 -1.3056  1.6098
12449SOL    HW238590   1.153   6.144   7.272 -1.3468  0.5648 -1.0032
12450SOL     OW38591   7.991   7.539   5.179 -0.4404  0.6090  0.1679
12450SOL    HW138592   8.005   7.469   5.244 -2.3211  0.9193  0.9478
12450SOL    HW238593   8.077   7.580   5.169  0.6037 -1.5474  0.0003
12451SOL     OW38594   4.662   7.672   4.335  0.6058  0.0410 -0.0950
12451SOL    HW138595   4.654   7.686   4.429  1.5026  2.2753 -0.3224
12451SOL    HW238596   4.729   7.735   4.307  1.1382 -1.3423 -2.0482
12452SOL     OW38597   3.944   1.013   7.759  0.1819  0.0610 -0.3144
12452SOL    HW138598   4.037   1.011   7.783  0.1769  0.6274 -0.2386
12452SOL    HW238599   3.904   0.948   7.816  0.6897 -0.9173 -1.0550
12453SOL     OW38600   1.039   8.005   3.802  0.6761 -0.1904  0.2711
12453SOL    HW138601   0.968   7.956   3.760  1.2755  0.4769 -1.5578
12453SOL    HW238602   1.109   7.941   3.813  0.5627 -0.3389  0.1332
12454SOL     OW38603   2.148   2.456   7.767  0.1980 -0.8901  0.1179
12454SOL    HW138604   2.175   2.389   7.704 -0.2021 -2.8309  1.9530
12454SOL    HW238605   2.226   2.474   7.819  0.5527  0.7721 -0.9642
12455SOL     OW38606   3.724   4.020   2.131  0.2047  0.5227 -0.2123
12455SOL    HW138607   3.713   3.926   2.117 -2.1439  1.1169 -2.7753
12455SOL    HW238608   3.783   4.048   2.061 -0.3340  1.2219 -0.3855
12456SOL     OW38609   6.158   3.020   7.022  0.4059  0.1668  0.0170
12456SOL    HW138610   6.239   3.016   7.073  0.1825  1.3630  0.4992
12456SOL    HW238611   6.109   2.942   7.048  0.0778  1.0201  2.0428
12457SOL     OW38612   7.532   4.240   4.108 -0.0235 -0.1026 -0.7917
12457SOL    HW138613   7.471   4.311   4.129 -0.5034 -0.7478  0.0355
12457SOL    HW238614   7.611   4.260   4.157 -0.0368  0.0415 -0.8298
12458SOL     OW38615   5.119   6.872   2.835  0.1379 -0.2585 -0.7339
12458SOL    HW138616   5.191   6.878   2.898 -1.5712 -1.3964  1.4182
12458SOL    HW238617   5.129   6.949   2.780  1.4211  1.0539  1.2656
12459SOL     OW38618   0.287   1.337   2.739  0.3557 -0.7829 -0.0705
12459SOL    HW138619   0.226   1.408   2.760 -0.4183 -1.4999  0.1067
12459SOL    HW238620   0.364   1.355   2.795 -0.2101 -0.6032  0.6566
12460SOL     OW38621   0.012   0.100   5.524  0.2110 -0.1466  0.1032
12460SOL    HW138622  -0.040   0.142   5.456  0.7965 -0.4757 -0.5553
12460SOL    HW238623  -0.036   0.118   5.605 -1.3242 -1.0701 -0.5676
12461SOL     OW38624   0.844   7.479   4.314 -0.4045  0.0762  0.0779
12461SOL    HW138625   0.751   7.462   4.296 -0.7388  0.5411  1.3278
12461SOL    HW238626   0.851   7.475   4.410  0.7598  0.5998  0.0198
12462SOL     OW38627   2.929   3.391   0.401  0.3855 -0.1615  0.4859
12462SOL    HW138628   2.969   3.427   0.321  1.6559  0.4597  1.3938
12462SOL    HW238629   2.836   3.410   0.391  0.4971 -0.2705 -0.9485
12463SOL     OW38630   6.736   1.336   1.117  0.0231  1.0756 -0.2801
12463SOL    HW138631   6.655   1.328   1.068  0.1381 -0.5197 -0.2325
12463SOL    HW238632   6.805   1.328   1.051  0.2073 -2.5999  0.2839
12464SOL     OW38633   2.325   6.236   5.225  0.1169  0.4967  0.0472
12464SOL    HW138634   2.414   6.242   5.261  0.6003  1.8402 -1.2877
12464SOL    HW238635   2.319   6.311   5.166 -1.2397 -0.6998 -1.3640
12465SOL     OW38636   6.344   5.669   1.418 -0.0477 -0.4479 -0.3183
12465SOL    HW138637   6.420   5.635   1.371  0.6335 -0.9138  1.0876
12465SOL    HW238638   6.302   5.591   1.456 -0.3559 -0.0383  0.1903
12466SOL     OW38639   5.827   1.608   1.110 -0.0753 -0.1287  0.3803
12466SOL    HW138640   5.852   1.663   1.036 -2.0646  0.5234  0.1670
12466SOL    HW238641   5.901   1.615   1.171  1.4603 -0.4504 -1.3901
12467SOL     OW38642   3.114   0.048   0.732 -0.0550 -0.0510 -0.0975
12467SOL    HW138643   3.192   0.097   0.758  0.7502 -0.7121 -1.2363
12467SOL    HW238644   3.144  -0.041   0.720 -1.2711 -0.5895  0.7716
12468SOL     OW38645   2.828   1.180   7.175 -0.1089  0.3935  0.6572
12468SOL    HW138646   2.788   1.266   7.186  0.6467  0.6390  1.5069
12468SOL    HW238647   2.890   1.172   7.247  2.4617  0.6489 -1.4277
12469SOL     OW38648   3.483   3.233   1.236  0.1387  0.5724 -0.1746
12469SOL    HW138649   3.508   3.259   1.325 -1.0019  1.2926 -0.0612
12469SOL    HW238650   3.419   3.163   1.249  1.4093 -0.6631 -0.4573
12470SOL     OW38651   8.013   0.693   1.424 -0.0604  0.4220 -0.3215
12470SOL    HW138652   8.086   0.689   1.485  0.8498  0.0309 -1.4060
12470SOL    HW238653   7.936   0.705   1.479  0.7277 -0.0096  0.8951
12471SOL     OW38654   8.228   5.412   4.847 -0.5120  0.4124  0.5452
12471SOL    HW138655   8.267   5.471   4.912  0.6690 -1.1268  1.2441
12471SOL    HW238656   8.241   5.324   4.882 -1.2408 -0.3580 -1.0459
12472SOL     OW38657   6.018   1.139   7.192  0.8173 -0.1318  0.0522
12472SOL    HW138658   6.107   1.106   7.199  0.5042 -0.5690  2.3937
12472SOL    HW238659   5.965   1.062   7.172  1.0355  0.2523 -2.1083
12473SOL     OW38660   0.850   4.274   0.810  0.2056  0.0859  0.3910
12473SOL    HW138661   0.937   4.272   0.850  0.2497 -0.4693  0.2647
12473SOL    HW238662   0.868   4.268   0.716  0.0765  0.8805  0.3090
12474SOL     OW38663   4.528   5.036   3.913 -0.2438 -0.5554 -0.4169
12474SOL    HW138664   4.568   5.054   3.999 -0.9608  0.1328 -0.2202
12474SOL    HW238665   4.488   4.950   3.923  1.6783 -1.5177 -0.7969
12475SOL     OW38666   4.031   1.202   3.904  0.6341  0.5405  0.4757
12475SOL    HW138667   4.078   1.221   3.823  0.7542  0.6010  0.5576
12475SOL    HW238668   4.033   1.107   3.912 -1.6579  0.3519 -0.9274
12476SOL     OW38669   4.156   0.270   4.119  0.0837  0.0736 -0.4128
12476SOL    HW138670   4.207   0.193   4.096 -0.8241 -1.3240  2.1217
12476SOL    HW238671   4.220   0.333   4.152  0.6257 -0.1588 -1.0133
12477SOL     OW38672   1.699   5.767   0.960 -1.1023  0.0745  0.7957
12477SOL    HW138673   1.706   5.813   0.876  1.1092  0.4935  1.1788
12477SOL    HW238674   1.666   5.680   0.936  1.7810 -0.6489 -0.8587
12478SOL     OW38675   3.421   1.927   6.123 -0.1819  0.2452 -0.1486
12478SOL    HW138676   3.433   1.837   6.092  1.2195 -0.0265  1.1560
12478SOL    HW238677   3.438   1.923   6.217  1.1731  2.1140 -0.2860
12479SOL     OW38678   7.301   2.656   2.487 -0.2673  0.4331 -0.1471
12479SOL    HW138679   7.206   2.670   2.492 -0.2994  0.4192 -0.6310
12479SOL    HW238680   7.310   2.563   2.468 -0.0313 -0.4373  3.9262
12480SOL     OW38681   2.321   2.884   3.797  0.1393 -0.5759  0.3894
12480SOL    HW138682   2.232   2.900   3.767 -0.7496 -1.9863  2.2258
12480SOL    HW238683   2.370   2.962   3.769 -1.9093  0.7512  0.4016
12481SOL     OW38684   6.797   3.277   1.462  0.4979 -0.5485 -0.4696
12481SOL    HW138685   6.875   3.308   1.415  1.2204 -1.7098 -0.0697
12481SOL    HW238686   6.732   3.262   1.393  0.5865  0.5398 -0.7942
12482SOL     OW38687   7.016   3.382   1.348  0.5452 -0.1104 -0.2770
12482SOL    HW138688   7.040   3.472   1.369 -0.7500  0.3786 -0.8190
12482SOL    HW238689   6.999   3.383   1.253  3.2868 -1.5755 -0.8385
12483SOL     OW38690   5.090   0.382   5.520 -0.2074  0.3357 -0.5629
12483SOL    HW138691   5.173   0.390   5.472  0.5296  1.0693  0.8205
12483SOL    HW238692   5.106   0.425   5.604 -2.0242  0.5797 -0.3127
12484SOL     OW38693   6.226   1.953   3.312  0.2094 -0.2559  0.3496
12484SOL    HW138694   6.258   2.036   3.348  0.0809  0.9875 -2.3222
12484SOL    HW238695   6.291   1.929   3.246  1.0253 -3.0703  2.0631
12485SOL     OW38696   4.462   1.386   7.620  0.4461 -0.7496 -0.6999
12485SOL    HW138697   4.417   1.351   7.697  0.6345  0.3689 -0.0883
12485SOL    HW238698   4.482   1.308   7.568 -0.9964 -1.3874 -0.3413
12486SOL     OW38699   1.311   1.598   0.429 -0.5639 -0.1277 -0.5052
12486SOL    HW138700   1.349   1.637   0.508  2.1466 -2.1025 -0.7952
12486SOL    HW238701   1.226   1.564   0.458  0.8178 -1.7312  1.8432
12487SOL     OW38702   1.367   7.092   6.441 -0.1567 -0.3548 -0.1507
12487SOL    HW138703   1.298   7.144   6.483  1.4974  0.6062  1.4310
12487SOL    HW238704   1.375   7.014   6.496  0.1283 -0.3838 -0.2337
12488SOL     OW38705   5.671   1.823   1.436  0.3561  0.0558  0.0315
12488SOL    HW138706   5.737   1.842   1.503 -0.8455 -0.6226  1.4305
12488SOL    HW238707   5.594   1.794   1.485 -0.9477  0.6731 -1.5875
12489SOL     OW38708   7.827   0.712   0.167 -0.2483 -0.4625 -0.1302
12489SOL    HW138709   7.911   0.689   0.126 -0.0038 -1.1582  0.7335
12489SOL    HW238710   7.808   0.800   0.136  2.3107  0.8979  2.0250
12490SOL     OW38711   0.499   8.201   7.234 -0.3858  0.1057 -0.0799
12490SOL    HW138712   0.587   8.199   7.271 -0.1446 -0.7952 -0.6849
12490SOL    HW238713   0.481   8.110   7.210 -0.6584  0.5962 -1.8337
12491SOL     OW38714   8.219   7.458   0.261  0.0751  0.0573  0.2124
12491SOL    HW138715   8.199   7.403   0.186  0.7626  0.0596  0.0222
12491SOL    HW238716   8.185   7.545   0.238  0.8386  0.2038 -0.3545
12492SOL     OW38717   2.582   0.102   3.174  0.2669  0.0054  0.3250
12492SOL    HW138718   2.588   0.025   3.231  1.0536  1.0510  1.7090
12492SOL    HW238719   2.665   0.104   3.128  0.4768  0.3365  0.7136
12493SOL     OW38720   2.714   2.109   0.304 -0.0754  0.3501  0.0500
12493SOL    HW138721   2.769   2.101   0.383 -0.5078 -0.1509  0.3083
12493SOL    HW238722   2.763   2.063   0.236  0.5238  1.1985 -0.0926
12494SOL     OW38723   6.037   0.804   7.225 -0.5317  0.3964  0.0569
12494SOL    HW138724   5.978   0.879   7.227 -1.0696 -0.0257  0.0382
12494SOL    HW238725   6.019   0.756   7.305 -0.5902 -0.0231 -0.2023
12495SOL     OW38726   6.481   2.904   6.549 -0.2799 -0.4857 -0.6792
12495SOL    HW138727   6.493   2.907   6.644  0.8283  0.8641 -0.8315
12495SOL    HW238728   6.404   2.958   6.532 -0.3521 -0.5506 -0.5463
12496SOL     OW38729   3.529   0.745   1.075 -0.5584 -0.3589  0.2529
12496SOL    HW138730   3.581   0.695   1.138 -1.3219 -1.6903 -0.1557
12496SOL    HW238731   3.438   0.730   1.101 -0.8239  0.2670 -0.2922
12497SOL     OW38732   1.367   2.873   3.405  0.4692 -0.8272  0.4692
12497SOL    HW138733   1.276   2.901   3.392  1.2086  1.3342 -0.3652
12497SOL    HW238734   1.398   2.854   3.317  0.9961 -1.0003  0.6960
12498SOL     OW38735   3.268   2.454   5.122  0.1254  0.6322 -0.0505
12498SOL    HW138736   3.266   2.541   5.162  0.1500  1.0977 -1.0482
12498SOL    HW238737   3.224   2.398   5.185 -0.2456  1.4414  0.4224
12499SOL     OW38738   3.555   7.434   5.180  0.1969  0.2742 -0.2323
12499SOL    HW138739   3.502   7.511   5.161 -0.5491 -0.0543  0.5267
12499SOL    HW238740   3.544   7.377   5.104  1.4250  1.2634 -1.1931
12500SOL     OW38741   0.464   1.958   3.022  0.0694  0.2346  0.1807
12500SOL    HW138742   0.438   2.033   3.075  1.1479 -0.7275  2.0961
12500SOL    HW238743   0.557   1.969   3.007  0.2533 -0.7772  0.5511
12501SOL     OW38744   2.978   1.119   5.206 -0.0381  0.4464  0.0606
12501SOL    HW138745   2.970   1.165   5.290 -0.0402  2.4354 -0.9925
12501SOL    HW238746   2.959   1.186   5.141 -3.4798 -1.8654 -1.4598
12502SOL     OW38747   4.488   3.969   6.221  0.8188 -0.5473  0.2115
12502SOL    HW138748   4.423   4.037   6.204  2.4627  1.0168 -0.0231
12502SOL    HW238749   4.561   3.992   6.164  2.5916 -0.7996  2.3156
12503SOL     OW38750   3.697   7.476   0.346 -0.3733  0.2527 -0.1234
12503SOL    HW138751   3.761   7.523   0.292 -0.5029  0.9751  0.3373
12503SOL    HW238752   3.624   7.458   0.287 -0.3562  0.7148 -0.2890
12504SOL     OW38753   5.960   5.225   2.022 -0.4852  0.7979  0.1373
12504SOL    HW138754   5.941   5.214   1.928 -0.4715  2.6821 -0.1160
12504SOL    HW238755   5.879   5.262   2.058 -0.6224 -0.2894  0.9502
12505SOL     OW38756   5.297   6.568   4.742  0.2415 -0.0076  0.1726
12505SOL    HW138757   5.295   6.505   4.814 -2.3544  1.3272  1.3397
12505SOL    HW238758   5.244   6.527   4.673  0.2356  0.0132  0.1650
12506SOL     OW38759   6.061   4.899   4.024 -0.1491  0.0881  0.4165
12506SOL    HW138760   6.134   4.842   4.048 -0.2605  1.0959  3.4374
12506SOL    HW238761   5.991   4.876   4.085 -1.2015  1.4413 -0.2388
12507SOL     OW38762   3.596   0.371   6.330 -0.4229  0.6651  0.1976
12507SOL    HW138763   3.648   0.437   6.376 -1.9518  4.4026 -3.1403
12507SOL    HW238764   3.506   0.399   6.340 -1.2161 -1.5516 -0.3680
12508SOL     OW38765   4.438   2.385   6.156  0.6519  0.3074 -0.0291
12508SOL    HW138766   4.398   2.340   6.230  0.1135 -0.1289 -0.5805
12508SOL    HW238767   4.497   2.449   6.196 -0.9054  1.2717  0.8264
12509SOL     OW38768   5.956   3.325   3.644  0.0118  0.0432  0.0461
12509SOL    HW138769   6.009   3.260   3.597  1.3586  1.2421 -0.1453
12509SOL    HW238770   5.903   3.366   3.576  0.2526  0.1671 -0.0681
12510SOL     OW38771   2.351   4.248   2.692  0.5421  0.2509  0.5048
12510SOL    HW138772   2.405   4.321   2.721  1.5053 -0.5094  0.6590
12510SOL    HW238773   2.380   4.173   2.745  0.1566 -0.4345 -0.2283
12511SOL     OW38774   4.218   4.568   0.181  0.1195 -0.0861  0.0998
12511SOL    HW138775   4.218   4.660   0.155  0.3699 -0.9659 -3.1925
12511SOL    HW238776   4.160   4.525   0.118  1.1369 -2.4017  0.6953
12512SOL     OW38777   0.270   0.299   4.329  0.1253  0.2830 -0.1672
12512SOL    HW138778   0.204   0.296   4.399 -0.1403  1.9168 -0.3389
12512SOL    HW238779   0.221   0.287   4.248  0.0517  1.4197 -0.2902
12513SOL     OW38780   4.777   3.166   0.217  0.0505 -0.0793 -0.0760
12513SOL    HW138781   4.831   3.212   0.280 -0.1289 -0.3525  0.2820
12513SOL    HW238782   4.698   3.220   0.210  0.9280  1.0303 -1.6163
12514SOL     OW38783   0.830   3.448   6.625  0.6963 -0.0713  0.0338
12514SOL    HW138784   0.776   3.374   6.598 -0.2094  0.0538  1.4542
12514SOL    HW238785   0.779   3.525   6.602  0.1298  0.0447  1.6030
12515SOL     OW38786   0.654   4.016   2.016  0.5036  0.3991 -0.1325
12515SOL    HW138787   0.581   4.075   2.035 -1.7370 -1.8824 -1.3569
12515SOL    HW238788   0.730   4.073   2.011 -1.2787  2.9337  0.5604
12516SOL     OW38789   7.709   7.003   1.176 -0.1954  0.3679 -0.2662
12516SOL    HW138790   7.803   6.988   1.164 -0.4681 -1.3870 -0.3487
12516SOL    HW238791   7.669   6.972   1.095 -0.9016  0.5325  0.0159
12517SOL     OW38792   3.530   6.209   7.463  0.2963 -0.6030  0.2058
12517SOL    HW138793   3.531   6.239   7.372  1.6476  1.5901  0.9050
12517SOL    HW238794   3.458   6.257   7.504  0.7096 -0.3670  0.6664
12518SOL     OW38795   2.507   2.374   4.628  0.3222  0.6397 -0.0327
12518SOL    HW138796   2.576   2.423   4.583  0.0106 -0.5992 -1.9183
12518SOL    HW238797   2.435   2.370   4.566 -0.5195 -0.2418  0.9668
12519SOL     OW38798   0.172   5.948   1.987 -0.0079  0.2726 -0.7253
12519SOL    HW138799   0.117   5.914   1.916  0.5209 -1.5739 -0.2580
12519SOL    HW238800   0.213   6.026   1.949 -0.0844 -0.4223 -2.3107
12520SOL     OW38801   3.995   3.190   5.372 -0.8998  0.1966  0.4977
12520SOL    HW138802   3.992   3.222   5.282 -0.8002 -0.8169  0.1250
12520SOL    HW238803   3.934   3.116   5.373  0.3209 -0.8042  0.8541
12521SOL     OW38804   4.621   1.939   4.246 -0.2256 -0.2215 -0.2437
12521SOL    HW138805   4.538   1.927   4.202 -0.1937 -0.4671 -0.2391
12521SOL    HW238806   4.647   2.029   4.226 -1.4643  0.5176  1.4032
12522SOL     OW38807   4.056   5.327   4.794  0.3465  0.8104  0.1194
12522SOL    HW138808   4.051   5.243   4.840 -0.8060  0.5722 -0.4209
12522SOL    HW238809   4.134   5.369   4.830  0.1833  0.0842  1.3659
12523SOL     OW38810   6.196   3.539   1.255  0.1231  0.2955 -0.2561
12523SOL    HW138811   6.287   3.548   1.227 -0.3303  0.6188 -1.6083
12523SOL    HW238812   6.152   3.494   1.183 -0.6233 -0.5921  0.7263
12524SOL     OW38813   6.020   0.651   1.160  0.7088 -0.3920 -0.1662
12524SOL    HW138814   5.942   0.701   1.186 -0.1886 -2.3135  1.0666
12524SOL    HW238815   6.094   0.702   1.193 -0.2078 -0.1341  1.5590
12525SOL     OW38816   5.574   2.552   4.183 -0.1191 -0.3917  0.2444
12525SOL    HW138817   5.614   2.532   4.267  2.6881  2.5749 -0.2974
12525SOL    HW238818   5.537   2.639   4.193 -1.5792 -0.8313 -1.0043
12526SOL     OW38819   2.418   2.837   4.290  0.5093  0.4449  0.2243
12526SOL    HW138820   2.441   2.833   4.383  2.6350  0.0199 -0.3061
12526SOL    HW238821   2.502   2.841   4.244 -0.5036 -0.0857 -1.7193
12527SOL     OW38822   6.320   2.125   2.511  1.0933 -0.3373 -0.7628
12527SOL    HW138823   6.300   2.039   2.548  1.8119 -0.8665 -1.5954
12527SOL    HW238824   6.264   2.185   2.561  1.9308 -1.0358  1.0757
12528SOL     OW38825   7.433   6.787   0.066 -0.1302  0.5058 -0.3772
12528SOL    HW138826   7.510   6.742   0.102 -1.1497 -0.3927  0.7174
12528SOL    HW238827   7.366   6.720   0.061 -0.7257  1.1900 -1.7454
12529SOL     OW38828   6.994   6.051   0.467 -0.4651  0.2644 -0.4573
12529SOL    HW138829   6.959   6.139   0.457 -0.0642  0.2845 -1.6628
12529SOL    HW238830   7.026   6.048   0.558 -0.7311  1.2551 -0.3272
12530SOL     OW38831   7.274   2.823   1.944 -0.6625 -0.0053 -0.1402
12530SOL    HW138832   7.306   2.815   2.034  0.4587  2.9637 -0.2201
12530SOL    HW238833   7.179   2.836   1.953 -0.8024 -1.4130  0.5049
12531SOL     OW38834   7.096   2.783   7.218  0.1839 -0.4389  0.0388
12531SOL    HW138835   7.037   2.767   7.145  0.2892 -1.2049  0.1224
12531SOL    HW238836   7.144   2.701   7.229  0.7644 -0.0509  0.4228
12532SOL     OW38837   2.435   2.196   0.802  0.4790 -0.3624  0.3495
12532SOL    HW138838   2.470   2.210   0.715 -0.8066  1.0789  0.0280
12532SOL    HW238839   2.429   2.101   0.811 -1.7887 -0.5101 -2.1461
12533SOL     OW38840   5.331   7.265   1.292  0.6979  0.0637 -0.3115
12533SOL    HW138841   5.397   7.302   1.235  1.8247  1.0504  1.5811
12533SOL    HW238842   5.259   7.329   1.291  1.2725  0.7272  0.3968
12534SOL     OW38843   7.323   6.507   0.315  0.4372 -0.1860  0.1785
12534SOL    HW138844   7.348   6.596   0.340  1.9612 -0.5680  0.1125
12534SOL    HW238845   7.337   6.504   0.221 -0.6127 -0.1919  0.0217
12535SOL     OW38846   1.866   0.824   5.120  0.1703  0.8695 -0.6338
12535SOL    HW138847   1.783   0.870   5.132  0.5449  1.5572 -0.6593
12535SOL    HW238848   1.933   0.887   5.148  0.5449 -0.6123  1.9614
12536SOL     OW38849   8.239   0.596   4.831  0.3591 -0.4033 -0.2175
12536SOL    HW138850   8.186   0.542   4.772  1.6800  0.0284 -1.8478
12536SOL    HW238851   8.318   0.616   4.781  0.7022  1.5216  1.0295
12537SOL     OW38852   6.023   5.361   3.814 -0.0863 -0.1091  0.3971
12537SOL    HW138853   6.038   5.387   3.905 -0.9868 -0.5182  0.6676
12537SOL    HW238854   5.959   5.290   3.819 -2.1076  1.5608 -0.6841
12538SOL     OW38855   0.409   4.851   6.555  0.2718  0.4140 -0.4003
12538SOL    HW138856   0.361   4.805   6.624 -0.0021  0.7343 -0.3763
12538SOL    HW238857   0.499   4.855   6.587  0.5107 -1.0074 -0.8576
12539SOL     OW38858   0.015   4.798   4.125  0.7097 -0.0558  0.0153
12539SOL    HW138859   0.090   4.739   4.129  0.6666 -0.2414 -1.8823
12539SOL    HW238860  -0.056   4.750   4.168  1.3004 -0.4204  0.5915
12540SOL     OW38861   7.413   3.555   5.221  0.4463 -0.2887 -0.3780
12540SOL    HW138862   7.366   3.635   5.199 -1.4873 -0.7426  1.8777
12540SOL    HW238863   7.468   3.579   5.296 -1.5511 -1.4475  1.5391
12541SOL     OW38864   4.138   3.467   3.243 -0.8936 -0.6579  0.2132
12541SOL    HW138865   4.189   3.393   3.276 -0.4319 -0.0426  0.8773
12541SOL    HW238866   4.126   3.449   3.150  0.8371 -0.6183 -0.0166
12542SOL     OW38867   2.033   2.641   0.672 -0.3627  0.2896  0.4010
12542SOL    HW138868   2.049   2.549   0.693  2.2062  0.5880 -0.1124
12542SOL    HW238869   1.942   2.655   0.696 -0.0496 -1.6955  3.0068
12543SOL     OW38870   3.418   5.350   2.104  0.1173 -0.2085 -0.1120
12543SOL    HW138871   3.475   5.289   2.152  0.9695 -1.7068 -2.9055
12543SOL    HW238872   3.478   5.411   2.062 -0.6634  1.6210  1.3755
12544SOL     OW38873   3.131   5.524   7.177  0.2788  0.1664 -0.1019
12544SOL    HW138874   3.092   5.440   7.154 -0.6764  0.6220 -0.1600
12544SOL    HW238875   3.218   5.502   7.211 -0.0758 -0.8628  0.1409
12545SOL     OW38876   2.372   2.406   2.790  0.2800 -0.2614  0.3736
12545SOL    HW138877   2.418   2.465   2.731 -0.7618  0.5367  0.3412
12545SOL    HW238878   2.304   2.366   2.735  1.0536 -1.6048  0.3575
12546SOL     OW38879   2.835   7.508   0.722 -0.4250  0.2904  0.2035
12546SOL    HW138880   2.832   7.572   0.651  2.4293 -2.0793 -2.1715
12546SOL    HW238881   2.760   7.451   0.707 -1.4927  1.4841  0.8469
12547SOL     OW38882   5.123   4.879   6.709  0.1715  0.0653 -0.2432
12547SOL    HW138883   5.054   4.867   6.774  1.0281  0.0299  0.6824
12547SOL    HW238884   5.190   4.930   6.755  1.0515 -0.4845 -0.8983
12548SOL     OW38885   2.697   3.563   0.133  0.0210  0.3573 -0.0714
12548SOL    HW138886   2.697   3.562   0.229  1.4793 -1.1604 -0.0663
12548SOL    HW238887   2.755   3.636   0.110 -0.4933  0.8565  0.1861
12549SOL     OW38888   3.347   5.060   2.704  0.2440  0.2305  0.1500
12549SOL    HW138889   3.273   5.120   2.700  0.5110  0.5262 -0.6179
12549SOL    HW238890   3.308   4.973   2.709 -0.1840  0.2984 -1.6391
12550SOL     OW38891   7.169   1.073   1.589 -0.1894 -0.6012  0.7979
12550SOL    HW138892   7.230   1.065   1.516  0.3532  0.9786  1.0710
12550SOL    HW238893   7.115   1.149   1.568 -0.8844 -0.9199  1.4124
12551SOL     OW38894   7.678   6.984   5.642 -0.1112 -0.0240 -0.5103
12551SOL    HW138895   7.602   6.947   5.687  0.0193 -1.0309 -1.0864
12551SOL    HW238896   7.644   7.062   5.598 -0.9195 -0.6992 -1.1076
12552SOL     OW38897   6.443   3.219   2.993  0.1651  0.4745  0.3204
12552SOL    HW138898   6.448   3.139   2.941 -0.7285  1.5179 -1.3944
12552SOL    HW238899   6.509   3.206   3.061  1.5075 -0.8451 -1.1687
12553SOL     OW38900   7.087   7.632   4.931 -0.0617  0.6262 -0.3433
12553SOL    HW138901   7.162   7.607   4.876  0.4702  0.8399  0.2776
12553SOL    HW238902   7.126   7.672   5.008 -0.6310 -2.7102  1.7927
12554SOL     OW38903   6.391   1.822   1.964 -0.4128 -0.1422  0.2284
12554SOL    HW138904   6.343   1.739   1.974 -2.3559  0.9019 -0.0984
12554SOL    HW238905   6.392   1.836   1.869 -0.7902  0.5964  0.3350
12555SOL     OW38906   3.489   4.522   6.559 -0.0188  0.6839  0.4010
12555SOL    HW138907   3.405   4.546   6.519 -0.4511  1.0646  1.5148
12555SOL    HW238908   3.552   4.582   6.521 -0.6833  2.0282  1.4057
12556SOL     OW38909   8.045   8.039   3.808  0.1031  0.3283  0.4156
12556SOL    HW138910   8.015   8.075   3.891 -0.4870 -0.6373  0.6220
12556SOL    HW238911   8.139   8.023   3.821 -0.1253 -0.4588  1.1204
12557SOL     OW38912   0.527   2.923   3.028 -0.4208 -0.1223  0.1605
12557SOL    HW138913   0.576   2.841   3.034 -1.7319 -0.9581 -0.2631
12557SOL    HW238914   0.488   2.922   2.941 -0.0204  1.2079 -0.0507
12558SOL     OW38915   7.650   1.802   2.184 -0.2660  0.0255 -0.0307
12558SOL    HW138916   7.744   1.796   2.167  0.1313 -1.6862  2.5795
12558SOL    HW238917   7.623   1.882   2.138  2.2630  0.0260 -1.6041
12559SOL     OW38918   6.885   2.101   4.999  0.8290  0.0966 -0.0947
12559SOL    HW138919   6.879   2.068   5.089  1.0372  1.5259  0.4577
12559SOL    HW238920   6.799   2.081   4.961  1.4317 -2.3103 -0.2205
12560SOL     OW38921   3.119   0.232   4.815  0.6007  0.4530 -0.0714
12560SOL    HW138922   3.111   0.254   4.722 -1.7813 -0.0704 -0.0198
12560SOL    HW238923   3.067   0.298   4.860 -2.7557 -2.3523  0.4235
12561SOL     OW38924   2.696   0.575   6.219  0.0549 -0.0862  0.0673
12561SOL    HW138925   2.647   0.495   6.197 -0.8532  0.0996  1.3403
12561SOL    HW238926   2.738   0.556   6.302 -0.5766  0.9425  0.6323
12562SOL     OW38927   8.206   6.952   2.781  0.3960 -0.2970  0.1404
12562SOL    HW138928   8.139   6.898   2.822 -2.1720  1.4927 -1.5347
12562SOL    HW238929   8.248   6.895   2.717 -1.0278 -0.8427 -0.3191
12563SOL     OW38930   5.151   2.126   0.939 -0.1864 -0.4098  0.4087
12563SOL    HW138931   5.245   2.119   0.958 -0.2892 -0.9577  0.7476
12563SOL    HW238932   5.123   2.205   0.986  0.2983  0.3117 -0.5087
12564SOL     OW38933   7.327   2.181   4.002  0.0712  0.0822  0.2395
12564SOL    HW138934   7.416   2.146   3.993 -0.1443 -0.6243  0.8504
12564SOL    HW238935   7.332   2.267   3.961  0.8615 -0.2436 -0.3682
12565SOL     OW38936   0.118   5.197   5.999 -0.4831  0.1411  0.0022
12565SOL    HW138937   0.030   5.226   6.021 -1.0852 -0.3101 -1.7688
12565SOL    HW238938   0.172   5.228   6.072 -1.9442  1.2191  0.6510
12566SOL     OW38939   2.483   5.089   0.717 -0.0306 -0.4428  0.3394
12566SOL    HW138940   2.513   4.999   0.729  0.2811 -0.7229 -2.2068
12566SOL    HW238941   2.395   5.081   0.681  0.0027  0.2387  0.0802
12567SOL     OW38942   1.872   6.934   2.067 -0.0930  0.1155 -0.6323
12567SOL    HW138943   1.919   6.955   2.148 -1.2069 -0.5032  0.1894
12567SOL    HW238944   1.858   7.020   2.026  0.6423  0.4206 -0.2626
12568SOL     OW38945   1.577   6.357   2.955 -0.4144 -0.3679 -0.1007
12568SOL    HW138946   1.496   6.310   2.935 -0.8439 -0.3639  1.5388
12568SOL    HW238947   1.550   6.447   2.973  0.0936 -0.0990 -0.6644
12569SOL     OW38948   0.925   0.175   8.243 -0.2084  0.0361 -0.3699
12569SOL    HW138949   1.016   0.198   8.260 -0.5099  0.0497  1.2732
12569SOL    HW238950   0.888   0.254   8.202  0.2700  0.3672 -0.1704
12570SOL     OW38951   7.241   2.388   4.890  0.1166 -0.1777 -0.6013
12570SOL    HW138952   7.331   2.361   4.903  0.4361  0.3140 -1.7002
12570SOL    HW238953   7.224   2.372   4.797 -0.7913  0.1064 -0.4929
12571SOL     OW38954   4.710   6.484   2.879  0.2728  0.3412 -0.0611
12571SOL    HW138955   4.777   6.432   2.923 -0.6180 -0.1051  0.7831
12571SOL    HW238956   4.628   6.456   2.919 -0.1729  2.8370  0.8328
12572SOL     OW38957   2.591   8.228   0.125  0.2973  0.3647  0.2367
12572SOL    HW138958   2.680   8.236   0.090 -0.8269  0.6303 -2.7359
12572SOL    HW238959   2.551   8.314   0.109 -0.7986 -0.0525  0.6495
12573SOL     OW38960   4.711   1.045   5.453 -0.8989  0.4773 -0.1402
12573SOL    HW138961   4.767   1.038   5.530  0.2768 -0.6289 -1.0870
12573SOL    HW238962   4.689   0.955   5.430 -0.6889  0.7581 -1.4894
12574SOL     OW38963   2.889   7.840   7.328  0.0608  0.0914 -0.0975
12574SOL    HW138964   2.890   7.879   7.416 -2.3081 -1.1829  0.5183
12574SOL    HW238965   2.863   7.911   7.270 -3.5338 -0.3349  0.9263
12575SOL     OW38966   5.842   2.473   0.038  0.3679  0.3875  0.4148
12575SOL    HW138967   5.841   2.502   0.130  1.2907  0.7507  0.3192
12575SOL    HW238968   5.815   2.551  -0.011  0.6468  0.4271  0.3227
12576SOL     OW38969   4.258   5.673   6.054  0.3047  0.0438  0.4790
12576SOL    HW138970   4.192   5.605   6.069 -0.5997  1.1965  1.8382
12576SOL    HW238971   4.325   5.656   6.120  0.7874 -0.3892 -0.1159
12577SOL     OW38972   1.548   4.913   7.908 -0.1765  0.0808  0.2135
12577SOL    HW138973   1.587   4.903   7.995  1.7495  0.8489 -0.5208
12577SOL    HW238974   1.556   4.826   7.868 -0.5952 -0.1439  0.6231
12578SOL     OW38975   7.769   7.650   6.811 -0.0079  0.3329 -0.1961
12578SOL    HW138976   7.754   7.687   6.897 -0.7199  1.1192 -0.6589
12578SOL    HW238977   7.703   7.690   6.755  1.6101  1.2545 -1.5054
12579SOL     OW38978   4.134   2.551   7.513  0.0124 -0.0024 -0.3417
12579SOL    HW138979   4.071   2.594   7.455  2.3453 -1.2183 -3.8986
12579SOL    HW238980   4.097   2.464   7.528 -1.0924  0.6542  0.9279
12580SOL     OW38981   8.206   3.610   1.859 -0.2447  0.0220  0.3809
12580SOL    HW138982   8.115   3.604   1.886 -0.9180  0.2749 -1.7448
12580SOL    HW238983   8.220   3.702   1.838  0.2171 -0.1691 -0.1918
12581SOL     OW38984   0.027   2.372   5.640  0.2554  0.1113  0.0124
12581SOL    HW138985  -0.032   2.382   5.714 -0.0837 -0.7877 -0.1233
12581SOL    HW238986   0.084   2.449   5.643  0.9282 -0.4320  1.8049
12582SOL     OW38987   7.069   3.546   1.663 -0.3397  0.0221 -0.4645
12582SOL    HW138988   7.130   3.567   1.592  0.2611 -1.2993 -0.3667
12582SOL    HW238989   7.045   3.631   1.700  3.0601  0.4922  0.8333
12583SOL     OW38990   5.542   7.146   3.010 -0.2061 -0.0177 -0.0468
12583SOL    HW138991   5.545   7.229   3.059 -0.9681 -0.4651  0.7721
12583SOL    HW238992   5.565   7.171   2.920 -0.1364  1.0391  0.2510
12584SOL     OW38993   0.057   3.051   7.891  0.4848  0.0010  0.1339
12584SOL    HW138994  -0.008   3.090   7.950  0.9606  2.0729 -0.6692
12584SOL    HW238995   0.140   3.091   7.917  0.9479 -0.2706 -0.8938
12585SOL     OW38996   0.368   0.502   2.426 -0.6857 -0.0654 -0.2674
12585SOL    HW138997   0.409   0.417   2.443 -2.0006 -0.7205 -0.3562
12585SOL    HW238998   0.406   0.561   2.491 -1.1993 -1.1584  1.0195
12586SOL     OW38999   2.852   2.882   3.719  0.7802  0.5238 -0.1291
12586SOL    HW139000   2.836   2.897   3.626 -0.1449  0.9582  0.0933
12586SOL    HW239001   2.941   2.848   3.723  0.8233  0.4974 -1.1739
12587SOL     OW39002   2.995   0.377   3.410 -0.3171 -0.3707  0.6113
12587SOL    HW139003   2.983   0.288   3.443 -0.1933 -0.4458  0.4578
12587SOL    HW239004   2.907   0.409   3.392 -0.3990 -0.2447  1.2313
12588SOL     OW39005   1.824   2.548   5.384 -0.3385 -0.4926 -0.7497
12588SOL    HW139006   1.804   2.642   5.386  0.8280 -0.1919 -2.2080
12588SOL    HW239007   1.769   2.510   5.453 -1.5818  1.1104 -0.8316
12589SOL     OW39008   3.249   4.922   7.771  0.1023 -0.2039  0.4748
12589SOL    HW139009   3.217   4.965   7.692 -0.4698 -0.8775  0.3374
12589SOL    HW239010   3.333   4.884   7.745 -0.2248 -0.6780  0.1079
12590SOL     OW39011   6.461   0.514   4.290 -0.3319 -0.7904  0.0577
12590SOL    HW139012   6.546   0.552   4.311 -0.2857 -0.5361 -0.5994
12590SOL    HW239013   6.454   0.519   4.195 -0.2841 -2.5043 -0.0628
12591SOL     OW39014   3.833   2.246   1.158 -0.0334 -0.2732 -0.1975
12591SOL    HW139015   3.905   2.188   1.132 -0.3342 -0.6072 -0.2899
12591SOL    HW239016   3.756   2.189   1.161 -0.5254  0.3151 -1.2708
12592SOL     OW39017   1.437   7.695   0.441 -0.2830 -0.0901  0.4372
12592SOL    HW139018   1.380   7.770   0.424  0.2137  0.0602 -0.5799
12592SOL    HW239019   1.426   7.677   0.534  1.3032  2.6951  1.2272
12593SOL     OW39020   4.000   0.049   1.726  0.1306  0.2598 -0.2820
12593SOL    HW139021   3.910   0.050   1.692  0.0113 -1.7725 -0.0965
12593SOL    HW239022   4.047  -0.008   1.666  0.4570 -1.5484  1.6542
12594SOL     OW39023   1.245   0.067   7.959  0.6418  0.2383 -0.3523
12594SOL    HW139024   1.243   0.013   7.879  1.9567  1.6846 -1.3978
12594SOL    HW239025   1.171   0.036   8.010  0.4320 -1.4935 -1.6335
12595SOL     OW39026   8.234   0.838   2.922 -0.4955  0.1070  0.2808
12595SOL    HW139027   8.156   0.884   2.892 -0.1056 -0.9039 -2.4060
12595SOL    HW239028   8.307   0.896   2.898 -0.3304  0.5604  1.8207
12596SOL     OW39029   5.031   7.039   5.526 -0.1284  0.2946  0.0522
12596SOL    HW139030   5.072   6.959   5.493 -0.1544  0.5902 -0.7080
12596SOL    HW239031   4.953   7.049   5.471 -0.2029  0.7604  0.2471
12597SOL     OW39032   4.894   3.263   8.099 -0.1223 -0.1399  0.1017
12597SOL    HW139033   4.972   3.243   8.047  0.6764  0.6063  0.9888
12597SOL    HW239034   4.889   3.191   8.162  0.9135  0.7443  1.2225
12598SOL     OW39035   7.919   5.863   2.113  0.8891  0.1878 -0.8512
12598SOL    HW139036   7.863   5.789   2.088 -1.7451  2.1778 -1.0834
12598SOL    HW239037   7.945   5.844   2.203 -0.1953 -0.7525 -0.7248
12599SOL     OW39038   3.327   6.698   4.431  0.1906  0.3357  0.0263
12599SOL    HW139039   3.365   6.615   4.402  2.0111  0.9618  0.5098
12599SOL    HW239040   3.285   6.735   4.354 -0.7601 -1.0977 -0.1533
12600SOL     OW39041   6.228   6.547   7.461  0.0046 -0.3294  0.3127
12600SOL    HW139042   6.247   6.490   7.536  0.9538 -0.6181 -0.1476
12600SOL    HW239043   6.133   6.540   7.450 -0.1004 -0.5433  1.2840
12601SOL     OW39044   2.668   7.929   6.373  0.3420  0.1675 -0.0276
12601SOL    HW139045   2.669   7.879   6.454  1.1818 -0.6965 -0.5670
12601SOL    HW239046   2.701   8.016   6.398  0.0915  0.0663  0.6575
12602SOL     OW39047   3.072   2.063   5.385 -0.0795  0.2758  0.4793
12602SOL    HW139048   2.993   2.027   5.346  0.9991 -1.1288 -0.4527
12602SOL    HW239049   3.133   1.989   5.389  1.2916  1.4013  0.8829
12603SOL     OW39050   6.611   4.997   4.405 -0.1941  0.0596 -0.5833
12603SOL    HW139051   6.536   5.050   4.432 -0.5933 -1.2901  0.9513
12603SOL    HW239052   6.685   5.057   4.410 -0.8343  0.8114 -0.0329
12604SOL     OW39053   5.689   2.602   6.373  0.4257 -0.0759 -0.1275
12604SOL    HW139054   5.704   2.529   6.433 -0.5717 -1.3258 -1.3587
12604SOL    HW239055   5.596   2.620   6.381  0.3675  0.0249 -0.9632
12605SOL     OW39056   3.090   4.400   5.791 -0.5367  0.7384 -0.0111
12605SOL    HW139057   3.165   4.447   5.827 -0.5821  0.6011  0.2670
12605SOL    HW239058   3.050   4.357   5.867  1.0132 -1.8675 -0.6155
12606SOL     OW39059   0.906   8.235   7.991 -0.0469 -0.0498  0.7192
12606SOL    HW139060   0.840   8.293   7.953  0.6257  0.3042  0.0765
12606SOL    HW239061   0.897   8.247   8.085 -1.5523 -0.7322  0.6837
12607SOL     OW39062   1.091   8.047   7.489  0.0853  0.0114 -0.3823
12607SOL    HW139063   1.030   8.120   7.478 -0.8154 -0.5858  0.5217
12607SOL    HW239064   1.099   8.037   7.584  0.8392 -0.5382 -0.5004
12608SOL     OW39065   7.523   0.148   5.931  0.0752  0.1776  0.2321
12608SOL    HW139066   7.466   0.143   6.008  1.5164  0.2008  1.3251
12608SOL    HW239067   7.472   0.196   5.866 -1.5926 -0.8098  0.7825
12609SOL     OW39068   0.580   1.356   8.186 -0.1899  0.5309 -0.2346
12609SOL    HW139069   0.605   1.429   8.130  1.1524 -1.0427 -1.7465
12609SOL    HW239070   0.657   1.338   8.239  0.2907 -1.2547 -1.5016
12610SOL     OW39071   6.766   0.158   7.561  0.0074 -0.3711 -0.9379
12610SOL    HW139072   6.726   0.078   7.596  0.6807 -0.2326  0.1659
12610SOL    HW239073   6.855   0.158   7.596  0.0090  0.8758 -0.9136
12611SOL     OW39074   7.600   1.638   6.492 -0.3547  0.4099 -0.0108
12611SOL    HW139075   7.623   1.594   6.410 -0.6249 -1.7139  1.0150
12611SOL    HW239076   7.515   1.600   6.516 -0.4352  1.2678  1.0740
12612SOL     OW39077   6.841   6.685   7.195  0.4627 -0.1168  0.8513
12612SOL    HW139078   6.887   6.769   7.197 -0.8962  0.6606  0.2806
12612SOL    HW239079   6.803   6.677   7.283  0.6566 -0.1802  0.9306
12613SOL     OW39080   6.689   1.064   2.151  0.1056  0.3025  0.5380
12613SOL    HW139081   6.683   1.011   2.230 -0.0429  1.0714  1.0537
12613SOL    HW239082   6.771   1.037   2.109 -0.4794 -1.0558  0.2469
12614SOL     OW39083   3.752   6.918   1.819 -0.0132 -0.4083 -0.4933
12614SOL    HW139084   3.728   7.001   1.860 -0.8532 -0.6393 -0.5071
12614SOL    HW239085   3.805   6.874   1.885  1.6309  0.7352 -1.0231
12615SOL     OW39086   2.007   3.390   7.882  0.0843 -0.7533  0.4112
12615SOL    HW139087   1.931   3.446   7.868 -0.9349 -1.6564  2.1420
12615SOL    HW239088   2.054   3.430   7.955 -0.0136 -1.4640  0.8784
12616SOL     OW39089   3.965   6.435   2.366  0.3963  0.4139  0.4433
12616SOL    HW139090   3.940   6.439   2.274  3.6544 -1.1731 -0.6082
12616SOL    HW239091   3.970   6.341   2.385  1.6097  0.7045  1.6620
12617SOL     OW39092   7.309   1.606   5.501  0.7789 -0.4564  0.6662
12617SOL    HW139093   7.385   1.657   5.473 -1.8653  2.3737 -1.6361
12617SOL    HW239094   7.253   1.669   5.546 -0.1543 -2.5608  2.5442
12618SOL     OW39095   4.429   1.972   5.565  0.6275 -0.4405 -0.0446
12618SOL    HW139096   4.475   2.001   5.486 -0.8344 -0.6364 -0.9910
12618SOL    HW239097   4.429   1.876   5.560  0.3793 -0.4503  0.1066
12619SOL     OW39098   3.698   0.323   3.339  0.3022  0.3673  1.0174
12619SOL    HW139099   3.771   0.264   3.358 -0.2084 -0.2096  1.2088
12619SOL    HW239100   3.636   0.270   3.288  1.6588  1.8991 -2.3419
12620SOL     OW39101   4.307   4.752   0.806  0.0324 -0.0305  0.3409
12620SOL    HW139102   4.338   4.825   0.752 -2.2736 -0.0415 -1.0647
12620SOL    HW239103   4.285   4.793   0.890  0.8337  0.5202  0.2876
12621SOL     OW39104   6.736   2.540   2.904  0.4808 -0.3287 -0.4828
12621SOL    HW139105   6.722   2.464   2.960 -0.1645  0.0028 -0.1898
12621SOL    HW239106   6.831   2.548   2.898  0.5748 -1.9933 -1.6593
12622SOL     OW39107   0.633   1.032   0.488  0.3035  0.5636  0.0769
12622SOL    HW139108   0.578   1.098   0.532  1.8117  1.4652  0.6343
12622SOL    HW239109   0.715   1.034   0.536  0.1115 -2.2945  0.5769
12623SOL     OW39110   0.919   6.579   4.871 -0.1051  0.5346 -0.6344
12623SOL    HW139111   0.957   6.520   4.937 -1.0966 -0.3523 -0.8362
12623SOL    HW239112   0.973   6.566   4.794 -0.3605 -0.1942 -0.7016
12624SOL     OW39113   5.128   2.407   2.990 -0.3012 -0.3582 -0.6185
12624SOL    HW139114   5.102   2.354   3.066 -0.5239 -0.6016 -0.8611
12624SOL    HW239115   5.064   2.478   2.989  1.5104  1.3576  1.2030
12625SOL     OW39116   0.780   6.575   6.110 -0.2176 -0.1019 -0.3264
12625SOL    HW139117   0.727   6.502   6.142  0.1328 -0.6990 -1.1181
12625SOL    HW239118   0.719   6.650   6.111 -1.5615 -1.1175 -2.7667
12626SOL     OW39119   2.570   1.531   3.106 -0.1783 -0.0360  0.0562
12626SOL    HW139120   2.503   1.587   3.146  0.7622  0.5089  0.8840
12626SOL    HW239121   2.607   1.585   3.036  0.2146  0.1053  0.3715
12627SOL     OW39122   1.956   5.328   6.066  0.5359 -0.0228  0.4380
12627SOL    HW139123   1.876   5.329   6.118 -0.0267 -0.3997 -0.4036
12627SOL    HW239124   1.991   5.417   6.073 -0.2437  0.2925  0.3756
12628SOL     OW39125   6.566   4.703   2.443 -0.2337  0.2652  0.0584
12628SOL    HW139126   6.482   4.672   2.409  0.0091  0.4214 -0.6851
12628SOL    HW239127   6.559   4.799   2.440 -0.1492  0.2789  0.2966
12629SOL     OW39128   1.251   2.688   7.634  0.6274 -0.1136  0.1769
12629SOL    HW139129   1.306   2.678   7.556  0.3357  0.2642 -0.0817
12629SOL    HW239130   1.291   2.632   7.700  1.7427  0.7009  0.2090
12630SOL     OW39131   1.359   6.875   8.183 -0.1008  0.5822  0.2618
12630SOL    HW139132   1.359   6.815   8.258 -0.0582  0.9066  0.5231
12630SOL    HW239133   1.339   6.819   8.108 -1.2128  0.4211  0.6589
12631SOL     OW39134   5.290   0.388   1.844  0.5486 -0.3920 -0.0267
12631SOL    HW139135   5.281   0.409   1.937  0.5261  1.5621 -0.4330
12631SOL    HW239136   5.367   0.438   1.816 -0.1519 -0.0074 -1.3210
12632SOL     OW39137   3.047   0.037   1.562  0.0503 -0.3903 -0.0941
12632SOL    HW139138   3.090   0.115   1.527 -1.7800  0.8808  0.4134
12632SOL    HW239139   3.066   0.039   1.656  1.8657 -1.7941 -0.4016
12633SOL     OW39140   4.302   5.527   6.788 -0.1015 -0.4565 -0.1748
12633SOL    HW139141   4.320   5.609   6.743  2.5191 -1.5385 -1.1741
12633SOL    HW239142   4.386   5.499   6.824 -1.5104 -1.2367  2.7532
12634SOL     OW39143   6.609   3.966   4.430 -0.2563 -0.4390 -0.1566
12634SOL    HW139144   6.554   3.957   4.352  0.8944 -0.7010 -0.9509
12634SOL    HW239145   6.697   3.982   4.396  0.5202 -1.9856  1.0427
12635SOL     OW39146   6.712   5.742   3.744 -0.1805  0.1437 -0.3915
12635SOL    HW139147   6.629   5.783   3.718  0.3128  0.6040 -1.2693
12635SOL    HW239148   6.695   5.648   3.737 -0.1402  0.2504 -2.1914
12636SOL     OW39149   3.203   0.211   1.134 -0.2991 -0.7618  0.2760
12636SOL    HW139150   3.200   0.141   1.069  0.7666 -1.9456  1.4981
12636SOL    HW239151   3.151   0.179   1.207 -0.5474  0.1003  0.4876
12637SOL     OW39152   6.979   0.363   5.735  0.6212 -0.1038 -0.2420
12637SOL    HW139153   7.019   0.344   5.650  1.1062 -2.1741  0.4148
12637SOL    HW239154   6.910   0.298   5.745 -0.5198  1.1473  0.2601
12638SOL     OW39155   5.962   4.242   1.041  0.6662 -0.2521  0.2087
12638SOL    HW139156   6.036   4.274   1.093  0.7991 -1.5716  0.8486
12638SOL    HW239157   5.957   4.149   1.061  0.4328 -0.6956 -1.8223
12639SOL     OW39158   4.871   4.270   0.717  0.3776 -0.0355 -0.2651
12639SOL    HW139159   4.897   4.362   0.715 -0.5983  0.2519 -0.3887
12639SOL    HW239160   4.839   4.253   0.628 -1.0805  0.0144  0.2298
12640SOL     OW39161   4.450   1.542   5.242 -0.0357  0.4720  0.4936
12640SOL    HW139162   4.488   1.503   5.320  0.9398 -1.6685 -1.0116
12640SOL    HW239163   4.525   1.576   5.193 -0.6186  1.5692  0.3261
12641SOL     OW39164   6.387   8.246   4.053 -0.2821 -0.4922 -0.2273
12641SOL    HW139165   6.436   8.215   4.129  0.6134  0.4292 -0.4201
12641SOL    HW239166   6.398   8.341   4.054  0.0064 -0.5012 -1.6992
12642SOL     OW39167   3.871   1.861   2.798 -0.5258 -0.4905  0.4640
12642SOL    HW139168   3.917   1.911   2.731 -2.3502 -0.0400 -0.4839
12642SOL    HW239169   3.931   1.859   2.873 -0.0595  2.3370  0.1952
12643SOL     OW39170   3.009   4.715   6.740 -0.1670 -0.6812 -0.3423
12643SOL    HW139171   3.092   4.670   6.743 -0.4618 -1.2665 -0.8732
12643SOL    HW239172   3.017   4.775   6.665  0.2403  0.1905  0.3880
12644SOL     OW39173   0.071   8.070   8.164  0.3739 -0.4285  0.1489
12644SOL    HW139174  -0.023   8.070   8.186  0.3829  1.2445  0.2461
12644SOL    HW239175   0.111   8.126   8.230  1.0204  1.2516 -1.6230
12645SOL     OW39176   0.584   0.690   7.969  0.1788  0.5476 -0.2553
12645SOL    HW139177   0.521   0.674   7.899  1.0562  1.2366 -1.2305
12645SOL    HW239178   0.668   0.704   7.923  0.5331  2.2473  0.8323
12646SOL     OW39179   5.483   7.231   7.334 -0.4973  0.1421 -0.0385
12646SOL    HW139180   5.389   7.220   7.324 -0.4488 -0.9247  0.5240
12646SOL    HW239181   5.514   7.144   7.359  0.7515  0.2855 -1.0470
12647SOL     OW39182   2.927   7.943   5.399  0.4177 -0.0640  0.2398
12647SOL    HW139183   2.889   7.887   5.332  0.2660  1.0859 -0.6557
12647SOL    HW239184   3.001   7.986   5.356  1.1064 -0.2813  1.1873
12648SOL     OW39185   6.937   3.958   1.049  0.4454 -0.3287  0.9037
12648SOL    HW139186   6.842   3.956   1.062  0.0684 -1.5750 -1.7934
12648SOL    HW239187   6.964   4.041   1.087 -2.1164  1.3010 -0.6853
12649SOL     OW39188   2.888   7.221   1.874 -0.1508  0.1909  0.6863
12649SOL    HW139189   2.971   7.248   1.836  0.4367 -1.0918  1.0397
12649SOL    HW239190   2.912   7.166   1.949 -1.2937 -0.6812  0.4355
12650SOL     OW39191   1.302   7.166   0.509  0.3380 -0.5218  0.2762
12650SOL    HW139192   1.358   7.104   0.555  2.0340  0.8787  0.1635
12650SOL    HW239193   1.264   7.220   0.579 -1.4495 -1.9001  0.4055
12651SOL     OW39194   1.071   2.240   6.791 -0.0688  0.0729 -0.5516
12651SOL    HW139195   1.113   2.315   6.833 -0.9900  0.5412 -0.4356
12651SOL    HW239196   0.990   2.228   6.842 -0.5261 -0.2130 -1.3365
12652SOL     OW39197   4.189   0.192   6.689  0.2717 -0.3397  0.2929
12652SOL    HW139198   4.228   0.272   6.655 -0.2410 -0.2544 -0.1206
12652SOL    HW239199   4.209   0.125   6.623 -1.5299  0.0299 -0.6857
12653SOL     OW39200   7.040   3.668   3.059 -0.1659  0.5574 -0.2857
12653SOL    HW139201   6.996   3.596   3.013  1.1065 -0.6579  0.3622
12653SOL    HW239202   7.060   3.632   3.145  0.8780  1.5479 -0.1058
12654SOL     OW39203   7.220   5.248   6.778  0.0552  0.2337 -0.0556
12654SOL    HW139204   7.239   5.261   6.685  1.5983  0.2847  0.2454
12654SOL    HW239205   7.149   5.308   6.797 -1.1328 -0.6784 -1.4931
12655SOL     OW39206   1.911   7.938   5.481 -0.1771  0.0355 -0.7044
12655SOL    HW139207   1.988   7.931   5.538 -1.2336  2.8119  1.2023
12655SOL    HW239208   1.846   7.880   5.521 -0.4887  1.0158  0.2563
12656SOL     OW39209   7.779   4.265   4.239 -0.5275  0.1357 -0.0039
12656SOL    HW139210   7.792   4.229   4.326 -0.5385 -0.8416 -0.3957
12656SOL    HW239211   7.825   4.349   4.240 -0.9590  0.3669  1.0908
12657SOL     OW39212   1.466   1.290   0.249  0.0879  0.0113  0.4595
12657SOL    HW139213   1.374   1.300   0.273 -0.2347 -0.0783 -0.6860
12657SOL    HW239214   1.509   1.258   0.329 -0.9849 -0.5456  0.8240
12658SOL     OW39215   1.473   5.293   5.013 -0.1125 -0.2198 -0.1240
12658SOL    HW139216   1.442   5.383   5.002  0.3296 -0.2681 -1.7703
12658SOL    HW239217   1.402   5.249   5.060 -0.5472  0.8476  0.2456
12659SOL     OW39218   7.566   0.202   7.676 -0.0934  0.0189  0.4850
12659SOL    HW139219   7.654   0.166   7.669 -0.5141 -0.9625  0.2042
12659SOL    HW239220   7.537   0.179   7.764 -0.3000 -0.2022  0.3615
12660SOL     OW39221   0.893   5.227   3.239 -0.1765  0.3683  0.1816
12660SOL    HW139222   0.879   5.322   3.246 -0.5337  0.5055 -2.0557
12660SOL    HW239223   0.954   5.217   3.167  0.2085 -1.0999  0.7004
12661SOL     OW39224   2.858   1.478   1.505  0.4121  0.0024  0.3752
12661SOL    HW139225   2.892   1.562   1.473  1.2582 -0.1469  0.8807
12661SOL    HW239226   2.779   1.464   1.453 -1.2621  2.4404  2.1608
12662SOL     OW39227   0.449   8.082   1.294 -0.2425  0.1754 -0.7153
12662SOL    HW139228   0.368   8.039   1.321  0.1978  0.3434  0.8900
12662SOL    HW239229   0.511   8.011   1.280 -0.4134  0.1022 -1.1127
12663SOL     OW39230   4.714   7.525   0.116  0.3953 -0.3955  0.2806
12663SOL    HW139231   4.806   7.541   0.135  0.5309  1.0305 -1.4648
12663SOL    HW239232   4.704   7.546   0.023 -1.9046  0.4806  0.6741
12664SOL     OW39233   2.271   6.387   5.981 -0.7502 -0.1948  0.4021
12664SOL    HW139234   2.204   6.397   5.913 -1.0744  1.6544  0.9542
12664SOL    HW239235   2.336   6.329   5.943 -1.5640 -0.2160 -0.9927
12665SOL     OW39236   2.316   7.578   0.041  0.1716 -0.2872 -0.6477
12665SOL    HW139237   2.311   7.665   0.002 -0.9292  1.6395  3.4703
12665SOL    HW239238   2.237   7.533   0.011  0.8888 -0.0302 -3.0215
12666SOL     OW39239   4.899   5.591   1.617 -0.5435  0.4728  0.0224
12666SOL    HW139240   4.883   5.685   1.618 -0.2100  0.5363 -0.5675
12666SOL    HW239241   4.845   5.557   1.546 -0.8144  0.1905  0.3612
12667SOL     OW39242   2.477   0.848   3.683  0.1722  0.6788  0.2069
12667SOL    HW139243   2.428   0.849   3.765 -0.2386  1.5516 -0.0413
12667SOL    HW239244   2.556   0.898   3.702  1.7024 -1.9557  1.0309
12668SOL     OW39245   6.526   5.768   0.235 -0.2575  0.6309 -0.1494
12668SOL    HW139246   6.456   5.704   0.246 -0.5992  1.0277 -0.0120
12668SOL    HW239247   6.584   5.729   0.170  1.3047 -1.3513  2.3022
12669SOL     OW39248   1.543   3.742   8.069  0.1218  0.1210 -1.0628
12669SOL    HW139249   1.478   3.680   8.102  1.2346 -0.2980  0.3751
12669SOL    HW239250   1.616   3.687   8.042  0.8364  0.7588 -0.4341
12670SOL     OW39251   1.677   1.810   1.464 -0.6913  0.0612  0.5818
12670SOL    HW139252   1.588   1.802   1.431 -0.6959  0.9600  0.3662
12670SOL    HW239253   1.676   1.766   1.549 -1.2850 -0.1008  0.4896
12671SOL     OW39254   2.794   2.536   7.858 -0.7652  0.0455  0.2179
12671SOL    HW139255   2.804   2.493   7.774 -1.4551 -0.9396  0.6274
12671SOL    HW239256   2.822   2.470   7.922  1.2656  1.3161  0.6891
12672SOL     OW39257   1.094   2.058   2.199  0.2541  0.2837  0.3189
12672SOL    HW139258   1.017   2.095   2.155 -0.0179  1.1481  1.4737
12672SOL    HW239259   1.058   1.993   2.259  0.3327  1.3654  1.5455
12673SOL     OW39260   5.925   6.245   2.588  0.4264  0.7685  0.0082
12673SOL    HW139261   6.000   6.198   2.552  0.1829  0.1722  0.2720
12673SOL    HW239262   5.932   6.334   2.552  1.6620  0.9275  0.5997
12674SOL     OW39263   8.046   1.330   0.568 -0.7199  0.2254 -0.1714
12674SOL    HW139264   7.960   1.346   0.530 -1.0400  1.3491  0.9857
12674SOL    HW239265   8.063   1.407   0.623  0.1965 -0.8553  1.1018
12675SOL     OW39266   2.886   0.059   5.730 -0.0249  0.2365  0.4114
12675SOL    HW139267   2.921  -0.027   5.708  2.2494  0.8578  1.5174
12675SOL    HW239268   2.811   0.041   5.787 -0.1044 -1.0230 -0.0785
12676SOL     OW39269   4.121   5.775   4.890 -0.4112 -0.0166 -0.6883
12676SOL    HW139270   4.074   5.757   4.972  0.1033  0.6542 -0.2317
12676SOL    HW239271   4.208   5.737   4.904 -0.0801  0.7579 -0.6246
12677SOL     OW39272   0.812   5.736   6.199 -0.4401  0.0045 -0.0544
12677SOL    HW139273   0.842   5.819   6.162 -1.1036  0.7944  1.1737
12677SOL    HW239274   0.853   5.731   6.285 -1.6108 -0.2172  0.5032
12678SOL     OW39275   1.128   7.796   4.314  0.2365 -0.5572  0.5487
12678SOL    HW139276   1.169   7.875   4.348  0.0318  0.8231 -2.3043
12678SOL    HW239277   1.186   7.725   4.344  0.4977  0.6267  3.0092
12679SOL     OW39278   1.864   3.281   6.862 -0.2046  0.1424  0.1681
12679SOL    HW139279   1.912   3.199   6.876 -0.5853  0.2322  2.1473
12679SOL    HW239280   1.772   3.257   6.874 -0.6552  0.1163 -2.9151
12680SOL     OW39281   2.542   5.344   5.290 -0.0577 -0.1652  0.5394
12680SOL    HW139282   2.542   5.261   5.244 -0.2314  0.6379 -0.9517
12680SOL    HW239283   2.463   5.341   5.345 -0.3801 -0.7413  0.0518
12681SOL     OW39284   3.973   0.650   5.664  0.1729  0.2635 -0.4721
12681SOL    HW139285   4.032   0.677   5.734 -0.4698  0.0264  0.1692
12681SOL    HW239286   3.970   0.725   5.604 -0.2899  0.9798  0.4262
12682SOL     OW39287   6.766   7.418   7.998  0.2324  0.3363 -0.2826
12682SOL    HW139288   6.828   7.485   7.972 -0.2032  0.9445  0.2404
12682SOL    HW239289   6.768   7.354   7.926  2.4698 -0.3571  0.3533
12683SOL     OW39290   5.958   0.619   3.744  0.0416  0.6537  0.0126
12683SOL    HW139291   5.941   0.538   3.696  1.2048  0.0387  0.6298
12683SOL    HW239292   6.041   0.651   3.708 -0.1519  1.2989  0.1332
12684SOL     OW39293   0.070   0.083   0.962 -0.0435  0.1934 -0.0861
12684SOL    HW139294   0.156   0.075   1.004  1.4328 -0.0024 -3.0854
12684SOL    HW239295   0.031  -0.004   0.968  0.1230  0.1762  0.8630
12685SOL     OW39296   3.319   3.777   4.926  0.3561 -0.0320 -0.0365
12685SOL    HW139297   3.316   3.777   4.830  1.8065 -0.1237 -0.1019
12685SOL    HW239298   3.268   3.854   4.952  1.6683  1.1799 -0.9651
12686SOL     OW39299   4.730   1.902   1.054 -0.4683 -0.5942  0.3107
12686SOL    HW139300   4.808   1.866   1.011 -1.1482 -1.2752 -0.3758
12686SOL    HW239301   4.719   1.989   1.016 -1.7243 -1.6283 -1.7788
12687SOL     OW39302   3.035   2.892   4.767 -0.0726  0.1422  0.6302
12687SOL    HW139303   3.025   2.849   4.682 -0.4530 -0.1849  0.8399
12687SOL    HW239304   3.120   2.936   4.762 -0.7005  1.2641 -0.4236
12688SOL     OW39305   5.114   1.117   6.743 -0.1498 -0.4954 -0.1829
12688SOL    HW139306   5.088   1.174   6.671 -0.2326 -0.8313 -0.4204
12688SOL    HW239307   5.046   1.050   6.747  0.4498 -1.1354 -0.5347
12689SOL     OW39308   1.543   6.847   6.730  0.1576  0.2490 -0.2283
12689SOL    HW139309   1.548   6.773   6.791  1.8072  1.6750  1.4474
12689SOL    HW239310   1.612   6.829   6.666  0.5868  0.3507  0.2012
12690SOL     OW39311   0.324   5.402   5.704  0.3654  0.4453 -0.5757
12690SOL    HW139312   0.387   5.394   5.632  0.8433  0.3442 -0.1443
12690SOL    HW239313   0.291   5.313   5.716  0.0262  0.5254 -0.9024
12691SOL     OW39314   7.136   0.504   4.361 -0.7149 -0.4152 -0.0212
12691SOL    HW139315   7.135   0.543   4.449 -0.5340 -0.2061 -0.1098
12691SOL    HW239316   7.072   0.433   4.365 -0.5613 -0.5349  0.3395
12692SOL     OW39317   4.674   3.967   3.237  0.0506  0.2285 -0.1793
12692SOL    HW139318   4.647   3.947   3.327  1.1057 -0.7845 -0.0790
12692SOL    HW239319   4.650   4.059   3.225 -1.2749  0.0010  0.6963
12693SOL     OW39320   3.374   4.293   2.293  0.1685  0.0464  0.1744
12693SOL    HW139321   3.361   4.364   2.229  0.0417  1.2539  1.5152
12693SOL    HW239322   3.406   4.220   2.240  1.0973  1.3454 -1.1429
12694SOL     OW39323   5.628   5.973   6.845 -0.2415 -0.2761 -0.2695
12694SOL    HW139324   5.644   5.998   6.936  2.2529 -0.9207 -0.4992
12694SOL    HW239325   5.655   6.049   6.793  0.7956 -0.8632 -0.5993
12695SOL     OW39326   0.963   7.176   4.060  0.4459 -0.2288 -0.3713
12695SOL    HW139327   0.967   7.259   4.107 -0.4190  0.5172 -1.5867
12695SOL    HW239328   0.896   7.126   4.105 -0.2097  0.3871 -0.6553
12696SOL     OW39329   1.136   5.399   3.788  0.2849  0.3295 -1.0533
12696SOL    HW139330   1.063   5.338   3.801  1.1629 -0.9089 -1.8005
12696SOL    HW239331   1.155   5.393   3.695  0.5844  1.5410 -1.0749
12697SOL     OW39332   3.268   2.368   1.448 -0.1750  0.0653 -0.0128
12697SOL    HW139333   3.230   2.425   1.515 -0.4928  0.3620 -0.4398
12697SOL    HW239334   3.222   2.285   1.457  0.2551 -0.1090  0.5797
12698SOL     OW39335   7.674   3.504   4.864 -0.3263 -0.2665 -0.3049
12698SOL    HW139336   7.701   3.507   4.772  1.0887  0.6857  0.1296
12698SOL    HW239337   7.754   3.518   4.913 -1.2332  0.2150  1.0598
12699SOL     OW39338   7.348   5.582   1.911  0.0213  0.4569 -0.3750
12699SOL    HW139339   7.325   5.667   1.875  1.9585  1.4902  0.7265
12699SOL    HW239340   7.312   5.583   2.000  2.5111  1.3272  0.6759
12700SOL     OW39341   4.778   3.720   3.113 -0.4633  0.0349  0.2586
12700SOL    HW139342   4.807   3.665   3.186  0.4292  0.5797  0.3306
12700SOL    HW239343   4.758   3.804   3.154 -0.7578  0.0949 -0.0092
12701SOL     OW39344   6.526   0.263   1.242 -0.1610  0.1961  0.0387
12701SOL    HW139345   6.587   0.190   1.231  0.7482  1.1257 -1.3797
12701SOL    HW239346   6.450   0.225   1.285  0.3664 -1.5505 -0.5306
12702SOL     OW39347   7.540   1.075   8.232  0.3100 -0.3081  0.2167
12702SOL    HW139348   7.538   1.113   8.320  0.9740  0.6581 -0.1675
12702SOL    HW239349   7.507   1.145   8.175  2.0234 -0.1121 -0.5729
12703SOL     OW39350   6.278   3.203   4.186 -0.2116  0.0926 -0.2565
12703SOL    HW139351   6.337   3.174   4.256  0.3929 -0.7956 -1.1199
12703SOL    HW239352   6.330   3.267   4.136 -0.1839 -0.2557 -0.6738
12704SOL     OW39353   4.818   1.586   8.136 -0.0695  0.2067  0.2278
12704SOL    HW139354   4.838   1.592   8.229  0.3837 -1.5711  0.2499
12704SOL    HW239355   4.899   1.610   8.092  0.0857 -0.2090  0.2910
12705SOL     OW39356   6.806   8.065   6.999 -0.2044 -0.0628  0.1183
12705SOL    HW139357   6.715   8.077   6.972 -0.3058 -1.0696  0.0045
12705SOL    HW239358   6.851   8.143   6.966 -1.1335  0.7151  0.6761
12706SOL     OW39359   3.786   6.220   3.349 -0.3673 -0.3174  0.2925
12706SOL    HW139360   3.771   6.175   3.431  0.5360 -0.7472  0.2249
12706SOL    HW239361   3.739   6.169   3.284 -0.7525 -0.1998  0.4764
12707SOL     OW39362   7.952   4.578   5.065  0.3053 -0.4374  0.8427
12707SOL    HW139363   7.974   4.667   5.093 -0.6032  0.1092 -0.1648
12707SOL    HW239364   7.902   4.542   5.138  0.8963 -0.2222  1.3645
12708SOL     OW39365   0.709   4.817   8.037 -0.0950  0.1287  0.4055
12708SOL    HW139366   0.676   4.895   7.991 -2.0945 -1.0614 -0.2519
12708SOL    HW239367   0.804   4.826   8.034 -0.2694  1.9181 -0.7693
12709SOL     OW39368   0.347   1.989   6.656 -0.0724 -0.0783 -0.3054
12709SOL    HW139369   0.335   2.084   6.649 -3.7954 -0.5089 -0.5242
12709SOL    HW239370   0.290   1.963   6.729 -0.1312 -2.3184 -1.1165
12710SOL     OW39371   3.904   0.287   8.125  0.0463  0.3945  0.1341
12710SOL    HW139372   3.878   0.312   8.214 -1.1568  0.5494 -0.2592
12710SOL    HW239373   3.824   0.293   8.074  0.9408  1.2401 -1.1782
12711SOL     OW39374   0.053   3.837   8.214  0.2116 -0.0619 -0.0319
12711SOL    HW139375   0.116   3.900   8.248 -0.5055  0.2542  0.7487
12711SOL    HW239376   0.078   3.824   8.123  1.5419 -0.1301  0.3327
12712SOL     OW39377   1.236   6.654   7.243 -0.2351  1.2141 -0.6237
12712SOL    HW139378   1.329   6.672   7.261 -0.4049  1.2437  0.2699
12712SOL    HW239379   1.233   6.634   7.150  1.1142 -1.5766 -0.1286
12713SOL     OW39380   4.987   3.194   3.823  0.0804 -0.0249  0.3301
12713SOL    HW139381   4.916   3.208   3.760 -0.2780 -0.7668  0.5593
12713SOL    HW239382   5.056   3.254   3.794 -1.1867  1.8212  0.9940
12714SOL     OW39383   4.797   1.735   4.349  0.1503  0.2705 -0.0333
12714SOL    HW139384   4.773   1.693   4.432 -1.4789 -0.3120 -0.7753
12714SOL    HW239385   4.727   1.799   4.334  0.7121  0.7341 -0.7122
12715SOL     OW39386   5.210   2.522   4.471  0.2731  0.1363 -0.3436
12715SOL    HW139387   5.126   2.531   4.515  0.3808  0.2480 -0.1555
12715SOL    HW239388   5.199   2.447   4.412  0.6635 -1.1297  1.1542
12716SOL     OW39389   6.577   0.483   1.061 -0.3030 -0.0557  0.4143
12716SOL    HW139390   6.589   0.546   1.131  2.6814 -0.0743  0.0122
12716SOL    HW239391   6.559   0.400   1.105 -2.5549  0.7269  0.9926
12717SOL     OW39392   3.809   4.029   3.911 -0.5553  0.0967  0.3370
12717SOL    HW139393   3.845   4.045   3.823 -0.5167  0.5637  0.4364
12717SOL    HW239394   3.829   4.109   3.959  1.0036 -0.8432  1.2936
12718SOL     OW39395   2.896   6.447   4.566 -0.4480 -0.0697  0.0216
12718SOL    HW139396   2.987   6.426   4.586 -0.3483 -0.8437 -1.2075
12718SOL    HW239397   2.874   6.518   4.627  0.1800 -1.5982  2.0938
12719SOL     OW39398   2.192   6.537   7.878  0.7889 -0.5379 -0.4226
12719SOL    HW139399   2.113   6.557   7.928  0.9708  0.6594 -0.6039
12719SOL    HW239400   2.160   6.516   7.790  0.5783 -1.3061 -0.1675
12720SOL     OW39401   1.418   0.121   7.050 -0.0185  0.1043  0.6105
12720SOL    HW139402   1.482   0.177   7.006  1.4432 -1.7212  0.3749
12720SOL    HW239403   1.469   0.047   7.082 -2.0471 -1.4547  0.2991
12721SOL     OW39404   1.779   0.648   1.157 -0.4429  0.5024  0.3646
12721SOL    HW139405   1.870   0.668   1.181 -0.1953  1.0623 -1.0098
12721SOL    HW239406   1.770   0.554   1.175  0.5817  0.3183 -0.0320
12722SOL     OW39407   3.218   8.247   6.800 -0.0427  0.7397  0.2331
12722SOL    HW139408   3.129   8.244   6.835  0.6854 -2.8906  1.9933
12722SOL    HW239409   3.208   8.225   6.707 -0.9988  0.3934  0.4104
12723SOL     OW39410   0.297   4.421   0.927 -0.4100 -0.1069 -0.3069
12723SOL    HW139411   0.317   4.393   1.017  0.7474 -1.2415 -0.9144
12723SOL    HW239412   0.203   4.402   0.917  0.0140 -2.3917 -0.1845
12724SOL     OW39413   2.260   6.512   6.817  0.5159  0.3769  0.2480
12724SOL    HW139414   2.207   6.532   6.894 -0.2509  0.1995 -0.2284
12724SOL    HW239415   2.331   6.458   6.851  0.8724  1.3238  1.0257
12725SOL     OW39416   4.550   6.432   8.118 -0.1463  0.2169 -0.6225
12725SOL    HW139417   4.572   6.468   8.204 -0.0996 -0.0333 -0.5282
12725SOL    HW239418   4.490   6.360   8.137  1.5779 -1.2635 -0.6331
12726SOL     OW39419   3.218   6.729   5.134  0.3152  0.5420  0.2409
12726SOL    HW139420   3.165   6.790   5.081 -0.1035 -0.3305 -0.3508
12726SOL    HW239421   3.305   6.768   5.134  1.1238 -1.0596 -3.7684
12727SOL     OW39422   6.040   2.672   0.749  0.5551  0.2438 -0.1433
12727SOL    HW139423   5.970   2.707   0.803  0.3836 -0.0505 -0.1769
12727SOL    HW239424   6.072   2.595   0.796  0.7366  0.2727 -0.2154
12728SOL     OW39425   5.745   7.945   5.345  0.0839 -0.2853  0.4499
12728SOL    HW139426   5.769   7.934   5.437 -1.9108 -1.7627  0.8338
12728SOL    HW239427   5.820   7.988   5.305  0.3897  1.7476  3.0936
12729SOL     OW39428   6.731   6.503   3.974 -0.4988  0.2071 -0.8924
12729SOL    HW139429   6.645   6.529   3.942 -0.2980  1.5805 -0.3580
12729SOL    HW239430   6.792   6.566   3.934 -0.0046  0.5952  0.4436
12730SOL     OW39431   4.870   7.019   3.986  0.4247  1.0518 -0.0113
12730SOL    HW139432   4.830   7.091   3.936 -0.6154  2.1096  2.2978
12730SOL    HW239433   4.922   7.063   4.054  0.6468 -0.3804  0.7701
12731SOL     OW39434   3.826   7.425   0.073 -0.1906  0.3067 -0.1651
12731SOL    HW139435   3.873   7.466   0.000  1.1465  2.2275  1.7414
12731SOL    HW239436   3.894   7.384   0.126 -1.1280 -0.7950  0.2182
12732SOL     OW39437   0.043   7.568   7.072 -0.1818 -0.2771 -0.1318
12732SOL    HW139438  -0.013   7.646   7.076 -0.4158 -0.4853  0.9150
12732SOL    HW239439   0.109   7.590   7.007 -1.1187  0.2173 -0.9364
12733SOL     OW39440   2.921   7.656   4.569  0.2984  0.1053 -0.3064
12733SOL    HW139441   2.919   7.676   4.476 -0.6317 -2.6825 -0.9267
12733SOL    HW239442   3.010   7.626   4.586  1.1004  2.6296  0.2036
12734SOL     OW39443   0.339   7.778   4.074 -0.2819  0.1413 -0.5808
12734SOL    HW139444   0.406   7.813   4.015  0.1242  1.0327  0.3853
12734SOL    HW239445   0.274   7.739   4.016  1.1362 -0.8624 -1.5193
12735SOL     OW39446   1.191   5.853   4.789  0.4000  0.0059  0.3026
12735SOL    HW139447   1.208   5.763   4.815 -0.1553 -0.0149  0.6067
12735SOL    HW239448   1.142   5.890   4.863  0.2428  0.4221 -0.0103
12736SOL     OW39449   0.666   8.150   1.887 -0.1213  0.4177  0.0435
12736SOL    HW139450   0.656   8.067   1.841 -0.0994  0.9043 -0.8564
12736SOL    HW239451   0.760   8.161   1.896 -0.1206  0.3944  0.0642
12737SOL     OW39452   6.273   1.674   7.525 -0.2652 -0.1392 -0.0392
12737SOL    HW139453   6.309   1.725   7.452 -0.0612 -0.2091  0.0105
12737SOL    HW239454   6.306   1.717   7.604  0.0759 -0.4603 -0.0007
12738SOL     OW39455   4.064   0.870   7.147  0.0252 -0.0417 -0.3485
12738SOL    HW139456   4.081   0.793   7.201 -0.3001 -0.4761 -0.8636
12738SOL    HW239457   3.969   0.877   7.145  0.0557  0.3719 -0.3070
12739SOL     OW39458   3.739   7.022   3.714 -0.0494  0.3673  0.4116
12739SOL    HW139459   3.695   6.974   3.784 -0.8108 -1.0142 -0.9820
12739SOL    HW239460   3.670   7.043   3.652  0.5913  1.7301  0.1484
12740SOL     OW39461   2.309   1.726   6.707 -0.4223 -0.1104  0.1777
12740SOL    HW139462   2.250   1.674   6.652 -3.1266  1.6099  1.3650
12740SOL    HW239463   2.281   1.708   6.797  0.6955  0.9468  0.7589
12741SOL     OW39464   6.378   1.452   0.523 -0.1382  0.2985  0.0879
12741SOL    HW139465   6.395   1.472   0.615  1.5360  1.3562 -0.4438
12741SOL    HW239466   6.352   1.360   0.523  1.8346 -0.2878  1.3994
12742SOL     OW39467   5.715   0.652   4.892  0.0531  0.1141 -0.8471
12742SOL    HW139468   5.667   0.569   4.894  1.8461 -0.9375  1.0025
12742SOL    HW239469   5.694   0.694   4.975  3.5061 -1.1386  0.7764
12743SOL     OW39470   0.554   4.931   1.837  0.7269  0.0779 -0.7144
12743SOL    HW139471   0.593   4.985   1.768  2.6149 -0.6541 -0.2234
12743SOL    HW239472   0.490   4.990   1.879 -0.3994  0.5447 -3.0134
12744SOL     OW39473   4.922   1.358   3.830 -0.0549  0.9680  0.2727
12744SOL    HW139474   4.972   1.301   3.771  0.7354  2.2532 -0.3208
12744SOL    HW239475   4.949   1.330   3.917 -2.5619 -2.1644  0.1592
12745SOL     OW39476   7.782   0.963   6.572 -0.2467 -0.4734 -0.5880
12745SOL    HW139477   7.874   0.953   6.597 -0.3177 -1.6035 -0.7649
12745SOL    HW239478   7.737   0.893   6.618 -1.2582  0.9473  0.6316
12746SOL     OW39479   5.448   0.776   8.156  0.0506  0.1049 -0.6003
12746SOL    HW139480   5.365   0.783   8.109 -0.2318  0.5754 -0.0440
12746SOL    HW239481   5.477   0.867   8.167  0.0743  0.0072  0.1933
12747SOL     OW39482   5.704   4.644   6.183  0.5434  0.4057  0.2598
12747SOL    HW139483   5.639   4.694   6.232  0.7885  1.5147 -0.5330
12747SOL    HW239484   5.786   4.693   6.193  0.6349  0.5415 -1.0986
12748SOL     OW39485   3.276   6.898   6.595 -0.0549 -0.5427 -0.6813
12748SOL    HW139486   3.354   6.922   6.644 -0.2048 -1.9972  0.3293
12748SOL    HW239487   3.212   6.965   6.616  0.9673  0.7575 -1.6624
12749SOL     OW39488   2.674   1.852   3.725  0.3536 -0.2673 -0.3729
12749SOL    HW139489   2.594   1.824   3.681 -0.4168  2.0224 -0.4729
12749SOL    HW239490   2.646   1.924   3.781  2.1750 -0.1133  0.3598
12750SOL     OW39491   5.463   1.697   1.835 -0.7232 -0.4799  0.0734
12750SOL    HW139492   5.385   1.657   1.873 -0.6073  0.2623  1.1161
12750SOL    HW239493   5.488   1.766   1.897  1.2393 -1.2425  0.1954
12751SOL     OW39494   5.792   0.910   0.813  0.0200  0.2421  0.2829
12751SOL    HW139495   5.762   0.934   0.900  1.9044  0.2424  0.9419
12751SOL    HW239496   5.863   0.971   0.794  1.3768 -1.4558 -0.1656
12752SOL     OW39497   6.548   8.226   4.494  0.0568 -0.0099 -0.6808
12752SOL    HW139498   6.475   8.265   4.543  0.2761 -0.7272  0.2320
12752SOL    HW239499   6.619   8.289   4.503  0.6966 -0.9933  1.5593
12753SOL     OW39500   5.007   3.924   7.934  0.1691  0.5663 -0.2038
12753SOL    HW139501   4.978   4.010   7.966 -1.5595  1.1794 -3.1481
12753SOL    HW239502   5.099   3.937   7.910 -0.3016  1.8540 -1.3869
12754SOL     OW39503   1.460   7.053   7.708 -0.4477 -0.0344  0.0045
12754SOL    HW139504   1.480   7.120   7.643  0.0127  0.7738  0.9522
12754SOL    HW239505   1.544   7.016   7.732 -0.7516 -1.3527 -0.9096
12755SOL     OW39506   4.287   0.345   3.472 -0.0948  0.5171  0.7349
12755SOL    HW139507   4.248   0.428   3.500 -0.5394  0.2554  0.8817
12755SOL    HW239508   4.381   0.359   3.484 -0.1551  1.0596  0.6040
12756SOL     OW39509   5.812   1.773   3.500  0.4305 -0.1590  0.5292
12756SOL    HW139510   5.808   1.808   3.411  1.1216  0.2087  0.6393
12756SOL    HW239511   5.721   1.773   3.530  0.0750 -1.1979 -0.5203
12757SOL     OW39512   0.015   3.420   2.256  0.4825  0.2124 -0.2255
12757SOL    HW139513  -0.044   3.357   2.296  1.2873 -0.4942 -0.1283
12757SOL    HW239514  -0.018   3.431   2.167 -0.6927  0.9973  0.3071
12758SOL     OW39515   3.199   1.322   5.945 -0.7267 -0.6792 -0.6036
12758SOL    HW139516   3.195   1.238   5.991 -0.3917  0.0975  0.8689
12758SOL    HW239517   3.108   1.339   5.919 -1.4233  0.2114  2.2587
12759SOL     OW39518   8.019   2.196   7.154 -0.2176  0.0947 -0.0363
12759SOL    HW139519   7.957   2.268   7.144 -0.2754  0.2482  1.3903
12759SOL    HW239520   8.064   2.191   7.069 -1.7588  0.3537 -0.8762
12760SOL     OW39521   7.775   6.258   1.026 -0.1827 -0.1973  0.0600
12760SOL    HW139522   7.741   6.312   1.097 -0.5834  0.7566 -0.8351
12760SOL    HW239523   7.762   6.168   1.055 -4.6317  0.0966 -0.7289
12761SOL     OW39524   5.322   6.067   6.402  0.2644  0.0036 -0.4085
12761SOL    HW139525   5.319   6.163   6.403  0.8103  0.0403  2.4494
12761SOL    HW239526   5.394   6.046   6.342  0.5623  1.3998 -0.5465
12762SOL     OW39527   3.322   1.871   1.118  0.2467  0.2858  0.8107
12762SOL    HW139528   3.336   1.892   1.025 -1.4358  1.5566  0.8116
12762SOL    HW239529   3.347   1.780   1.126  1.7898  0.5618 -0.6008
12763SOL     OW39530   5.668   1.378   7.898 -0.0463 -0.1035  0.1968
12763SOL    HW139531   5.595   1.419   7.944 -0.8850 -2.5841  1.1485
12763SOL    HW239532   5.628   1.322   7.832  1.0930  1.1188 -1.5725
12764SOL     OW39533   0.647   1.961   4.155 -0.2733  0.5680 -0.4778
12764SOL    HW139534   0.573   1.958   4.094 -0.0222  0.0379 -0.7613
12764SOL    HW239535   0.635   1.884   4.211 -0.0118  0.5550 -0.4373
12765SOL     OW39536   4.097   0.808   5.867  0.2561  0.2810  0.1155
12765SOL    HW139537   4.065   0.896   5.849 -0.4810  0.1209  0.6050
12765SOL    HW239538   4.098   0.803   5.963 -0.2770 -0.4442  0.0863
12766SOL     OW39539   3.660   5.492   1.639  0.4023 -0.1866  0.0452
12766SOL    HW139540   3.577   5.446   1.635 -0.9388  2.0162  1.4054
12766SOL    HW239541   3.642   5.578   1.600  1.3581  1.2007  2.5545
12767SOL     OW39542   2.393   3.682   1.653 -0.0649 -1.1156  0.9795
12767SOL    HW139543   2.403   3.612   1.717  0.1718  0.8728  3.1905
12767SOL    HW239544   2.473   3.733   1.661  0.4761 -1.4560 -1.7434
12768SOL     OW39545   4.920   0.899   3.184  0.2429 -0.0848  0.1922
12768SOL    HW139546   4.900   0.921   3.093  0.9444 -2.0077 -0.4693
12768SOL    HW239547   4.957   0.978   3.221 -0.4629  0.8579 -1.0793
12769SOL     OW39548   0.040   6.456   6.271 -0.6847 -0.0823 -0.7656
12769SOL    HW139549   0.025   6.529   6.331 -2.8660 -0.6677 -0.5409
12769SOL    HW239550   0.025   6.493   6.184 -1.4170 -0.1476 -0.6749
12770SOL     OW39551   7.788   2.443   2.309  0.5987  0.3827 -0.4745
12770SOL    HW139552   7.810   2.352   2.328 -0.9737  0.0620 -0.1577
12770SOL    HW239553   7.809   2.491   2.389  0.2118  0.0836 -0.1913
12771SOL     OW39554   4.784   7.977   5.236 -0.6305 -0.0968 -0.1508
12771SOL    HW139555   4.768   8.067   5.208 -0.6426 -0.4405 -1.3087
12771SOL    HW239556   4.830   7.985   5.319  0.2125  0.9978 -0.7043
12772SOL     OW39557   2.951   5.377   6.227 -0.1004 -0.0433  0.4671
12772SOL    HW139558   2.971   5.469   6.245 -0.0151  0.0144  0.0871
12772SOL    HW239559   2.871   5.360   6.277  0.9427 -0.3103  2.0760
12773SOL     OW39560   0.324   2.895   5.923  0.6390 -0.2834  0.1055
12773SOL    HW139561   0.231   2.893   5.945  0.3017  0.1593 -1.2233
12773SOL    HW239562   0.369   2.903   6.007 -0.4263 -2.7833  0.9482
12774SOL     OW39563   0.188   1.486   7.915  0.0175 -0.3884  0.2838
12774SOL    HW139564   0.134   1.562   7.895  0.7445  0.2870  0.8518
12774SOL    HW239565   0.159   1.457   8.001  1.7812  1.0861  1.4034
12775SOL     OW39566   2.951   2.835   7.188 -0.0510 -0.2784 -0.2539
12775SOL    HW139567   2.873   2.843   7.133 -0.4167 -1.8077  0.0206
12775SOL    HW239568   2.917   2.838   7.278  0.1586 -1.3387 -0.1357
12776SOL     OW39569   7.143   3.256   2.838  0.4243 -0.3826  0.5648
12776SOL    HW139570   7.216   3.229   2.893  0.6052  0.3157  0.6739
12776SOL    HW239571   7.150   3.202   2.759 -0.0323 -1.6377  1.3633
12777SOL     OW39572   7.074   2.194   3.050  0.0895 -0.5919  0.8320
12777SOL    HW139573   7.044   2.278   3.085 -0.0244 -0.4879  0.4875
12777SOL    HW239574   6.996   2.139   3.048  0.3631 -1.0454  2.0234
12778SOL     OW39575   5.066   2.839   7.138 -0.9867 -0.2110 -0.0836
12778SOL    HW139576   5.059   2.776   7.210  0.7587 -1.5483 -1.0532
12778SOL    HW239577   5.094   2.920   7.180 -0.0292 -0.9672  0.7536
12779SOL     OW39578   4.852   1.805   2.449 -0.0784  0.0780 -0.1066
12779SOL    HW139579   4.856   1.854   2.531  0.7372  2.5838 -1.6085
12779SOL    HW239580   4.795   1.857   2.392 -0.6946 -1.6689 -1.1153
12780SOL     OW39581   0.581   4.624   5.365  0.3882  0.2582 -0.3409
12780SOL    HW139582   0.666   4.625   5.322  0.5829  1.0339  0.0552
12780SOL    HW239583   0.521   4.587   5.300  0.9328  0.1725 -0.7930
12781SOL     OW39584   7.132   6.927   0.170  0.4091 -0.0084 -0.5417
12781SOL    HW139585   7.203   6.862   0.171  1.9218  1.5910 -1.1415
12781SOL    HW239586   7.124   6.953   0.078 -2.2018 -1.4455 -0.7721
12782SOL     OW39587   0.480   3.980   3.978 -0.6104  0.1774  0.5396
12782SOL    HW139588   0.530   3.903   4.007  0.9393  1.1358  0.4691
12782SOL    HW239589   0.481   4.038   4.054 -1.4905  0.2667  0.4786
12783SOL     OW39590   4.647   7.905   5.748 -0.8111 -0.0399 -0.4534
12783SOL    HW139591   4.561   7.913   5.707 -1.0186  2.2934  0.3653
12783SOL    HW239592   4.703   7.963   5.697  0.0568 -0.8100 -0.3815
12784SOL     OW39593   0.664   0.168   7.240  0.1697 -0.2367  0.4872
12784SOL    HW139594   0.641   0.145   7.150  0.3073 -1.3674  0.7289
12784SOL    HW239595   0.759   0.166   7.242  0.2311  1.7582  0.1701
12785SOL     OW39596   7.687   0.579   6.473  0.2180 -0.0807  0.5843
12785SOL    HW139597   7.611   0.549   6.523  1.5143 -1.7377  1.5726
12785SOL    HW239598   7.747   0.613   6.538  0.4914  0.9221 -0.1762
12786SOL     OW39599   4.063   8.087   0.607  0.0729  0.6236 -0.5511
12786SOL    HW139600   4.037   8.173   0.573 -1.7420  0.5917  0.6891
12786SOL    HW239601   3.981   8.039   0.618  0.7842 -0.1948  1.6000
12787SOL     OW39602   2.581   0.774   0.248 -0.0138 -0.4154 -0.0597
12787SOL    HW139603   2.523   0.731   0.186 -0.1874  0.8844 -0.8029
12787SOL    HW239604   2.669   0.746   0.221  0.3099  3.7863 -3.8629
12788SOL     OW39605   8.158   0.595   7.124  0.1493 -0.5269  0.0522
12788SOL    HW139606   8.230   0.637   7.078  0.4185  1.5695  2.2565
12788SOL    HW239607   8.083   0.653   7.110 -0.0016 -0.3703  1.3659
12789SOL     OW39608   7.872   8.242   3.091  0.3015  0.4686  0.4030
12789SOL    HW139609   7.958   8.282   3.104  0.1336  1.0492 -0.2269
12789SOL    HW239610   7.876   8.159   3.138  1.0073  0.7621  0.8670
12790SOL     OW39611   5.211   5.369   5.158  0.8252 -0.6462 -0.2763
12790SOL    HW139612   5.229   5.463   5.161 -1.3404 -0.1515 -1.7955
12790SOL    HW239613   5.175   5.349   5.245 -0.8701  0.4169 -0.7168
12791SOL     OW39614   8.093   2.642   4.298 -0.0889 -0.2212  0.8236
12791SOL    HW139615   8.108   2.645   4.392  1.5867 -0.3813  0.5734
12791SOL    HW239616   8.029   2.711   4.282 -1.7338 -1.3701  2.3068
12792SOL     OW39617   0.817   5.161   1.604  0.5180 -0.3049  0.4351
12792SOL    HW139618   0.862   5.213   1.670  0.0400 -0.2198  0.7010
12792SOL    HW239619   0.886   5.119   1.554  0.9103  0.5250  0.2763
12793SOL     OW39620   2.585   5.387   4.893 -0.5302  0.1336 -0.3063
12793SOL    HW139621   2.504   5.429   4.866 -0.6301  0.0345 -0.1599
12793SOL    HW239622   2.625   5.357   4.812 -1.0381 -0.5430 -0.3094
12794SOL     OW39623   0.306   3.328   3.357 -0.2175  0.2483 -0.0121
12794SOL    HW139624   0.273   3.243   3.329 -2.1053  0.8084  0.4836
12794SOL    HW239625   0.379   3.307   3.416 -0.1412 -1.0011 -0.5436
12795SOL     OW39626   2.625   1.324   0.124 -0.0750  0.0792  0.1916
12795SOL    HW139627   2.593   1.252   0.179 -2.5060 -0.0386 -1.3052
12795SOL    HW239628   2.720   1.320   0.133 -0.2545 -2.1563  1.5976
12796SOL     OW39629   0.291   0.191   2.168  0.2527 -0.3258  0.1556
12796SOL    HW139630   0.370   0.206   2.220 -0.1067 -0.0774  0.6287
12796SOL    HW239631   0.319   0.131   2.099  0.5607 -1.2468  1.0666
12797SOL     OW39632   2.825   3.744   3.437  0.3729  0.1120  0.2475
12797SOL    HW139633   2.761   3.798   3.391  0.9247  0.2501 -0.3750
12797SOL    HW239634   2.822   3.660   3.390  0.5594  0.0789  0.2958
12798SOL     OW39635   0.576   5.945   4.637 -0.3395  0.7617  0.2857
12798SOL    HW139636   0.609   6.027   4.673 -0.2295  0.0481  1.8472
12798SOL    HW239637   0.519   5.910   4.706  0.4701 -0.9968  0.0723
12799SOL     OW39638   3.857   4.492   3.382  0.3618 -0.9096 -0.3976
12799SOL    HW139639   3.890   4.545   3.310 -0.1845 -0.5603 -0.3917
12799SOL    HW239640   3.764   4.511   3.386 -0.2129 -3.2872 -1.5986
12800SOL     OW39641   3.615   6.963   2.595  0.5912 -0.0092  0.4208
12800SOL    HW139642   3.635   6.998   2.682 -0.9403  0.9225  0.4114
12800SOL    HW239643   3.609   7.041   2.540  0.9252 -0.5591 -0.3901
12801SOL     OW39644   6.445   2.447   0.408 -0.1063 -0.3420  0.3389
12801SOL    HW139645   6.471   2.490   0.490 -0.2760 -0.8062  0.6380
12801SOL    HW239646   6.351   2.432   0.419  0.0574 -1.2812  0.4579
12802SOL     OW39647   1.673   1.452   0.607 -0.7531 -0.2959  0.0586
12802SOL    HW139648   1.766   1.461   0.625 -1.3599  0.5584  2.9705
12802SOL    HW239649   1.637   1.413   0.686 -2.7887 -1.2531 -1.2987
12803SOL     OW39650   5.481   4.124   7.253  0.2236 -0.0101  0.1598
12803SOL    HW139651   5.522   4.077   7.326  0.3477 -0.1705 -0.0132
12803SOL    HW239652   5.401   4.076   7.235  0.2356 -0.0198  0.1343
12804SOL     OW39653   3.719   0.672   7.618  0.4953  0.0452 -0.0798
12804SOL    HW139654   3.742   0.756   7.579  0.7037 -1.1454 -2.6183
12804SOL    HW239655   3.799   0.620   7.612 -0.2714 -1.0807 -0.5733
12805SOL     OW39656   2.082   0.055   7.420 -0.5378 -0.2832  0.5762
12805SOL    HW139657   2.112   0.089   7.504 -1.5126 -0.5470  1.0323
12805SOL    HW239658   2.129   0.108   7.355 -1.0622  1.0550  1.2784
12806SOL     OW39659   5.156   1.474   0.984 -0.3825  0.3921 -0.5753
12806SOL    HW139660   5.101   1.545   1.017 -3.1199 -0.9756 -2.0451
12806SOL    HW239661   5.162   1.413   1.058  1.8324  2.0283  0.6328
12807SOL     OW39662   1.911   6.808   7.852 -0.7045  0.3512 -0.4837
12807SOL    HW139663   1.931   6.853   7.935 -1.1989 -0.7155  0.2225
12807SOL    HW239664   1.953   6.862   7.785  0.8951  0.4899  0.5893
12808SOL     OW39665   1.042   7.760   5.380 -0.1382  0.3888 -0.1944
12808SOL    HW139666   1.015   7.805   5.460 -1.7811 -0.0287 -0.4932
12808SOL    HW239667   0.987   7.799   5.311  0.6634  0.1522 -0.9692
12809SOL     OW39668   0.319   7.753   1.210  0.4135 -0.0588 -0.4934
12809SOL    HW139669   0.356   7.669   1.238  1.1112  0.2293 -0.5239
12809SOL    HW239670   0.396   7.807   1.188 -0.0936 -0.2980 -3.0056
12810SOL     OW39671   4.546   2.685   3.567  0.9020  0.1500 -0.2647
12810SOL    HW139672   4.541   2.745   3.642 -1.1173 -0.4318  0.0960
12810SOL    HW239673   4.596   2.733   3.501 -0.8121  2.3258 -0.0384
12811SOL     OW39674   4.644   5.337   3.232  0.0201 -0.7080  0.5595
12811SOL    HW139675   4.664   5.347   3.139 -0.1062 -2.7558  0.2839
12811SOL    HW239676   4.612   5.247   3.240 -3.1788  0.4678  2.0243
12812SOL     OW39677   2.377   4.896   5.329  0.2395  0.2673  0.0272
12812SOL    HW139678   2.392   4.984   5.364  4.6083  0.1568 -1.2193
12812SOL    HW239679   2.434   4.839   5.381 -2.0570 -1.7725  0.4057
12813SOL     OW39680   2.802   0.168   4.493  0.3435 -0.1376 -0.3360
12813SOL    HW139681   2.874   0.222   4.526  0.3780 -0.1733 -0.3535
12813SOL    HW239682   2.841   0.116   4.422 -0.2107  1.4475 -1.8462
12814SOL     OW39683   4.211   3.509   2.275 -0.2283 -0.2546 -0.5248
12814SOL    HW139684   4.223   3.512   2.180  1.1570 -0.1836 -0.3628
12814SOL    HW239685   4.200   3.415   2.294  1.2493 -0.4504 -0.5715
12815SOL     OW39686   1.203   0.391   2.330  0.2556 -0.2335  0.4839
12815SOL    HW139687   1.211   0.405   2.424 -2.0408 -0.1896  0.6858
12815SOL    HW239688   1.125   0.337   2.320 -1.2266  2.1897 -1.5900
12816SOL     OW39689   1.536   8.106   5.127  0.4130  0.1828  0.1617
12816SOL    HW139690   1.503   8.110   5.037  0.0374  0.0724  0.2957
12816SOL    HW239691   1.631   8.104   5.117  0.3817  0.5411 -0.2211
12817SOL     OW39692   4.361   5.182   7.770  0.5068 -0.4068  0.3721
12817SOL    HW139693   4.329   5.141   7.690 -0.5112  4.5365 -1.9161
12817SOL    HW239694   4.456   5.176   7.765  0.3943 -1.5578 -0.4088
12818SOL     OW39695   1.429   3.717   0.160  0.3288  0.0385  0.5499
12818SOL    HW139696   1.399   3.633   0.195 -0.8009  0.4815  0.6612
12818SOL    HW239697   1.410   3.711   0.066 -0.2458  0.3757  0.6434
12819SOL     OW39698   5.253   5.496   8.300  0.2303  0.0522 -0.1913
12819SOL    HW139699   5.188   5.515   8.368  1.1729 -1.3142  1.1333
12819SOL    HW239700   5.202   5.472   8.223 -0.8315 -1.9015  1.0981
12820SOL     OW39701   6.613   2.687   7.155  0.2863  0.1655  0.2375
12820SOL    HW139702   6.583   2.718   7.070  2.1626  0.9152 -0.1872
12820SOL    HW239703   6.678   2.752   7.182 -0.6937  0.2393  2.5131
12821SOL     OW39704   1.708   5.898   3.145  0.1028 -0.4059  0.4434
12821SOL    HW139705   1.699   5.969   3.082 -1.0994 -1.3917 -0.4921
12821SOL    HW239706   1.792   5.916   3.188 -1.2721  2.9584  1.9598
12822SOL     OW39707   5.969   0.386   3.597  0.0416  0.5477  0.5899
12822SOL    HW139708   6.012   0.387   3.511  1.9643 -1.7315  1.4510
12822SOL    HW239709   6.000   0.305   3.638 -0.4032  1.8367  3.6416
12823SOL     OW39710   1.595   5.029   6.153 -0.2555 -0.4125  0.4075
12823SOL    HW139711   1.654   4.956   6.172  0.1286 -0.0420  0.6575
12823SOL    HW239712   1.553   5.048   6.238 -1.2741 -1.1430  0.0782
12824SOL     OW39713   4.545   3.426   5.920  0.1337  0.0470  0.1164
12824SOL    HW139714   4.498   3.415   6.002 -0.7833 -0.4610 -0.4669
12824SOL    HW239715   4.516   3.352   5.866  1.1700  0.0450 -0.4562
12825SOL     OW39716   3.768   3.795   7.308 -0.4896 -0.1657  0.2502
12825SOL    HW139717   3.837   3.745   7.265  0.2889  0.8635  0.2823
12825SOL    HW239718   3.705   3.729   7.337  0.6247 -1.1399  0.4822
12826SOL     OW39719   7.907   2.811   4.254 -0.1329  0.3274  0.1163
12826SOL    HW139720   7.830   2.850   4.295  1.0272  1.1650  1.5445
12826SOL    HW239721   7.958   2.886   4.222 -0.3464 -0.2575 -1.6663
12827SOL     OW39722   4.990   6.782   5.348 -0.2151  0.3019 -0.5127
12827SOL    HW139723   4.951   6.698   5.324  1.3363 -0.3522 -0.7683
12827SOL    HW239724   5.019   6.771   5.439 -2.9548  1.6513  0.5932
12828SOL     OW39725   3.702   6.390   7.023  0.1130  0.6952 -0.1884
12828SOL    HW139726   3.696   6.335   6.945  1.0418 -1.6182  1.3178
12828SOL    HW239727   3.634   6.357   7.081  1.1421  0.6237  1.0112
12829SOL     OW39728   4.429   6.403   5.474  0.0848  0.3296  0.3560
12829SOL    HW139729   4.399   6.314   5.452  0.0729  0.2257  0.7755
12829SOL    HW239730   4.403   6.414   5.566  2.9370 -0.4374  1.2822
12830SOL     OW39731   1.837   6.521   4.475  0.1105 -0.4580  0.5434
12830SOL    HW139732   1.842   6.453   4.407 -1.6263 -0.9156  0.8478
12830SOL    HW239733   1.801   6.475   4.551  2.7060 -0.1156  2.0155
12831SOL     OW39734   3.836   5.438   3.995 -0.1355  0.2031  0.8289
12831SOL    HW139735   3.761   5.417   3.939  0.6743 -0.3418 -0.0811
12831SOL    HW239736   3.809   5.413   4.083 -1.0700  0.1344  0.5261
12832SOL     OW39737   6.096   1.225   2.053 -0.5529  0.0658 -0.2254
12832SOL    HW139738   6.030   1.294   2.058 -1.0486 -0.3896 -0.3640
12832SOL    HW239739   6.126   1.226   1.962 -0.7746 -0.0949 -0.3010
12833SOL     OW39740   0.384   4.946   2.984 -0.4280 -0.1063  0.0718
12833SOL    HW139741   0.353   4.889   2.914  0.9039 -0.0681 -0.5662
12833SOL    HW239742   0.393   4.888   3.060  2.3669 -1.0819 -0.9660
12834SOL     OW39743   5.272   4.136   1.726  0.7406 -0.0008 -0.0235
12834SOL    HW139744   5.211   4.164   1.794  1.6359 -2.8409  2.0220
12834SOL    HW239745   5.321   4.216   1.704 -2.4777  1.9434 -0.5227
12835SOL     OW39746   6.211   6.912   6.930 -0.1596 -0.6122  0.2586
12835SOL    HW139747   6.250   6.923   6.844  1.2779 -0.1838  0.9438
12835SOL    HW239748   6.223   6.997   6.973  0.3649 -1.2312  1.3667
12836SOL     OW39749   7.141   2.192   1.223 -0.3087 -0.7039 -0.5529
12836SOL    HW139750   7.233   2.165   1.216 -0.4654 -0.9512 -1.6283
12836SOL    HW239751   7.111   2.201   1.133 -0.9973  0.5608 -0.2072
12837SOL     OW39752   3.769   0.588   3.327  0.3607 -0.1620  0.0453
12837SOL    HW139753   3.710   0.642   3.379 -2.2833 -0.6345 -2.3602
12837SOL    HW239754   3.735   0.499   3.337 -1.2023 -0.0703 -3.6835
12838SOL     OW39755   1.493   0.979   0.797  0.5894  0.0650  0.3436
12838SOL    HW139756   1.488   1.071   0.771  1.8350 -0.1526 -0.7418
12838SOL    HW239757   1.502   0.981   0.892 -0.9128  1.0039  0.4756
12839SOL     OW39758   5.677   1.503   6.735 -0.5478  0.2149 -0.0976
12839SOL    HW139759   5.741   1.496   6.806  0.1990 -2.1873 -0.9286
12839SOL    HW239760   5.593   1.517   6.779  0.1477  0.4680  1.1602
12840SOL     OW39761   1.029   2.470   4.084 -0.3568  0.3306 -0.2356
12840SOL    HW139762   1.114   2.451   4.125  0.1444  2.0834 -0.4331
12840SOL    HW239763   0.965   2.438   4.148  0.4422 -1.0435 -0.1008
12841SOL     OW39764   4.119   0.634   1.490 -0.0016  0.7591 -0.4077
12841SOL    HW139765   4.095   0.597   1.575 -0.4550 -1.0971 -1.2956
12841SOL    HW239766   4.179   0.569   1.453 -1.6645  0.3427 -2.4820
12842SOL     OW39767   3.465   1.711   1.644 -0.1498 -0.2735 -0.2100
12842SOL    HW139768   3.450   1.616   1.640  0.8340 -0.4522  0.2504
12842SOL    HW239769   3.496   1.733   1.556 -0.8703 -0.2931 -0.4694
12843SOL     OW39770   0.679   1.220   5.060  0.1508  0.1153  0.3331
12843SOL    HW139771   0.764   1.256   5.033  0.7558 -0.9728  0.7477
12843SOL    HW239772   0.694   1.126   5.067 -0.7959  0.0391  1.5211
12844SOL     OW39773   4.926   0.363   3.614 -0.3319  0.0339  0.7427
12844SOL    HW139774   4.908   0.276   3.648  1.7421 -0.7501 -0.0788
12844SOL    HW239775   4.980   0.404   3.681 -0.4443  0.3186  0.6611
12845SOL     OW39776   6.186   7.918   0.950 -0.0926  0.1503 -0.2592
12845SOL    HW139777   6.124   7.967   0.898  0.3563 -0.3984 -1.3198
12845SOL    HW239778   6.170   7.947   1.040 -0.4393  1.5631 -0.7612
12846SOL     OW39779   4.540   7.592   2.879  0.4895 -0.7733 -0.2183
12846SOL    HW139780   4.478   7.661   2.857  0.2756 -1.1982 -0.9657
12846SOL    HW239781   4.529   7.526   2.810  0.2660 -1.8357  0.8150
12847SOL     OW39782   0.598   3.700   6.105 -0.3405  0.6874 -0.0051
12847SOL    HW139783   0.634   3.726   6.021  0.5066  1.8957  0.7195
12847SOL    HW239784   0.505   3.682   6.087 -0.1372  0.8221 -1.2058
12848SOL     OW39785   1.097   0.800   4.033 -0.0005 -0.2208  0.4631
12848SOL    HW139786   1.123   0.717   4.073 -1.0249 -1.2232 -0.9175
12848SOL    HW239787   1.109   0.787   3.939 -3.1188  0.0757 -0.0439
12849SOL     OW39788   7.685   4.379   7.976 -0.6845 -0.2761 -0.4352
12849SOL    HW139789   7.743   4.303   7.974 -0.5004 -0.2468  2.4664
12849SOL    HW239790   7.737   4.450   7.938 -0.2006 -1.1489 -1.4212
12850SOL     OW39791   4.868   4.051   8.253 -0.3074  0.6475  0.8016
12850SOL    HW139792   4.829   4.105   8.185  1.8752  2.5800  1.0021
12850SOL    HW239793   4.814   3.972   8.256 -0.4438  0.5077 -3.1580
12851SOL     OW39794   3.231   7.643   2.690 -0.3519 -0.0350  0.2255
12851SOL    HW139795   3.206   7.566   2.741 -1.0440 -0.3231 -0.5324
12851SOL    HW239796   3.159   7.705   2.703 -0.5450 -0.1202 -0.4170
12852SOL     OW39797   2.573   5.252   0.228 -0.2129 -0.1347  0.2791
12852SOL    HW139798   2.503   5.285   0.285 -0.9465 -1.6532  0.3011
12852SOL    HW239799   2.628   5.199   0.285 -0.6208 -1.1907 -0.2860
12853SOL     OW39800   6.862   8.300   7.195 -0.0378  0.0003 -0.1131
12853SOL    HW139801   6.907   8.265   7.118 -1.2452 -2.1573  0.0978
12853SOL    HW239802   6.862   8.394   7.183  4.9453  0.1501  0.1319
12854SOL     OW39803   6.777   1.136   4.038 -0.1529 -0.2614 -0.4065
12854SOL    HW139804   6.729   1.054   4.025  1.2774 -1.2700  0.4013
12854SOL    HW239805   6.769   1.182   3.955 -1.2623 -1.0803 -0.7627
12855SOL     OW39806   6.934   4.541   6.735  0.2161 -0.5270 -0.1480
12855SOL    HW139807   6.935   4.634   6.712 -0.1776 -0.9865 -2.1072
12855SOL    HW239808   7.025   4.513   6.730  0.2214 -0.4573 -0.4376
12856SOL     OW39809   0.464   2.357   7.262 -0.2412 -0.0870  0.4979
12856SOL    HW139810   0.499   2.439   7.227  0.7973 -0.6767  0.1532
12856SOL    HW239811   0.536   2.319   7.312 -0.9213 -0.4870  1.1985
12857SOL     OW39812   5.638   7.903   7.347  0.3631 -0.3223  0.3389
12857SOL    HW139813   5.631   7.919   7.253  1.6188 -0.1255  0.2676
12857SOL    HW239814   5.676   7.815   7.354  1.0850  0.0086  0.6461
12858SOL     OW39815   3.794   2.517   7.642 -0.5951 -0.1596 -0.1390
12858SOL    HW139816   3.761   2.592   7.591  0.7115  0.7993  0.3967
12858SOL    HW239817   3.860   2.477   7.586 -0.5318 -0.2732  0.0185
12859SOL     OW39818   1.650   3.725   0.345  0.5330 -0.1802 -0.0617
12859SOL    HW139819   1.578   3.721   0.283  0.0780 -0.2680  0.4746
12859SOL    HW239820   1.684   3.814   0.337  1.6867 -0.7535 -1.8088
12860SOL     OW39821   7.816   0.078   7.634  0.4774  0.2400  0.1163
12860SOL    HW139822   7.910   0.078   7.650  0.4624 -1.3788  0.2400
12860SOL    HW239823   7.805   0.133   7.557  1.6222 -0.2986 -0.4430
12861SOL     OW39824   1.786   7.649   6.492  0.6247  0.7674 -0.3841
12861SOL    HW139825   1.811   7.740   6.482  0.9445  0.7793  0.5528
12861SOL    HW239826   1.765   7.639   6.585  1.0986 -0.2341 -0.3764
12862SOL     OW39827   4.081   5.526   7.362 -0.0611 -0.1971 -0.1003
12862SOL    HW139828   4.089   5.441   7.318 -1.2138  0.0296 -0.7497
12862SOL    HW239829   4.136   5.585   7.310  0.9318 -0.5867  0.4878
12863SOL     OW39830   4.033   5.212   8.303 -0.5477  0.3337  0.3672
12863SOL    HW139831   3.991   5.276   8.360 -0.2796  0.1423  0.7922
12863SOL    HW239832   4.105   5.177   8.357  0.1160  0.6209 -0.3200
12864SOL     OW39833   2.725   5.472   7.497  0.2305  0.0540  0.0793
12864SOL    HW139834   2.666   5.402   7.524 -0.2224  0.0007 -1.0253
12864SOL    HW239835   2.802   5.427   7.461  0.3404  0.1234  0.2245
12865SOL     OW39836   8.036   0.422   4.704  0.3876  0.0177 -0.1226
12865SOL    HW139837   7.955   0.387   4.743  2.0554 -3.2952  0.5748
12865SOL    HW239838   8.041   0.381   4.618 -0.1065  2.4668 -1.3437
12866SOL     OW39839   5.050   5.753   4.897 -0.2757 -0.6956 -0.1118
12866SOL    HW139840   5.112   5.682   4.912  1.8876  0.7965 -1.6239
12866SOL    HW239841   5.095   5.831   4.929 -2.3741  0.0873  0.9673
12867SOL     OW39842   2.082   0.739   6.347 -0.0327  0.2422  0.7520
12867SOL    HW139843   2.070   0.761   6.439 -0.6195 -2.1340  1.2584
12867SOL    HW239844   2.177   0.735   6.336  0.0342 -0.4613  1.5090
12868SOL     OW39845   0.273   8.197   7.509 -0.4152  0.1984  0.2758
12868SOL    HW139846   0.331   8.257   7.462 -0.9770  0.4574 -0.0894
12868SOL    HW239847   0.302   8.110   7.483  0.9551  0.2919  1.4623
12869SOL     OW39848   5.074   5.555   4.598  0.2656  0.3205 -0.2723
12869SOL    HW139849   5.048   5.504   4.674 -0.4203  0.8483 -0.1426
12869SOL    HW239850   5.147   5.609   4.629 -1.2132  1.9041  0.5581
12870SOL     OW39851   1.738   2.892   4.161  0.0966  0.4298  0.1254
12870SOL    HW139852   1.808   2.876   4.098  0.3875  1.3372  0.2180
12870SOL    HW239853   1.663   2.843   4.127  0.5424  0.1060 -0.3951
12871SOL     OW39854   2.293   4.667   1.484 -0.4725  0.0493 -0.3706
12871SOL    HW139855   2.224   4.660   1.418 -0.8254  1.9880 -0.2605
12871SOL    HW239856   2.323   4.758   1.477 -0.6046  0.3313  2.2253
12872SOL     OW39857   3.882   5.605   2.508 -0.2159  0.1132 -0.1062
12872SOL    HW139858   3.963   5.624   2.461 -0.1496 -0.0129 -0.0465
12872SOL    HW239859   3.876   5.509   2.507 -0.4909  0.1354 -0.3170
12873SOL     OW39860   5.017   6.702   6.640  0.4462 -0.2182 -0.3290
12873SOL    HW139861   4.983   6.697   6.729  0.6230 -2.7807 -0.3492
12873SOL    HW239862   5.098   6.752   6.647 -0.2328  0.7464  0.7135
12874SOL     OW39863   2.461   4.386   3.458  0.0005  0.5818 -0.3735
12874SOL    HW139864   2.556   4.386   3.443 -0.0067  1.2789 -0.4564
12874SOL    HW239865   2.431   4.301   3.427  0.6953  0.0913  0.2772
12875SOL     OW39866   5.505   5.894   4.394  0.2108 -0.5430 -0.0403
12875SOL    HW139867   5.426   5.907   4.445  0.6173  0.3850  0.3643
12875SOL    HW239868   5.553   5.824   4.439  0.6409  0.3743  0.9453
12876SOL     OW39869   5.842   0.189   8.026  0.3556  0.3896 -0.1210
12876SOL    HW139870   5.820   0.282   8.013  0.3961  0.1927 -1.7117
12876SOL    HW239871   5.774   0.157   8.085 -0.7653  0.9957 -1.0536
12877SOL     OW39872   3.388   0.499   7.159 -0.1192  0.0118 -0.4269
12877SOL    HW139873   3.412   0.544   7.078  1.4712  0.3624  0.2218
12877SOL    HW239874   3.433   0.415   7.154  1.5131  0.7800  0.9278
12878SOL     OW39875   4.689   3.828   5.627  0.0845 -0.1197 -0.5864
12878SOL    HW139876   4.624   3.868   5.569 -0.1181 -0.8257 -0.8584
12878SOL    HW239877   4.639   3.763   5.677  0.5501 -0.5683 -0.6969
12879SOL     OW39878   0.508   2.325   2.982  0.3628  0.4069  0.3035
12879SOL    HW139879   0.504   2.262   2.909  0.2866  1.1674 -0.3591
12879SOL    HW239880   0.583   2.380   2.961  0.3259  0.6420  0.7974
12880SOL     OW39881   0.288   2.798   7.684 -0.3644 -0.1174  0.2580
12880SOL    HW139882   0.193   2.790   7.687 -0.3257 -0.8409 -0.2639
12880SOL    HW239883   0.320   2.709   7.699  0.2372  0.1662  0.7032
12881SOL     OW39884   3.290   5.239   7.870  0.7036 -0.3373  0.5474
12881SOL    HW139885   3.325   5.196   7.948  0.3581  0.8687  1.3702
12881SOL    HW239886   3.294   5.171   7.802  2.4741 -0.9173  1.2049
12882SOL     OW39887   6.086   1.919   7.815  0.5252  0.7832 -0.0771
12882SOL    HW139888   6.055   1.991   7.760  1.0973  0.8081 -0.3701
12882SOL    HW239889   6.039   1.842   7.781 -0.2950  1.0614  0.4210
12883SOL     OW39890   5.937   7.253   1.508 -0.3873  0.5710  0.6162
12883SOL    HW139891   5.960   7.190   1.439 -0.4050  0.5871  0.5958
12883SOL    HW239892   5.910   7.199   1.582  0.5569  0.5301  0.9411
12884SOL     OW39893   5.504   2.110   7.768 -1.0924 -0.3413  0.1742
12884SOL    HW139894   5.588   2.066   7.781 -0.1975  1.6897  1.5462
12884SOL    HW239895   5.451   2.046   7.720  1.7784 -1.0030 -2.2885
12885SOL     OW39896   3.380   1.595   6.442  0.2544 -0.0102 -0.4752
12885SOL    HW139897   3.382   1.521   6.381  0.5284 -0.9088  0.6071
12885SOL    HW239898   3.300   1.583   6.492 -0.0707  0.8364 -0.7807
12886SOL     OW39899   7.609   8.231   8.176 -0.4016 -0.2534  0.0202
12886SOL    HW139900   7.517   8.256   8.191 -0.4316 -0.7724  0.7565
12886SOL    HW239901   7.636   8.284   8.102 -0.6793  1.4383  1.0824
12887SOL     OW39902   1.618   5.579   6.887 -0.1652  0.3044  0.2594
12887SOL    HW139903   1.676   5.589   6.811  0.6791 -0.1784  0.8327
12887SOL    HW239904   1.541   5.534   6.853  0.5592 -0.6264 -0.1497
12888SOL     OW39905   6.442   6.996   6.242  0.0944 -0.2789  0.6314
12888SOL    HW139906   6.455   6.933   6.313  3.2786  1.3777  1.6148
12888SOL    HW239907   6.411   7.075   6.285  0.7262  0.3020  0.0442
12889SOL     OW39908   0.069   5.817   2.452  0.1624 -0.1924 -0.0570
12889SOL    HW139909   0.021   5.850   2.376 -1.8587 -1.6343  0.5705
12889SOL    HW239910   0.024   5.856   2.528  1.1132 -0.1106  0.4740
12890SOL     OW39911   6.518   0.659   3.783  0.7255 -0.0672 -0.2788
12890SOL    HW139912   6.571   0.622   3.713  0.3596 -0.9895 -0.0866
12890SOL    HW239913   6.500   0.749   3.756  2.9180  0.4657 -0.0367
12891SOL     OW39914   7.708   5.740   1.724 -0.3141  0.2636 -0.1649
12891SOL    HW139915   7.653   5.662   1.731  0.6436 -0.2281  2.3839
12891SOL    HW239916   7.792   5.714   1.762  0.2234  2.3600  0.1553
12892SOL     OW39917   3.191   1.211   1.037  0.0026  0.0321  0.2392
12892SOL    HW139918   3.256   1.142   1.032 -1.9274 -1.9208  1.3197
12892SOL    HW239919   3.242   1.292   1.035  2.3595 -1.4204 -0.0772
12893SOL     OW39920   2.768   0.481   0.327  0.3011  0.1584 -0.7541
12893SOL    HW139921   2.780   0.542   0.255  0.1861  0.8558 -0.1950
12893SOL    HW239922   2.831   0.509   0.393 -1.4181  1.2198  0.4981
12894SOL     OW39923   3.864   5.461   3.345 -0.2011 -0.1430  0.7678
12894SOL    HW139924   3.947   5.508   3.341 -0.2907  0.0627  1.2846
12894SOL    HW239925   3.887   5.369   3.337 -0.0359 -0.0102 -0.4427
12895SOL     OW39926   2.673   1.947   7.330 -0.1149 -0.1216  0.3009
12895SOL    HW139927   2.585   1.952   7.367 -0.3189  0.8209 -0.3041
12895SOL    HW239928   2.727   1.910   7.401 -0.9309 -0.4068  0.7744
12896SOL     OW39929   1.395   5.612   4.333  0.3370 -0.2230 -0.9587
12896SOL    HW139930   1.339   5.654   4.398  0.7914 -0.5655 -0.3403
12896SOL    HW239931   1.473   5.667   4.330  0.3415 -0.2417 -1.1752
12897SOL     OW39932   0.795   3.546   8.001  0.3643  0.0847  0.1968
12897SOL    HW139933   0.724   3.537   7.937  0.4592 -0.2815  0.1450
12897SOL    HW239934   0.750   3.562   8.084  0.2110 -0.6081  0.2443
12898SOL     OW39935   2.381   7.680   5.625  0.2759  0.0100 -0.0743
12898SOL    HW139936   2.307   7.741   5.622 -0.0290 -0.3463  0.1289
12898SOL    HW239937   2.458   7.735   5.613 -0.1216  0.1841 -2.0052
12899SOL     OW39938   5.842   1.857   3.237  0.7185 -0.5196 -0.1570
12899SOL    HW139939   5.928   1.820   3.219  1.1246  0.7552 -0.9363
12899SOL    HW239940   5.836   1.932   3.178 -0.6013 -0.1299  0.4612
12900SOL     OW39941   5.757   7.303   2.692  0.5087 -0.0040 -0.1946
12900SOL    HW139942   5.805   7.376   2.653 -0.8681  0.2190 -1.5358
12900SOL    HW239943   5.686   7.344   2.741 -0.0880 -0.4187 -0.7040
12901SOL     OW39944   2.030   7.327   1.888 -0.0625 -0.7760  0.1861
12901SOL    HW139945   2.093   7.369   1.946 -1.1367  1.4855 -0.2166
12901SOL    HW239946   2.082   7.268   1.834  1.5306  0.2068  0.6190
12902SOL     OW39947   6.288   4.939   2.938 -0.7523  0.0171 -0.0915
12902SOL    HW139948   6.273   4.848   2.963 -0.2984  0.2301  0.9582
12902SOL    HW239949   6.230   4.953   2.862  0.7289 -1.7449 -1.5774
12903SOL     OW39950   2.019   1.468   2.095 -0.3906  0.3869  0.5388
12903SOL    HW139951   1.947   1.518   2.135 -0.2343  0.0495  1.2369
12903SOL    HW239952   2.066   1.430   2.169 -1.1400 -1.6889 -0.0213
12904SOL     OW39953   5.099   7.092   0.972  0.0305 -0.9174  0.1654
12904SOL    HW139954   5.123   7.013   0.923  1.3822 -0.8614  0.7125
12904SOL    HW239955   5.161   7.158   0.941 -1.2191 -0.0094 -0.4308
12905SOL     OW39956   4.799   2.442   4.941 -0.2177  0.3358  0.4988
12905SOL    HW139957   4.818   2.527   4.981 -0.7525  0.5895  0.2245
12905SOL    HW239958   4.745   2.463   4.865  0.5186 -0.1655 -0.1804
12906SOL     OW39959   1.732   2.293   5.912 -0.1350 -0.5098  0.8146
12906SOL    HW139960   1.711   2.219   5.969 -0.2584 -0.9940  0.1492
12906SOL    HW239961   1.809   2.265   5.863  0.5150  0.2528  1.3787
12907SOL     OW39962   2.345   6.199   2.444  0.3856  0.0754  0.4873
12907SOL    HW139963   2.399   6.179   2.368 -1.2539 -0.0085 -0.6827
12907SOL    HW239964   2.393   6.266   2.491  1.4666  0.0572 -0.5713
12908SOL     OW39965   4.587   4.041   0.461 -0.6793 -0.2100  0.2069
12908SOL    HW139966   4.537   4.029   0.380 -0.8235  1.4207  0.0397
12908SOL    HW239967   4.522   4.069   0.525 -0.5118 -1.2074  0.8112
12909SOL     OW39968   2.486   7.252   6.201 -0.0886  0.0580 -0.4909
12909SOL    HW139969   2.492   7.177   6.260  3.2071 -0.5682 -1.4938
12909SOL    HW239970   2.505   7.216   6.114  0.6865  1.9042 -1.1215
12910SOL     OW39971   1.558   6.115   6.612  0.0990  0.6192 -0.0834
12910SOL    HW139972   1.524   6.118   6.701  1.5441  1.9607  0.4329
12910SOL    HW239973   1.587   6.205   6.594 -0.5920  0.4783 -2.0669
12911SOL     OW39974   2.867   6.325   3.632 -0.0359 -0.4988 -0.0089
12911SOL    HW139975   2.779   6.291   3.619 -0.5276  0.7775 -0.0221
12911SOL    HW239976   2.924   6.251   3.611 -1.0900 -1.2776 -0.1587
12912SOL     OW39977   7.819   7.934   4.011  0.4395  0.3997 -0.5424
12912SOL    HW139978   7.759   7.966   4.078  0.2606 -1.1360  0.0595
12912SOL    HW239979   7.906   7.958   4.043  0.2688  0.7888 -0.3807
12913SOL     OW39980   5.253   2.214   4.973 -0.1541 -0.4198  0.0830
12913SOL    HW139981   5.168   2.251   4.997  0.4457  1.0167  0.0443
12913SOL    HW239982   5.277   2.159   5.047 -0.5290  0.1755  0.6490
12914SOL     OW39983   7.758   2.193   4.839 -0.1221  0.4051 -0.1805
12914SOL    HW139984   7.775   2.286   4.849 -1.6575  0.8143 -1.2701
12914SOL    HW239985   7.777   2.174   4.747 -0.8560 -0.1200 -0.2333
12915SOL     OW39986   5.796   5.343   3.087  0.2221 -0.0227 -0.1299
12915SOL    HW139987   5.715   5.374   3.046 -0.0459 -0.6823 -0.1160
12915SOL    HW239988   5.792   5.248   3.076  1.0041 -0.0500 -0.1420
12916SOL     OW39989   6.770   2.359   0.669 -0.3256 -0.0900  0.0896
12916SOL    HW139990   6.695   2.417   0.682 -0.5865 -0.3305 -0.3143
12916SOL    HW239991   6.843   2.418   0.649 -1.2563 -0.0115 -3.4618
12917SOL     OW39992   7.501   4.165   3.846 -0.3738  0.8008 -0.1173
12917SOL    HW139993   7.520   4.193   3.936  1.2314  0.8045 -0.4459
12917SOL    HW239994   7.587   4.155   3.805 -1.0858  0.5280 -1.5803
12918SOL     OW39995   4.341   4.019   4.017  0.2336  0.4645 -0.0466
12918SOL    HW139996   4.370   3.985   4.102  1.4189  0.8324 -0.2923
12918SOL    HW239997   4.265   4.073   4.038  0.3648  0.3490  0.7496
12919SOL     OW39998   4.663   0.287   0.679 -0.0797  0.3547  0.5517
12919SOL    HW139999   4.644   0.291   0.773  0.8773  0.9940  0.7166
12919SOL    HW240000   4.744   0.237   0.672  0.5928  1.4770  0.1696
12920SOL     OW40001   2.362   2.074   8.133 -0.8097  0.3583 -0.0192
12920SOL    HW140002   2.426   2.014   8.173 -0.6125 -0.5216 -1.6198
12920SOL    HW240003   2.387   2.160   8.165  0.6343 -0.0907  0.0873
12921SOL     OW40004   4.289   3.384   2.012  0.2318 -0.0264 -0.1121
12921SOL    HW140005   4.297   3.394   1.917  2.5819  1.3268  0.1991
12921SOL    HW240006   4.293   3.289   2.026  0.2350 -0.2190 -1.3176
12922SOL     OW40007   8.185   5.834   1.556  0.6500  0.6185  0.3495
12922SOL    HW140008   8.153   5.816   1.468 -0.1079 -2.2304  1.1639
12922SOL    HW240009   8.241   5.759   1.577  0.4107  1.0087  2.4842
12923SOL     OW40010   5.731   3.511   7.199  0.8895 -0.8624 -0.3198
12923SOL    HW140011   5.819   3.510   7.237  0.1978  1.9174  1.4692
12923SOL    HW240012   5.725   3.595   7.154 -0.6421 -1.3056 -0.9675
12924SOL     OW40013   5.311   5.896   3.059 -0.0325 -0.0085  0.0506
12924SOL    HW140014   5.238   5.849   3.100 -0.5773  0.7758 -0.0281
12924SOL    HW240015   5.288   5.988   3.066  0.5504  0.2012 -0.7436
12925SOL     OW40016   0.877   2.608   4.962  0.3488  0.2725 -0.2590
12925SOL    HW140017   0.910   2.518   4.959 -0.2344  0.0276  0.5804
12925SOL    HW240018   0.850   2.626   4.872  0.0465 -0.5561 -0.3409
12926SOL     OW40019   3.964   6.256   1.296 -0.0783 -0.1061 -0.0761
12926SOL    HW140020   3.932   6.267   1.385 -0.9701 -2.3932 -0.0740
12926SOL    HW240021   3.892   6.285   1.240  1.3967  3.7521 -0.1191
12927SOL     OW40022   7.954   5.887   5.982 -0.3986  0.3816  0.0194
12927SOL    HW140023   8.006   5.936   6.046 -0.2388 -0.2163  0.3533
12927SOL    HW240024   8.017   5.864   5.913 -0.5083  0.7802 -0.2155
12928SOL     OW40025   7.083   3.173   2.360  0.5740  0.1742  0.1524
12928SOL    HW140026   7.146   3.223   2.308  0.9867  0.3174  0.7843
12928SOL    HW240027   7.120   3.172   2.449 -0.1476 -0.0229  0.4560
12929SOL     OW40028   1.758   5.436   1.903 -0.3488 -0.2605  0.3561
12929SOL    HW140029   1.790   5.375   1.836  0.1207  1.1195 -0.7054
12929SOL    HW240030   1.710   5.381   1.965  0.1352 -1.7132 -0.5409
12930SOL     OW40031   4.882   7.282   1.118 -0.3385 -0.1968 -0.2536
12930SOL    HW140032   4.940   7.216   1.081 -1.0222 -0.4793 -0.8470
12930SOL    HW240033   4.816   7.296   1.050 -1.7710 -0.9293  0.9585
12931SOL     OW40034   2.555   0.339   6.271 -0.0545  0.3212 -0.4671
12931SOL    HW140035   2.518   0.311   6.354  0.2522 -0.6832 -0.6556
12931SOL    HW240036   2.571   0.257   6.223  1.0921  0.8075 -0.9410
12932SOL     OW40037   2.389   7.924   2.833 -0.0749  0.2481  0.0294
12932SOL    HW140038   2.337   7.873   2.770  1.4697  0.0286 -1.0990
12932SOL    HW240039   2.422   7.858   2.895 -0.6555  0.3136  0.4154
12933SOL     OW40040   2.132   1.930   6.209  0.1460  0.1434  0.1882
12933SOL    HW140041   2.055   1.887   6.247  0.9762 -1.4108  0.1473
12933SOL    HW240042   2.181   1.961   6.285 -0.4017  0.9380  0.2222
12934SOL     OW40043   7.336   0.770   4.789 -0.3393  0.3133 -0.1805
12934SOL    HW140044   7.324   0.714   4.865 -0.4508 -0.1209 -0.5184
12934SOL    HW240045   7.301   0.855   4.817 -1.9860 -0.2858 -0.3116
12935SOL     OW40046   4.493   0.091   3.865  0.5481  0.4411 -0.3140
12935SOL    HW140047   4.515   0.159   3.802 -0.5073 -0.9256 -2.2274
12935SOL    HW240048   4.399   0.097   3.876  0.3451 -1.0982 -1.0053
12936SOL     OW40049   7.263   3.056   1.499 -0.0070  0.0785  0.3927
12936SOL    HW140050   7.250   3.126   1.562 -1.4174 -1.4882  1.9163
12936SOL    HW240051   7.210   3.081   1.423  2.5114  2.4836 -0.6711
12937SOL     OW40052   4.450   3.734   7.521 -0.2624  0.3367  0.2497
12937SOL    HW140053   4.448   3.662   7.457  1.0578 -0.8680  1.5292
12937SOL    HW240054   4.535   3.725   7.564  0.0703  2.9052  0.1889
12938SOL     OW40055   2.423   7.826   6.570  0.1932  0.2076 -0.0134
12938SOL    HW140056   2.416   7.752   6.510  2.2693  0.4747 -0.6236
12938SOL    HW240057   2.337   7.831   6.612 -0.4180 -1.6679 -0.9764
12939SOL     OW40058   4.987   3.474   3.522  0.2874 -0.3853  0.0775
12939SOL    HW140059   5.030   3.390   3.507  2.4790  1.3683 -4.6662
12939SOL    HW240060   5.048   3.522   3.579  1.3780 -0.3779 -1.0645
12940SOL     OW40061   4.064   0.143   7.918  0.2166  0.2912  0.2651
12940SOL    HW140062   3.990   0.125   7.859  1.5976 -0.7564 -1.1771
12940SOL    HW240063   4.024   0.146   8.005 -1.2850 -2.1192 -0.2686
12941SOL     OW40064   2.865   7.180   2.385 -0.3166  0.4696 -0.2324
12941SOL    HW140065   2.894   7.091   2.364  0.3254  0.6320 -0.0550
12941SOL    HW240066   2.794   7.197   2.324 -0.3074 -0.0922 -0.4055
12942SOL     OW40067   3.243   2.416   7.744 -0.0674  0.2284 -0.1257
12942SOL    HW140068   3.156   2.453   7.762 -1.5240 -3.4404  0.6608
12942SOL    HW240069   3.302   2.490   7.756 -3.0274  2.7888 -0.4742
12943SOL     OW40070   3.975   4.836   0.818 -0.7571  0.0387  0.3954
12943SOL    HW140071   4.011   4.857   0.904  0.3907  1.9666 -0.4971
12943SOL    HW240072   3.890   4.879   0.816 -1.2038 -0.8173  0.9117
12944SOL     OW40073   7.758   7.935   5.749  0.0755 -0.6562 -0.0606
12944SOL    HW140074   7.675   7.975   5.722  0.5645 -0.0261 -0.6404
12944SOL    HW240075   7.742   7.841   5.746 -0.7522 -0.5302  0.2546
12945SOL     OW40076   0.163   7.425   5.551 -0.0338  0.4104  0.2711
12945SOL    HW140077   0.250   7.421   5.590  0.6579  2.1198 -0.9870
12945SOL    HW240078   0.127   7.509   5.581 -1.6438 -0.7154  1.5526
12946SOL     OW40079   7.631   5.700   6.840  0.2492  0.3442 -0.3692
12946SOL    HW140080   7.633   5.651   6.758  1.1105 -0.9611  0.4116
12946SOL    HW240081   7.661   5.788   6.815 -1.1811  0.4569 -1.7551
12947SOL     OW40082   4.686   6.921   5.417  0.4537  0.1036  0.1265
12947SOL    HW140083   4.704   6.859   5.487 -1.9316 -1.5613 -0.6727
12947SOL    HW240084   4.680   6.867   5.338 -0.6061  1.4939 -0.7738
12948SOL     OW40085   1.881   4.453   3.673 -0.3976 -0.2020  0.5700
12948SOL    HW140086   1.854   4.367   3.641 -0.8682  0.4366 -0.7669
12948SOL    HW240087   1.942   4.485   3.606 -0.3833  0.5947  0.9599
12949SOL     OW40088   2.208   3.201   5.300  0.2261 -0.4333 -0.5589
12949SOL    HW140089   2.189   3.203   5.206  0.5985 -0.5222 -0.6366
12949SOL    HW240090   2.128   3.166   5.339 -0.3345  0.6006 -0.7361
12950SOL     OW40091   5.839   5.412   7.844  0.3646  0.2788  0.4029
12950SOL    HW140092   5.913   5.456   7.802  1.4604 -1.6296  0.2799
12950SOL    HW240093   5.833   5.327   7.799  0.4234 -1.0739  2.8527
12951SOL     OW40094   3.928   6.901   8.201  0.0050 -0.3106 -0.0793
12951SOL    HW140095   3.919   6.941   8.114 -0.2315 -0.6264 -0.2010
12951SOL    HW240096   3.843   6.916   8.243 -0.7126 -2.2153 -0.7712
12952SOL     OW40097   6.007   3.145   7.943 -0.7325 -0.1065 -0.5789
12952SOL    HW140098   6.020   3.076   8.009 -0.7716  0.5508  0.1198
12952SOL    HW240099   5.973   3.098   7.867  0.7874 -1.0961 -0.6642
12953SOL     OW40100   4.970   0.529   4.637  0.5070 -0.0386 -0.2090
12953SOL    HW140101   4.888   0.507   4.593  0.2909 -0.2771  0.3020
12953SOL    HW240102   4.993   0.616   4.604  0.7069 -0.5065 -1.2878
12954SOL     OW40103   6.343   8.183   6.814 -0.2145  0.2901 -0.4184
12954SOL    HW140104   6.346   8.221   6.727 -1.0444  0.8373 -0.2063
12954SOL    HW240105   6.371   8.253   6.872  1.6260 -0.4625 -0.3606
12955SOL     OW40106   6.347   1.349   6.486 -0.7201  0.0137  0.5002
12955SOL    HW140107   6.381   1.263   6.462 -0.1544  1.1732 -3.0529
12955SOL    HW240108   6.409   1.380   6.552  1.6916 -0.4705 -1.4430
12956SOL     OW40109   3.378   2.994   4.020 -0.1322  0.5998  0.1400
12956SOL    HW140110   3.380   2.983   4.115 -2.6033 -1.5200 -0.0148
12956SOL    HW240111   3.298   3.044   4.003  0.0602  0.5778 -0.8752
12957SOL     OW40112   7.795   3.937   4.817 -0.6866 -0.6176  0.0138
12957SOL    HW140113   7.791   4.012   4.875  0.6271 -0.2786 -0.3111
12957SOL    HW240114   7.846   3.872   4.865 -0.5279 -0.7368 -0.3095
12958SOL     OW40115   1.234   7.481   2.972  0.4184  0.3955 -0.0458
12958SOL    HW140116   1.185   7.440   2.901  0.5570  1.6949 -0.8887
12958SOL    HW240117   1.270   7.407   3.021 -0.7996 -0.5387 -0.5177
12959SOL     OW40118   4.276   0.055   5.056 -0.8909 -0.1270 -0.2488
12959SOL    HW140119   4.278   0.020   4.967  0.6872  1.0800 -0.7054
12959SOL    HW240120   4.349   0.012   5.101 -4.0178 -3.7351  1.6816
12960SOL     OW40121   2.106   2.051   2.772  0.3993  0.2358 -0.2318
12960SOL    HW140122   2.032   2.036   2.831  1.3024 -1.4265  0.4940
12960SOL    HW240123   2.069   2.041   2.684 -0.6514  1.3637  0.0687
12961SOL     OW40124   1.901   5.108   4.202 -0.0377 -0.4185  0.5512
12961SOL    HW140125   1.868   5.106   4.112  0.0850 -0.8264  0.5148
12961SOL    HW240126   1.946   5.192   4.209 -2.5944  0.9742  1.1452
12962SOL     OW40127   7.852   1.281   4.904 -0.2160 -0.5268  0.1849
12962SOL    HW140128   7.802   1.203   4.879 -0.2867 -0.9224  1.5044
12962SOL    HW240129   7.803   1.318   4.978  1.0712 -0.5452  1.0607
12963SOL     OW40130   4.204   6.263   0.325  0.0004 -0.2916  0.0202
12963SOL    HW140131   4.187   6.258   0.231 -0.4473 -1.3850  0.1498
12963SOL    HW240132   4.118   6.283   0.363  0.6866  2.9147 -0.0102
12964SOL     OW40133   2.111   6.000   3.873  0.0065 -0.3035  0.3030
12964SOL    HW140134   2.049   5.933   3.901  0.9525 -0.8963  0.9670
12964SOL    HW240135   2.055   6.071   3.840 -1.0647 -0.3692  1.9197
12965SOL     OW40136   5.105   7.632   4.780 -0.1050  0.0626  0.8438
12965SOL    HW140137   5.040   7.616   4.848  0.3060 -1.3466  0.9175
12965SOL    HW240138   5.185   7.654   4.828  0.4796 -1.9986  0.8939
12966SOL     OW40139   2.810   6.821   1.961  0.0978  0.0466  0.9483
12966SOL    HW140140   2.876   6.881   1.997 -0.1461  0.6949  0.3324
12966SOL    HW240141   2.861   6.747   1.927  0.2690 -0.9855  3.3727
12967SOL     OW40142   1.085   2.214   3.590  0.3275 -0.6520  0.3555
12967SOL    HW140143   1.116   2.274   3.523  0.9449 -0.5521  0.7220
12967SOL    HW240144   0.998   2.246   3.613  0.5053 -0.1137  0.2860
12968SOL     OW40145   6.126   6.254   2.263 -0.1442 -0.2707 -0.9159
12968SOL    HW140146   6.113   6.173   2.213 -0.8611 -0.1237 -0.9847
12968SOL    HW240147   6.041   6.299   2.257  0.1543  0.3367 -0.6168
12969SOL     OW40148   1.842   2.691   7.646  0.5460 -0.4541  0.0471
12969SOL    HW140149   1.859   2.699   7.740  0.5442 -2.5716  0.2543
12969SOL    HW240150   1.910   2.632   7.614 -0.2381 -0.7935 -1.0462
12970SOL     OW40151   7.038   7.946   7.113  0.4203  0.3678 -0.0942
12970SOL    HW140152   7.081   7.982   7.191  0.0674  0.6825 -0.0435
12970SOL    HW240153   7.028   8.021   7.054  0.1176  0.2546 -0.1877
12971SOL     OW40154   7.349   1.573   8.297 -0.0324 -0.8181  0.3605
12971SOL    HW140155   7.357   1.564   8.202  1.6734  0.1283  0.3990
12971SOL    HW240156   7.374   1.663   8.315 -1.8495 -0.5358  1.5689
12972SOL     OW40157   3.346   7.483   5.992  0.0813  0.1304  0.2905
12972SOL    HW140158   3.347   7.527   5.906  3.4061 -0.1512  0.0907
12972SOL    HW240159   3.362   7.391   5.971 -0.8933 -0.2259  1.1103
12973SOL     OW40160   2.770   8.083   0.483 -0.2145  0.2798 -0.0065
12973SOL    HW140161   2.766   8.002   0.432  0.5091 -0.1315  0.5807
12973SOL    HW240162   2.832   8.138   0.436  1.4183 -0.5814  1.0813
12974SOL     OW40163   1.830   7.558   5.185 -0.0514 -0.5026  0.2723
12974SOL    HW140164   1.735   7.566   5.187  0.0497  1.1349 -0.1906
12974SOL    HW240165   1.861   7.643   5.216  1.2596 -1.2443  1.0112
12975SOL     OW40166   6.241   0.860   3.080  0.4498 -0.3255 -0.8013
12975SOL    HW140167   6.265   0.779   3.036  1.9867 -0.0731 -0.4473
12975SOL    HW240168   6.225   0.834   3.171 -1.0811 -0.5589 -1.1133
12976SOL     OW40169   0.554   6.932   6.437 -0.3146  0.3211 -0.0539
12976SOL    HW140170   0.571   6.889   6.520 -4.7628 -1.2679  0.1828
12976SOL    HW240171   0.592   7.020   6.446  0.6737 -0.3822  2.9908
12977SOL     OW40172   5.296   1.357   6.512 -0.0264  0.0358 -0.4462
12977SOL    HW140173   5.375   1.302   6.517  1.3127  1.8372 -1.3496
12977SOL    HW240174   5.278   1.380   6.603 -1.2691 -2.7659  0.0796
12978SOL     OW40175   7.096   5.427   4.904  0.5236 -0.9198  0.2578
12978SOL    HW140176   7.169   5.404   4.961  0.7989  1.0312  0.7343
12978SOL    HW240177   7.134   5.429   4.816  0.9632 -0.2474  0.4617
12979SOL     OW40178   5.334   5.338   2.598  0.4657  0.3638  0.8985
12979SOL    HW140179   5.399   5.308   2.662  0.8107  2.0892  1.4061
12979SOL    HW240180   5.365   5.303   2.514  1.0057 -0.4116  1.4139
12980SOL     OW40181   6.930   5.436   3.482 -0.4185  0.1919 -0.8040
12980SOL    HW140182   6.922   5.522   3.442 -0.2528 -0.3746 -2.0559
12980SOL    HW240183   6.842   5.415   3.513 -0.2150  1.3357  0.6223
12981SOL     OW40184   2.231   2.592   4.610 -0.4010 -0.0332  0.2722
12981SOL    HW140185   2.228   2.514   4.555 -0.4772 -0.3206  0.6842
12981SOL    HW240186   2.151   2.587   4.663 -1.6687  1.6003 -1.4465
12982SOL     OW40187   3.245   4.396   2.058  0.1694 -0.5533  0.4643
12982SOL    HW140188   3.211   4.471   2.107  0.3617 -1.0990  1.4483
12982SOL    HW240189   3.244   4.425   1.966  1.6440  1.2073  0.9743
12983SOL     OW40190   6.869   6.969   5.378 -0.4763  0.4214  0.4039
12983SOL    HW140191   6.839   7.059   5.391 -0.6485  0.3487  0.5078
12983SOL    HW240192   6.829   6.942   5.296 -0.7215  0.3156  0.5547
12984SOL     OW40193   4.503   7.968   2.995 -0.6144  0.0492  0.2093
12984SOL    HW140194   4.489   7.881   2.958 -1.4758 -0.6510  2.1325
12984SOL    HW240195   4.417   8.009   2.994 -0.2660  0.7818 -0.4154
12985SOL     OW40196   7.995   1.796   4.486  0.0223  0.0447  0.0110
12985SOL    HW140197   8.023   1.888   4.491 -0.3098  0.1441  0.0431
12985SOL    HW240198   8.076   1.747   4.472  0.1103  0.4102 -0.8005
12986SOL     OW40199   4.550   8.052   3.555 -0.6412 -0.3354 -0.1339
12986SOL    HW140200   4.521   8.130   3.508  0.2899 -0.2048 -0.5031
12986SOL    HW240201   4.590   8.084   3.635 -1.2613 -0.4971  0.2436
12987SOL     OW40202   7.562   6.657   1.336 -0.0969 -0.1022  0.1234
12987SOL    HW140203   7.571   6.618   1.423 -1.4231  0.8893  0.7260
12987SOL    HW240204   7.473   6.635   1.309  0.1757 -0.0656 -0.8279
12988SOL     OW40205   3.411   7.326   2.729  0.2547 -0.3963  0.3175
12988SOL    HW140206   3.375   7.247   2.688  0.4486  0.3715 -1.3381
12988SOL    HW240207   3.411   7.306   2.823 -1.9359 -1.4543  0.1179
12989SOL     OW40208   5.296   1.333   1.784  0.6946 -0.2312 -0.3796
12989SOL    HW140209   5.208   1.368   1.797  0.7965 -0.2400  0.3457
12989SOL    HW240210   5.290   1.242   1.814  0.3809 -0.9358 -2.4245
12990SOL     OW40211   1.088   1.445   2.096  0.4673  0.2514  0.5504
12990SOL    HW140212   1.170   1.429   2.142  1.0261 -0.3876 -0.6254
12990SOL    HW240213   1.080   1.370   2.037 -0.1776  1.0959 -0.4410
12991SOL     OW40214   0.259   4.266   6.530 -0.3859  0.0671  0.1627
12991SOL    HW140215   0.199   4.207   6.576 -0.6805  0.0697 -0.2157
12991SOL    HW240216   0.219   4.278   6.443  1.2617 -1.6635 -0.8695
12992SOL     OW40217   4.984   0.757   7.450 -0.5779  0.1657  0.3337
12992SOL    HW140218   4.918   0.771   7.382 -0.0228  1.3696  0.0223
12992SOL    HW240219   5.030   0.841   7.456  0.7675 -0.5854  0.7193
12993SOL     OW40220   6.607   1.769   7.444  0.3938 -0.1852  0.2991
12993SOL    HW140221   6.694   1.791   7.410  0.0212  1.2353  0.2030
12993SOL    HW240222   6.609   1.675   7.458  2.3180 -0.0133  1.3499
12994SOL     OW40223   6.717   4.968   0.561  0.0024  0.1461  0.0458
12994SOL    HW140224   6.659   5.042   0.542  1.0783  1.0012  0.0622
12994SOL    HW240225   6.657   4.895   0.580 -1.0693  1.3574  1.4055
12995SOL     OW40226   0.978   7.733   4.713  0.1696 -0.1715 -0.2826
12995SOL    HW140227   1.013   7.721   4.801  2.0818 -2.9393 -1.3369
12995SOL    HW240228   1.024   7.810   4.679 -0.4214  0.7787  1.0602
12996SOL     OW40229   4.786   7.304   3.217 -0.2042  0.0039 -0.1384
12996SOL    HW140230   4.769   7.369   3.285 -0.3331 -0.4244  0.2431
12996SOL    HW240231   4.816   7.227   3.265  2.1451  0.5069 -0.7368
12997SOL     OW40232   2.691   3.096   3.863  0.4320 -0.2050 -0.5293
12997SOL    HW140233   2.657   3.097   3.953 -0.9013  1.2225 -1.0232
12997SOL    HW240234   2.776   3.052   3.870  0.5903  0.3735  1.5144
12998SOL     OW40235   6.404   1.086   3.915 -0.4008 -0.0454  0.2331
12998SOL    HW140236   6.348   1.159   3.891  0.4129  0.4728 -0.1109
12998SOL    HW240237   6.470   1.124   3.972  0.0187 -0.5176  0.0687
12999SOL     OW40238   3.661   6.962   8.222 -0.1302 -0.2325  0.2264
12999SOL    HW140239   3.653   7.031   8.287 -2.7047  0.5380 -0.8693
12999SOL    HW240240   3.694   7.006   8.143 -0.5550 -0.4846 -0.0966
13000SOL     OW40241   3.836   8.178   3.400 -0.2815  0.0234  0.0728
13000SOL    HW140242   3.807   8.173   3.491 -0.6800  0.5151 -0.0243
13000SOL    HW240243   3.919   8.130   3.398  0.5314  1.3732  1.0134
13001SOL     OW40244   0.505   1.043   3.209 -0.0347  0.4127  0.5413
13001SOL    HW140245   0.450   1.055   3.132  0.9683 -0.2180 -0.2759
13001SOL    HW240246   0.488   1.121   3.263 -1.0236  0.6625 -0.1364
13002SOL     OW40247   0.958   4.537   3.828  0.1272  0.4873 -0.3616
13002SOL    HW140248   0.967   4.574   3.916 -0.1612 -0.4194  0.0633
13002SOL    HW240249   0.897   4.596   3.784 -0.4195  0.4654  0.3418
13003SOL     OW40250   3.145   0.540   3.920  0.4702  0.0972 -0.3571
13003SOL    HW140251   3.088   0.540   3.843 -1.5493  0.0252  1.0961
13003SOL    HW240252   3.136   0.452   3.956 -0.9022  1.0067  1.5916
13004SOL     OW40253   1.605   3.307   0.201 -0.8619 -0.8975  0.2400
13004SOL    HW140254   1.611   3.258   0.119 -0.8526  3.0395 -2.2783
13004SOL    HW240255   1.678   3.369   0.197 -2.9430  1.7713  1.4817
13005SOL     OW40256   1.234   7.719   5.934  0.4611  0.1200 -0.7957
13005SOL    HW140257   1.198   7.725   6.022  2.9377 -0.5185  0.2928
13005SOL    HW240258   1.265   7.807   5.914  1.9675 -0.2406 -0.1011
13006SOL     OW40259   4.168   4.899   0.075 -0.3157  0.1009 -0.3140
13006SOL    HW140260   4.192   4.825   0.019 -0.1449 -0.5711  0.6366
13006SOL    HW240261   4.231   4.967   0.053 -0.8496  0.1906 -1.6387
13007SOL     OW40262   0.213   6.414   5.422 -0.0677 -0.3518  0.2104
13007SOL    HW140263   0.190   6.351   5.489  0.2162 -0.1630  0.4889
13007SOL    HW240264   0.261   6.363   5.356 -0.2309 -0.5105  0.2168
13008SOL     OW40265   1.530   7.419   3.234 -0.0190 -0.2177 -0.8013
13008SOL    HW140266   1.458   7.385   3.180 -0.0534  1.1626 -1.6577
13008SOL    HW240267   1.542   7.510   3.204  2.1372 -0.4448 -0.7557
13009SOL     OW40268   5.303   1.835   0.405 -0.2795  0.1313  0.2949
13009SOL    HW140269   5.335   1.924   0.423  0.6706 -0.3069  0.7982
13009SOL    HW240270   5.373   1.795   0.354 -0.6816 -0.3573  0.1297
13010SOL     OW40271   6.332   5.674   1.857 -0.1463  0.1224  0.3883
13010SOL    HW140272   6.349   5.582   1.838 -1.0938  0.3353 -1.5756
13010SOL    HW240273   6.387   5.722   1.795  0.8740  0.9090  1.8642
13011SOL     OW40274   3.921   5.091   4.096 -0.1503 -0.8792 -0.7528
13011SOL    HW140275   3.895   5.166   4.150  1.2534 -0.2295 -0.9554
13011SOL    HW240276   3.963   5.031   4.157  1.1433 -0.2900 -1.0534
13012SOL     OW40277   7.159   6.079   1.498 -0.1881  0.2709 -0.1502
13012SOL    HW140278   7.065   6.068   1.515 -0.0696  0.4852  0.6623
13012SOL    HW240279   7.197   5.993   1.518 -0.6836 -0.9877 -4.0597
13013SOL     OW40280   4.231   2.289   6.894  0.1594 -0.1695 -0.2630
13013SOL    HW140281   4.203   2.201   6.919  1.2214 -0.9310 -1.6799
13013SOL    HW240282   4.172   2.315   6.823  0.1250  0.0756 -0.1464
13014SOL     OW40283   2.923   2.838   6.802 -0.4044 -0.2909 -0.3644
13014SOL    HW140284   2.969   2.860   6.721  0.1136 -0.0891 -0.0267
13014SOL    HW240285   2.833   2.820   6.776  0.0546 -1.5085 -1.1585
13015SOL     OW40286   3.303   0.186   0.100  0.4652  0.0124 -0.0369
13015SOL    HW140287   3.240   0.205   0.170  0.3321  1.1587 -0.4507
13015SOL    HW240288   3.329   0.095   0.115  0.6062  0.2978  1.6424
13016SOL     OW40289   3.125   5.044   1.310 -1.0349 -0.4774  0.2502
13016SOL    HW140290   3.034   5.016   1.326 -0.3183 -1.9515  1.9122
13016SOL    HW240291   3.173   5.015   1.387  0.5655  1.7993  0.1579
13017SOL     OW40292   1.310   1.776   7.373  0.2818 -0.1659 -0.4053
13017SOL    HW140293   1.220   1.750   7.352 -0.4266  1.1814  0.8518
13017SOL    HW240294   1.310   1.788   7.468  1.1734  2.0485 -0.6358
13018SOL     OW40295   1.015   4.126   1.179 -1.0285 -0.2361 -0.1449
13018SOL    HW140296   1.081   4.131   1.248 -0.3291 -0.6927 -0.7766
13018SOL    HW240297   0.936   4.096   1.224 -1.2132  1.7141  0.8840
13019SOL     OW40298   2.816   5.878   2.023  0.2577 -0.1995  0.2266
13019SOL    HW140299   2.840   5.798   1.976  1.3131  0.2695 -0.0261
13019SOL    HW240300   2.828   5.856   2.115  4.4104  0.8850  0.0379
13020SOL     OW40301   5.329   2.645   5.433 -0.3552  0.1473  0.0411
13020SOL    HW140302   5.306   2.579   5.369 -3.8033  1.2964  0.0261
13020SOL    HW240303   5.337   2.597   5.516 -0.3161 -0.6428 -0.4185
13021SOL     OW40304   7.020   5.735   6.935  0.4006 -0.1030 -0.1429
13021SOL    HW140305   7.105   5.734   6.892  1.8871 -0.3919  2.7122
13021SOL    HW240306   7.007   5.825   6.962 -0.0928 -0.1209 -0.3017
13022SOL     OW40307   5.377   5.961   3.812  0.1913 -0.4482 -0.0023
13022SOL    HW140308   5.372   6.028   3.880  0.4773  0.9616 -1.3724
13022SOL    HW240309   5.396   5.880   3.861 -0.7963  0.3254  1.7069
13023SOL     OW40310   3.993   0.915   2.124  0.4552 -0.4656 -0.0017
13023SOL    HW140311   3.955   0.945   2.042  1.7693 -0.9238 -0.7950
13023SOL    HW240312   3.978   0.821   2.126 -1.3785 -0.1722  1.2679
13024SOL     OW40313   3.885   5.416   2.224  0.0693 -0.3828 -0.2204
13024SOL    HW140314   3.953   5.398   2.289 -0.3868 -0.9276  0.1030
13024SOL    HW240315   3.922   5.487   2.171  0.0582  0.7158  1.2104
13025SOL     OW40316   0.997   0.717   6.814  0.2744  0.2861 -0.0603
13025SOL    HW140317   0.936   0.778   6.773  1.2146  1.0904 -0.2762
13025SOL    HW240318   0.977   0.632   6.773 -0.3450  0.6409 -0.5023
13026SOL     OW40319   0.183   3.168   6.506 -0.1269 -0.0205 -0.3582
13026SOL    HW140320   0.140   3.234   6.453  1.5751 -0.1799 -2.0176
13026SOL    HW240321   0.148   3.085   6.474 -1.2686 -0.0070  0.8069
13027SOL     OW40322   8.267   2.701   3.450 -0.0493 -0.1155  0.3295
13027SOL    HW140323   8.216   2.674   3.526  0.2420 -0.3270  0.4508
13027SOL    HW240324   8.290   2.792   3.468  0.7002 -0.4016  0.8745
13028SOL     OW40325   6.698   2.582   6.287 -0.1999 -0.3784 -0.1069
13028SOL    HW140326   6.653   2.579   6.371 -1.3344  0.1971 -0.6795
13028SOL    HW240327   6.720   2.675   6.275 -0.3690 -0.4004 -0.6108
13029SOL     OW40328   2.268   0.862   6.835 -0.3695  0.3995 -0.6937
13029SOL    HW140329   2.340   0.830   6.890 -1.3287 -0.8885 -0.1743
13029SOL    HW240330   2.297   0.846   6.746  0.4065  0.7969 -0.5198
13030SOL     OW40331   8.216   2.429   6.134  0.0064 -0.1239  0.3645
13030SOL    HW140332   8.130   2.472   6.133  0.5242  1.0356  1.9671
13030SOL    HW240333   8.197   2.336   6.143 -1.0974  0.0880  0.2566
13031SOL     OW40334   7.875   1.552   6.049  0.3419  0.3689  0.0289
13031SOL    HW140335   7.876   1.614   5.977  1.8230  2.1694  1.5113
13031SOL    HW240336   7.967   1.549   6.079  0.2130 -2.2025  0.2713
13032SOL     OW40337   2.991   4.688   7.008 -0.0949  0.0893  0.2842
13032SOL    HW140338   3.047   4.611   6.992 -1.1213 -0.3421 -1.3520
13032SOL    HW240339   2.979   4.727   6.922 -0.0063  1.8202  1.0372
13033SOL     OW40340   7.154   1.521   1.909 -0.3046  0.1407  0.0645
13033SOL    HW140341   7.068   1.560   1.894 -0.6178 -0.8180 -0.6755
13033SOL    HW240342   7.150   1.436   1.866 -0.6245 -1.9831  4.1668
13034SOL     OW40343   5.844   0.863   1.220 -0.3977  0.2456  0.3043
13034SOL    HW140344   5.823   0.915   1.142  0.1918  3.1564  1.9799
13034SOL    HW240345   5.763   0.862   1.270 -0.4334 -0.5648  0.2353
13035SOL     OW40346   2.464   1.303   2.950 -0.1352  0.1879  0.4377
13035SOL    HW140347   2.518   1.233   2.984 -1.6096 -0.7053  0.9760
13035SOL    HW240348   2.516   1.383   2.963  1.0156 -0.6439  0.9645
13036SOL     OW40349   6.170   7.633   0.930 -0.7088 -0.1014  0.2049
13036SOL    HW140350   6.190   7.574   1.003 -0.7915 -0.6053 -0.1788
13036SOL    HW240351   6.202   7.719   0.959 -2.0688 -0.0056  1.4279
13037SOL     OW40352   2.055   0.825   5.863 -0.3740  0.3215 -0.1654
13037SOL    HW140353   2.135   0.862   5.902 -0.8425  0.3626  0.7638
13037SOL    HW240354   2.072   0.731   5.861  0.2711  0.4460 -1.2941
13038SOL     OW40355   3.629   1.462   5.923 -0.0334  0.0718 -0.1579
13038SOL    HW140356   3.684   1.391   5.890 -0.2601  0.7767 -2.1421
13038SOL    HW240357   3.690   1.520   5.970  0.4405 -0.5495 -0.0032
13039SOL     OW40358   6.431   2.210   1.993  0.2891 -0.3328 -0.0317
13039SOL    HW140359   6.485   2.195   2.071  1.0010 -0.7954 -0.6076
13039SOL    HW240360   6.491   2.250   1.930  0.1478 -1.4904 -0.9255
13040SOL     OW40361   2.649   5.012   3.763 -0.5449 -0.7949  0.1214
13040SOL    HW140362   2.579   4.951   3.785 -1.0419 -0.1082  0.4992
13040SOL    HW240363   2.716   4.997   3.831  0.5759 -2.8305 -1.3787
13041SOL     OW40364   1.600   7.971   8.152  0.4884  0.4221  0.0388
13041SOL    HW140365   1.605   7.894   8.096  0.2775 -0.4538  1.1923
13041SOL    HW240366   1.578   7.936   8.239 -0.0333  1.8156  0.4858
13042SOL     OW40367   0.869   6.292   3.970  0.1584 -0.3225 -0.1008
13042SOL    HW140368   0.885   6.387   3.974  1.9282 -0.6303  0.5008
13042SOL    HW240369   0.950   6.253   4.000 -0.8280 -2.0403  0.3912
13043SOL     OW40370   3.491   3.084   4.447 -0.3418 -0.4093  0.2721
13043SOL    HW140371   3.398   3.107   4.449 -0.0058  1.0141 -0.2137
13043SOL    HW240372   3.501   3.033   4.367 -0.4810  0.4080 -0.2696
13044SOL     OW40373   0.355   5.929   6.236 -0.4172  0.3088 -0.1387
13044SOL    HW140374   0.344   6.023   6.221 -0.3495  0.2081 -0.8597
13044SOL    HW240375   0.404   5.923   6.318  1.1380  0.9675 -0.9838
13045SOL     OW40376   0.080   1.172   5.758  0.0631 -0.4698  0.0124
13045SOL    HW140377   0.062   1.152   5.666  3.1843 -1.0000 -0.5296
13045SOL    HW240378   0.059   1.091   5.805  0.0385 -0.7187 -0.4292
13046SOL     OW40379   2.089   0.788   7.219  0.3607  0.4770 -0.0158
13046SOL    HW140380   2.068   0.822   7.306  1.5195  0.3202  0.3310
13046SOL    HW240381   2.096   0.694   7.231 -0.3298  0.3628 -0.4625
13047SOL     OW40382   1.060   1.444   1.100  0.1717  0.5982 -0.5309
13047SOL    HW140383   1.121   1.459   1.028 -1.0479  1.4079 -1.4179
13047SOL    HW240384   1.007   1.370   1.072  0.3442  0.2850 -0.0353
13048SOL     OW40385   1.484   1.136   7.607 -0.4717 -0.4968  0.4737
13048SOL    HW140386   1.529   1.053   7.626  0.5456  0.3338  1.8340
13048SOL    HW240387   1.393   1.120   7.635 -0.4863 -1.4218 -0.0718
13049SOL     OW40388   4.612   8.052   1.637 -0.1294 -0.0136 -0.1813
13049SOL    HW140389   4.615   8.091   1.550 -0.3440  0.7594  0.1537
13049SOL    HW240390   4.519   8.035   1.653 -0.1903  0.7234  0.2767
13050SOL     OW40391   8.210   5.117   7.408  0.1293 -0.3243 -0.2182
13050SOL    HW140392   8.269   5.193   7.409  0.7493 -0.7998 -0.2052
13050SOL    HW240393   8.231   5.071   7.489 -0.5743 -0.2617  0.0007
13051SOL     OW40394   7.378   4.412   0.870 -0.0544 -0.4214 -0.2611
13051SOL    HW140395   7.329   4.338   0.907 -0.7759  0.0982 -0.1843
13051SOL    HW240396   7.378   4.395   0.776  1.2359 -1.4078 -0.0990
13052SOL     OW40397   5.386   6.161   0.919  0.8325  0.0608  0.2216
13052SOL    HW140398   5.415   6.188   0.831  0.8122 -0.2537  0.1167
13052SOL    HW240399   5.343   6.076   0.905  1.0699 -0.1192  0.5746
13053SOL     OW40400   2.470   7.412   3.118 -0.0840  0.1588 -0.1003
13053SOL    HW140401   2.443   7.337   3.172  1.4680  0.3066  0.9074
13053SOL    HW240402   2.537   7.376   3.060  2.5607  1.3033  2.1529
13054SOL     OW40403   3.267   6.878   2.966  0.2295 -0.6295 -0.1986
13054SOL    HW140404   3.297   6.864   3.056 -0.5234  0.7911  0.2954
13054SOL    HW240405   3.242   6.791   2.935 -1.6668 -0.8467  1.7736
13055SOL     OW40406   3.237   3.212   4.140 -0.1648  0.2315 -0.0610
13055SOL    HW140407   3.159   3.171   4.104  0.3741 -0.8276 -0.0362
13055SOL    HW240408   3.269   3.269   4.069 -1.3419  1.2289  0.1800
13056SOL     OW40409   0.719   0.529   4.566 -1.0139  0.2402 -0.0631
13056SOL    HW140410   0.714   0.435   4.584 -0.3799 -0.3465 -2.6709
13056SOL    HW240411   0.688   0.537   4.476 -1.4164  2.5898  0.2685
13057SOL     OW40412   0.915   6.550   3.422  0.1041 -0.0408 -0.6228
13057SOL    HW140413   0.869   6.467   3.430 -1.5262  0.9276  0.4800
13057SOL    HW240414   0.864   6.600   3.358 -1.1243  1.4621  1.4308
13058SOL     OW40415   6.413   0.310   2.283  0.0990  0.0218  0.9393
13058SOL    HW140416   6.360   0.314   2.203  0.2478  0.9227  0.8781
13058SOL    HW240417   6.367   0.248   2.340 -0.5608  0.1627  0.5589
13059SOL     OW40418   1.375   5.378   1.994 -0.2476  0.3272 -0.1028
13059SOL    HW140419   1.403   5.295   1.954  0.2688  0.1979  0.5149
13059SOL    HW240420   1.294   5.400   1.949 -1.1742 -1.2657  0.7377
13060SOL     OW40421   1.844   1.553   3.368 -0.2717  0.1272  0.0508
13060SOL    HW140422   1.845   1.648   3.381 -1.7303  0.0779  0.5947
13060SOL    HW240423   1.755   1.534   3.339  0.1657 -1.0138 -0.5509
13061SOL     OW40424   2.294   0.475   7.609 -0.4758  0.6054 -0.1874
13061SOL    HW140425   2.212   0.498   7.565  0.5242  1.9651 -1.3759
13061SOL    HW240426   2.317   0.554   7.658  0.6687  0.6118 -0.7237
13062SOL     OW40427   6.444   0.905   1.417  0.4021  0.5439 -0.4691
13062SOL    HW140428   6.528   0.909   1.373  1.3888  0.0387  1.3124
13062SOL    HW240429   6.424   0.812   1.424 -0.0180  0.6381 -0.3528
13063SOL     OW40430   3.462   2.241   3.890  0.7760  0.4523  0.0220
13063SOL    HW140431   3.500   2.320   3.854  0.6109 -0.8546 -3.1833
13063SOL    HW240432   3.537   2.184   3.909  0.6662 -0.7639 -2.9933
13064SOL     OW40433   2.212   4.410   3.945 -0.0912  0.2829  0.1720
13064SOL    HW140434   2.214   4.499   3.979  0.8122  0.0412  0.7735
13064SOL    HW240435   2.203   4.420   3.850 -2.9822  0.9632  0.4541
13065SOL     OW40436   0.250   6.319   3.756 -0.2532  0.5221 -0.4150
13065SOL    HW140437   0.235   6.398   3.808 -1.8425 -0.2585  0.3258
13065SOL    HW240438   0.200   6.251   3.801 -1.6948 -0.1607 -2.9707
13066SOL     OW40439   1.121   5.799   6.583 -0.1612  0.0501  0.1139
13066SOL    HW140440   1.174   5.742   6.638 -1.4817 -0.3594  0.9827
13066SOL    HW240441   1.184   5.842   6.525  1.1883  0.1286  1.6151
13067SOL     OW40442   0.406   8.027   5.510  0.0018  0.1113  0.3663
13067SOL    HW140443   0.422   7.981   5.428  0.4214  3.1905 -1.3718
13067SOL    HW240444   0.480   8.087   5.519  0.1553 -0.4425  3.2040
13068SOL     OW40445   1.337   0.505   3.829 -0.3301  0.7563 -0.0280
13068SOL    HW140446   1.377   0.553   3.902  0.5186  0.1659 -0.0911
13068SOL    HW240447   1.260   0.556   3.806 -0.5645  0.9799  1.2386
13069SOL     OW40448   7.062   0.574   7.347  0.4436  0.1480  0.3702
13069SOL    HW140449   6.997   0.544   7.411  0.1512 -0.5629 -0.2494
13069SOL    HW240450   7.144   0.533   7.375  0.7526  1.4771  1.4667
13070SOL     OW40451   2.976   0.289   1.351 -0.3127 -0.0122 -0.3912
13070SOL    HW140452   2.918   0.240   1.410 -0.7553 -1.6468 -2.1665
13070SOL    HW240453   2.933   0.284   1.266  0.8239  1.5295 -1.0616
13071SOL     OW40454   3.002   1.022   1.380 -0.3196 -0.6490 -0.3286
13071SOL    HW140455   3.077   1.075   1.357 -0.9639  0.8027  0.8537
13071SOL    HW240456   2.989   0.965   1.304  0.3227  0.9209 -1.6464
13072SOL     OW40457   1.957   3.824   1.861  0.0970  0.0044 -0.2143
13072SOL    HW140458   2.052   3.823   1.847  0.1815  0.0935  0.3180
13072SOL    HW240459   1.919   3.816   1.774  0.5950 -1.2793 -0.3227
13073SOL     OW40460   0.368   1.827   0.973 -0.1736 -0.2199 -0.5783
13073SOL    HW140461   0.403   1.738   0.973  0.1294 -0.1163  0.5999
13073SOL    HW240462   0.382   1.858   1.063 -1.8089  0.4165 -0.5221
13074SOL     OW40463   2.775   0.292   6.696  0.3080  0.3506 -0.3061
13074SOL    HW140464   2.769   0.301   6.792 -1.2962 -0.2664 -0.3352
13074SOL    HW240465   2.740   0.374   6.662  0.5287  0.4173 -0.3745
13075SOL     OW40466   6.698   2.846   2.026  0.3759  0.2742 -0.2745
13075SOL    HW140467   6.693   2.923   2.081 -0.6847  0.5940 -0.8158
13075SOL    HW240468   6.608   2.817   2.015  0.7571 -1.0353 -0.0891
13076SOL     OW40469   5.671   1.872   6.632  0.2844  0.3214 -0.3922
13076SOL    HW140470   5.708   1.818   6.562 -0.4846  0.4857 -0.9249
13076SOL    HW240471   5.748   1.910   6.675  0.7627  0.2665 -1.1827
13077SOL     OW40472   5.635   2.619   7.524 -0.2280 -0.1185  0.1394
13077SOL    HW140473   5.547   2.592   7.498 -0.0652  1.9007 -2.7895
13077SOL    HW240474   5.622   2.675   7.600 -1.2583 -1.5668  1.0541
13078SOL     OW40475   6.879   6.882   1.427 -0.4665  0.3690  0.4663
13078SOL    HW140476   6.946   6.883   1.359  1.2763 -2.3211  2.0237
13078SOL    HW240477   6.925   6.912   1.506 -1.9528  1.5707  0.9061
13079SOL     OW40478   8.161   6.178   5.385  0.7360 -0.1461 -0.6774
13079SOL    HW140479   8.224   6.242   5.419 -0.5469 -0.2320  1.9104
13079SOL    HW240480   8.082   6.229   5.369  0.3984 -0.6950 -0.7387
13080SOL     OW40481   3.506   5.396   8.267 -0.0055 -0.1491  0.1677
13080SOL    HW140482   3.486   5.478   8.312  0.8662  0.0642  0.1809
13080SOL    HW240483   3.536   5.424   8.180 -0.6836 -0.5077 -0.1847
13081SOL     OW40484   5.717   5.488   2.254  0.2117  0.0841  0.5627
13081SOL    HW140485   5.706   5.583   2.260 -0.4291  0.1462 -1.1794
13081SOL    HW240486   5.781   5.467   2.322  0.0585  1.7089  1.2362
13082SOL     OW40487   2.107   1.165   6.355 -0.3392  0.1041 -0.0177
13082SOL    HW140488   2.052   1.109   6.410  0.6951 -0.9507 -0.0094
13082SOL    HW240489   2.113   1.118   6.271 -0.5386  0.8614 -0.4614
13083SOL     OW40490   6.916   6.512   7.936  0.0185  0.4053 -0.6784
13083SOL    HW140491   6.823   6.532   7.942  0.2111  0.8074  1.2634
13083SOL    HW240492   6.919   6.417   7.921 -0.6871  0.2227  0.3031
13084SOL     OW40493   2.664   6.661   7.394  0.3399 -0.0954  0.0085
13084SOL    HW140494   2.660   6.644   7.488  0.2679 -2.3980 -0.3879
13084SOL    HW240495   2.756   6.679   7.376  0.4486 -0.2491  0.4170
13085SOL     OW40496   1.107   6.470   5.038 -0.3524 -0.4001 -0.2900
13085SOL    HW140497   1.074   6.424   5.115 -1.3749  0.7592 -0.0283
13085SOL    HW240498   1.145   6.551   5.072  1.9902 -1.2937 -0.6879
13086SOL     OW40499   0.861   7.834   5.598  0.2275  0.4565  0.4760
13086SOL    HW140500   0.905   7.889   5.663  0.2288 -0.8625  1.6167
13086SOL    HW240501   0.890   7.745   5.618 -0.9741 -0.1389 -0.3570
13087SOL     OW40502   4.564   1.598   6.105 -0.3379 -0.2372 -0.0043
13087SOL    HW140503   4.657   1.593   6.128 -0.3261 -0.5372 -0.1033
13087SOL    HW240504   4.554   1.680   6.057  0.1485 -0.8778 -1.2067
13088SOL     OW40505   3.920   3.873   5.569 -0.6657 -0.0592 -0.6573
13088SOL    HW140506   3.898   3.856   5.478 -1.7408 -0.1823 -0.3712
13088SOL    HW240507   3.966   3.793   5.598  1.8383  0.9082 -1.7654
13089SOL     OW40508   0.933   1.877   2.758 -0.2473 -0.4982  0.6388
13089SOL    HW140509   0.887   1.823   2.694 -0.6573  0.4345  0.1401
13089SOL    HW240510   0.865   1.909   2.817  0.3004 -2.5614  2.4903
13090SOL     OW40511   1.366   5.851   2.457  0.0752  0.8492 -0.0229
13090SOL    HW140512   1.416   5.802   2.522 -1.5009 -0.2168  0.4134
13090SOL    HW240513   1.432   5.903   2.411  1.4834  0.0401  1.0226
13091SOL     OW40514   3.312   0.746   6.462 -0.5210  0.1332  0.4356
13091SOL    HW140515   3.371   0.810   6.502  1.0471 -0.3180 -1.1375
13091SOL    HW240516   3.357   0.662   6.469 -0.9651 -0.2215 -0.7773
13092SOL     OW40517   6.713   5.208   8.052  0.3807  0.3905  0.6426
13092SOL    HW140518   6.638   5.165   8.010  1.0530 -0.8300  0.6674
13092SOL    HW240519   6.718   5.294   8.010 -1.5323  0.8182  1.2232
13093SOL     OW40520   6.588   1.889   2.156  0.3604  0.1551 -0.2403
13093SOL    HW140521   6.527   1.861   2.088  0.7458 -0.7524 -0.2192
13093SOL    HW240522   6.596   1.813   2.214  1.3403  0.3352 -0.1321
13094SOL     OW40523   4.559   0.917   8.158  0.5516  1.0102 -0.1975
13094SOL    HW140524   4.507   0.997   8.163  0.6840  0.9790  1.7482
13094SOL    HW240525   4.520   0.858   8.222 -0.0001 -0.7884 -2.1286
13095SOL     OW40526   5.343   0.962   0.253 -0.0158 -0.2281 -0.2635
13095SOL    HW140527   5.347   0.879   0.301  0.5868 -1.1376 -1.8594
13095SOL    HW240528   5.259   0.960   0.207  0.7585 -0.7628 -1.6944
13096SOL     OW40529   6.606   6.487   6.978 -0.2937 -0.3111 -0.1808
13096SOL    HW140530   6.618   6.469   6.885  0.2094  0.6884 -0.3167
13096SOL    HW240531   6.695   6.487   7.014 -0.4462 -0.2110  0.2057
13097SOL     OW40532   1.084   7.320   1.545 -0.0711  0.0528 -0.8818
13097SOL    HW140533   1.038   7.337   1.463  0.3365 -1.1063 -1.3627
13097SOL    HW240534   1.023   7.348   1.614  0.1492  2.4009 -1.5883
13098SOL     OW40535   3.388   3.238   1.548 -0.1073  0.1470 -0.1908
13098SOL    HW140536   3.334   3.305   1.590  1.7053  1.9116 -0.5962
13098SOL    HW240537   3.338   3.157   1.557 -1.6157  1.2658  1.7134
13099SOL     OW40538   2.934   0.383   8.202  0.2162 -0.4981  0.4204
13099SOL    HW140539   3.025   0.377   8.231 -0.1580 -0.4211  1.6251
13099SOL    HW240540   2.916   0.298   8.162  0.3704 -1.0333  1.4868
13100SOL     OW40541   4.939   2.548   8.013 -0.2566 -0.2417  0.4229
13100SOL    HW140542   4.963   2.457   8.027 -1.0877 -0.6039 -0.4095
13100SOL    HW240543   5.011   2.599   8.050  0.0601 -1.2307  1.1763
13101SOL     OW40544   6.555   6.422   1.365  0.4596  0.3798  0.3377
13101SOL    HW140545   6.544   6.516   1.381  1.9087  0.3314  1.7316
13101SOL    HW240546   6.492   6.380   1.424 -0.5949  0.4537 -0.6905
13102SOL     OW40547   3.580   5.708   7.684  0.0537 -0.6489 -0.1974
13102SOL    HW140548   3.658   5.748   7.647 -0.7977  0.6412 -0.6307
13102SOL    HW240549   3.576   5.621   7.645  1.1731 -0.6581 -0.2970
13103SOL     OW40550   2.242   4.804   3.364 -0.2709 -0.3464 -0.0863
13103SOL    HW140551   2.327   4.759   3.367  0.4694  1.0596  0.5780
13103SOL    HW240552   2.221   4.809   3.270  0.5483 -0.4083 -0.2814
13104SOL     OW40553   5.027   4.444   2.040 -0.3260  0.9463 -0.3823
13104SOL    HW140554   4.997   4.431   2.130  3.0505 -0.0721  0.6740
13104SOL    HW240555   5.035   4.356   2.004  0.5034  1.2374 -0.9230
13105SOL     OW40556   0.597   4.287   7.266 -0.1165 -0.7708 -0.2129
13105SOL    HW140557   0.689   4.277   7.242  0.1995 -0.2437  0.7659
13105SOL    HW240558   0.551   4.288   7.182  0.7787 -0.8900 -0.7151
13106SOL     OW40559   8.227   3.562   3.771  0.3058  0.5338  0.2337
13106SOL    HW140560   8.273   3.583   3.852 -0.8044  1.5359  0.6084
13106SOL    HW240561   8.267   3.619   3.705  0.1155  0.8560  0.3985
13107SOL     OW40562   7.588   0.785   1.481  0.4803  0.2976  1.3530
13107SOL    HW140563   7.536   0.855   1.441  0.8935  0.4086  1.0085
13107SOL    HW240564   7.578   0.710   1.422  1.3482  0.5583  0.8683
13108SOL     OW40565   4.598   3.172   8.151 -0.4640 -0.5456 -0.1781
13108SOL    HW140566   4.673   3.156   8.093  0.2019 -0.0980  0.5501
13108SOL    HW240567   4.527   3.120   8.113  0.3114 -1.2669 -0.6666
13109SOL     OW40568   0.814   3.894   4.677 -0.5753  0.9600  0.1451
13109SOL    HW140569   0.835   3.857   4.592 -1.1968 -1.4942  1.0312
13109SOL    HW240570   0.897   3.929   4.709  0.1775 -0.2853 -0.4159
13110SOL     OW40571   4.473   6.892   4.148  0.4955  0.1987  0.2122
13110SOL    HW140572   4.544   6.828   4.145  0.8160  0.6213 -1.2001
13110SOL    HW240573   4.444   6.900   4.058 -0.1068  1.4239  0.5126
13111SOL     OW40574   2.649   6.237   1.530 -0.5009 -0.2476  0.2784
13111SOL    HW140575   2.601   6.157   1.509 -1.9367  1.0438 -1.5128
13111SOL    HW240576   2.640   6.247   1.624  0.5824 -2.7256  0.6826
13112SOL     OW40577   5.478   5.828   8.231  0.0283  0.0093 -0.2380
13112SOL    HW140578   5.461   5.734   8.222 -1.8019  0.2339  0.5967
13112SOL    HW240579   5.519   5.837   8.317  0.4368 -0.0614 -0.4268
13113SOL     OW40580   0.948   5.528   6.715  0.3189 -0.1358  0.0251
13113SOL    HW140581   0.889   5.594   6.751  1.0734  0.0963  0.8467
13113SOL    HW240582   1.027   5.534   6.769  1.2834 -0.0975 -1.3580
13114SOL     OW40583   1.120   0.410   3.538  0.3006  0.3911 -0.1289
13114SOL    HW140584   1.164   0.417   3.623 -0.3239  0.2890  0.2022
13114SOL    HW240585   1.028   0.392   3.559 -0.0924  1.5712 -0.7970
13115SOL     OW40586   7.889   6.178   6.346 -0.0976  0.7609 -0.1699
13115SOL    HW140587   7.847   6.235   6.282  1.2184  2.2986  0.3029
13115SOL    HW240588   7.981   6.205   6.346  0.8831 -2.4105 -1.0539
13116SOL     OW40589   3.971   2.159   0.534  0.5830 -0.2915  0.8270
13116SOL    HW140590   3.947   2.226   0.598 -1.2186  0.6738 -0.8041
13116SOL    HW240591   4.017   2.208   0.465  0.9605 -1.0291  0.5569
13117SOL     OW40592   6.950   5.042   8.013  0.1404 -0.1088  0.0911
13117SOL    HW140593   6.861   5.075   8.026  0.2215  0.0571  0.2385
13117SOL    HW240594   6.991   5.051   8.099  1.2633  2.7540 -0.6653
13118SOL     OW40595   1.649   2.093   3.675  0.2352  0.5306  0.1065
13118SOL    HW140596   1.634   2.164   3.738 -1.8977  0.4467 -0.2763
13118SOL    HW240597   1.572   2.037   3.683  0.7261 -0.3845 -1.4019
13119SOL     OW40598   3.521   6.154   0.644 -0.0715 -0.0203 -0.6917
13119SOL    HW140599   3.433   6.126   0.618  0.1241 -0.8097 -0.5272
13119SOL    HW240600   3.568   6.072   0.660  0.8331  0.3870 -1.2245
13120SOL     OW40601   2.025   3.936   5.339 -0.6483 -0.3396  0.3154
13120SOL    HW140602   1.932   3.955   5.351 -0.4646  0.9327 -0.2460
13120SOL    HW240603   2.069   4.021   5.347  0.2678 -0.6343 -1.3449
13121SOL     OW40604   5.017   6.819   2.193 -0.2711 -0.3731 -0.0569
13121SOL    HW140605   5.066   6.874   2.254 -1.4481  2.3657 -1.5145
13121SOL    HW240606   5.085   6.781   2.137  0.4823  0.3173  0.3715
13122SOL     OW40607   0.866   8.272   4.642 -0.4218  0.3996  0.1737
13122SOL    HW140608   0.780   8.273   4.600  0.3183  1.0350 -1.3578
13122SOL    HW240609   0.928   8.286   4.571  1.1017 -2.1302  0.9269
13123SOL     OW40610   1.372   2.071   2.204  0.2385 -0.2830  0.0562
13123SOL    HW140611   1.279   2.085   2.186  0.1610 -0.2576  0.4683
13123SOL    HW240612   1.405   2.023   2.128 -0.4051 -1.4738  0.5216
13124SOL     OW40613   6.434   4.452   1.436  0.6964  0.3948 -0.2057
13124SOL    HW140614   6.494   4.421   1.504 -1.3147 -0.1287  1.3462
13124SOL    HW240615   6.440   4.386   1.367  1.7364  0.2477  0.0156
13125SOL     OW40616   7.653   6.701   6.105  0.3319  0.0619  0.3270
13125SOL    HW140617   7.716   6.702   6.177 -0.8432  2.7713  1.3929
13125SOL    HW240618   7.686   6.766   6.043 -0.1295 -0.2726 -0.2808
13126SOL     OW40619   1.816   2.499   6.475  0.2385  0.0032  0.1610
13126SOL    HW140620   1.820   2.404   6.462  1.4868  0.0911 -0.1029
13126SOL    HW240621   1.857   2.536   6.397  2.6905  0.6817  1.7340
13127SOL     OW40622   3.643   1.639   7.234 -0.0064  0.0352 -0.3676
13127SOL    HW140623   3.724   1.646   7.184  0.8647  0.9987  1.1163
13127SOL    HW240624   3.635   1.724   7.278 -0.5964 -0.8847  1.3307
13128SOL     OW40625   1.586   1.648   6.041 -0.8022  0.2330  0.3479
13128SOL    HW140626   1.601   1.602   5.958  0.2087 -1.7847  1.6178
13128SOL    HW240627   1.663   1.705   6.051  0.3381 -1.4286  1.1389
13129SOL     OW40628   3.906   3.436   3.905 -0.0554 -0.3720 -0.5342
13129SOL    HW140629   3.969   3.398   3.845  1.1847 -1.6789  1.5489
13129SOL    HW240630   3.956   3.501   3.954 -1.3684  1.6473 -1.7541
13130SOL     OW40631   2.133   1.985   7.009  0.6435 -0.0742 -0.6455
13130SOL    HW140632   2.090   2.069   7.024  0.5653 -0.0351 -1.0985
13130SOL    HW240633   2.105   1.931   7.083  0.3044  0.1425 -0.6131
13131SOL     OW40634   4.451   5.303   1.569 -0.5309 -0.0956 -0.3275
13131SOL    HW140635   4.424   5.363   1.500 -0.4809  0.4423  0.1152
13131SOL    HW240636   4.527   5.257   1.533  0.8958  1.7819  0.1861
13132SOL     OW40637   6.352   7.627   8.202  0.1931 -0.0668  0.2217
13132SOL    HW140638   6.261   7.655   8.192  0.7797  1.4662 -0.8972
13132SOL    HW240639   6.348   7.531   8.198 -1.2246  0.0247 -1.0474
13133SOL     OW40640   0.409   2.828   7.998 -0.1725 -0.4023 -0.1034
13133SOL    HW140641   0.373   2.759   8.054 -0.0678 -0.0383  0.4173
13133SOL    HW240642   0.344   2.841   7.930 -0.1725 -1.0523 -0.2285
13134SOL     OW40643   1.351   6.253   2.843 -0.0016  0.0331  0.1546
13134SOL    HW140644   1.317   6.337   2.812 -1.9032 -0.5261  0.6235
13134SOL    HW240645   1.273   6.205   2.871  1.1970 -1.3511  1.2014
13135SOL     OW40646   3.418   8.290   7.378 -0.5455 -0.1908  0.2587
13135SOL    HW140647   3.495   8.283   7.434  0.0661 -1.9634 -0.7724
13135SOL    HW240648   3.450   8.269   7.290 -1.7513  1.2971 -0.5637
13136SOL     OW40649   7.882   3.568   1.106 -0.2188 -0.0597 -0.0189
13136SOL    HW140650   7.974   3.552   1.089 -0.0073  2.0541 -1.1246
13136SOL    HW240651   7.856   3.499   1.167  2.4840  0.2400  1.5626
13137SOL     OW40652   1.795   6.456   3.098 -0.0300 -0.4091 -0.1575
13137SOL    HW140653   1.735   6.419   3.033  0.9618 -1.7445 -0.3284
13137SOL    HW240654   1.865   6.495   3.046 -1.5204  2.6225 -0.0198
13138SOL     OW40655   7.939   4.843   2.639 -0.3115 -0.3122 -0.3071
13138SOL    HW140656   8.017   4.787   2.639 -1.2674 -1.6525 -0.9997
13138SOL    HW240657   7.936   4.879   2.728  0.8132 -0.6492 -0.1250
13139SOL     OW40658   2.454   5.115   1.148 -0.0488 -0.2369  0.3759
13139SOL    HW140659   2.369   5.104   1.189  1.0218 -2.4560  2.1091
13139SOL    HW240660   2.505   5.167   1.211 -0.2719  1.5133 -0.8747
13140SOL     OW40661   6.474   7.530   0.984  0.0614 -0.0485 -0.2974
13140SOL    HW140662   6.488   7.490   0.898  0.1008 -0.1179 -0.2590
13140SOL    HW240663   6.476   7.624   0.968  2.9901 -0.0168  0.0848
13141SOL     OW40664   1.810   8.114   3.704  0.1088 -0.2745  0.2385
13141SOL    HW140665   1.886   8.066   3.672  0.0131  0.5899 -1.3509
13141SOL    HW240666   1.738   8.051   3.698 -0.0023 -0.0057 -1.7624
13142SOL     OW40667   6.360   3.041   3.892  0.2503  0.1271  0.2032
13142SOL    HW140668   6.338   2.964   3.945  0.3417 -0.3905 -0.5056
13142SOL    HW240669   6.277   3.065   3.849  0.3897 -0.0097 -0.1387
13143SOL     OW40670   4.382   4.117   1.925  0.3351 -0.0569  0.0838
13143SOL    HW140671   4.351   4.207   1.913 -0.3979 -0.5098 -1.5660
13143SOL    HW240672   4.302   4.064   1.920  0.6891 -0.7555  1.6488
13144SOL     OW40673   7.208   2.829   4.622  0.1318 -0.1814  0.5541
13144SOL    HW140674   7.168   2.815   4.707  0.6433  0.3252  0.8871
13144SOL    HW240675   7.271   2.900   4.637  0.5157 -0.3682 -0.1504
13145SOL     OW40676   5.066   3.467   5.121 -0.4930 -0.0519 -0.0673
13145SOL    HW140677   5.027   3.503   5.041 -0.7247  2.3419  1.0678
13145SOL    HW240678   5.154   3.439   5.094 -0.4789  0.9381 -1.0989
13146SOL     OW40679   3.153   2.550   1.646  0.3017 -0.1294  0.1870
13146SOL    HW140680   3.212   2.559   1.721  0.0122  2.1137  0.1916
13146SOL    HW240681   3.065   2.551   1.684  0.1657  0.5710 -0.1356
13147SOL     OW40682   1.334   4.658   7.104  0.2189 -0.0020 -0.1399
13147SOL    HW140683   1.426   4.683   7.100  0.2901  0.0658  1.5790
13147SOL    HW240684   1.329   4.579   7.050  1.9038 -1.7678  2.2136
13148SOL     OW40685   0.552   3.548   0.444 -0.5849 -0.1588  0.1029
13148SOL    HW140686   0.630   3.513   0.486  0.5849  0.5189 -1.4545
13148SOL    HW240687   0.486   3.480   0.455  0.8767 -1.7048 -0.5456
13149SOL     OW40688   3.657   1.402   1.444  0.0367 -0.6787 -0.2956
13149SOL    HW140689   3.680   1.399   1.537  0.3770  1.3579 -0.2993
13149SOL    HW240690   3.740   1.388   1.399  0.5261  1.9198 -0.2820
13150SOL     OW40691   6.100   4.476   0.594 -0.2093 -0.3273  0.3568
13150SOL    HW140692   6.092   4.381   0.584 -2.3001 -0.1016 -0.4827
13150SOL    HW240693   6.010   4.505   0.611  0.0223  1.7680 -1.8220
13151SOL     OW40694   7.236   4.692   1.609  0.0873  0.5079  0.1446
13151SOL    HW140695   7.208   4.735   1.691 -0.0057 -1.1474  1.0060
13151SOL    HW240696   7.222   4.758   1.542  1.4847  2.3937  1.6547
13152SOL     OW40697   3.381   5.682   2.221  0.7492 -0.6650  0.0993
13152SOL    HW140698   3.354   5.719   2.305 -0.4956 -2.5242  0.5498
13152SOL    HW240699   3.475   5.666   2.231  0.9795  0.8840  0.4500
13153SOL     OW40700   2.599   8.130   6.847 -0.4562 -0.0903  0.0082
13153SOL    HW140701   2.675   8.100   6.797 -0.6664  0.9020 -0.9107
13153SOL    HW240702   2.530   8.139   6.782 -1.1747 -0.3223  0.7337
13154SOL     OW40703   1.706   4.982   5.817  0.2398  0.1191 -0.2701
13154SOL    HW140704   1.782   5.011   5.868  0.4151 -0.0797 -0.4177
13154SOL    HW240705   1.724   4.890   5.799 -2.2422 -1.3195  3.8082
13155SOL     OW40706   5.884   1.884   5.607  0.0331 -0.3916  0.6486
13155SOL    HW140707   5.789   1.895   5.610  0.2186  2.1679 -1.2872
13155SOL    HW240708   5.917   1.945   5.673  0.3924  0.2737 -0.1268
13156SOL     OW40709   6.446   6.990   1.688 -0.3308 -0.9884 -0.0364
13156SOL    HW140710   6.352   6.989   1.670 -0.6762 -1.7560  1.7574
13156SOL    HW240711   6.486   6.957   1.607 -1.5981 -0.6686 -0.8057
13157SOL     OW40712   4.994   8.082   4.007 -0.0471 -0.1841  0.3746
13157SOL    HW140713   4.961   8.012   3.950  0.2989 -0.3564  0.3883
13157SOL    HW240714   4.983   8.162   3.955 -0.5643 -0.2278  0.4079
13158SOL     OW40715   3.836   7.433   5.217 -0.2768 -0.4214 -0.0538
13158SOL    HW140716   3.864   7.517   5.254  1.2499 -1.7964  2.0849
13158SOL    HW240717   3.744   7.445   5.195 -0.5145  1.3076  1.7590
13159SOL     OW40718   0.714   8.193   6.826  0.1677 -0.4201  0.8430
13159SOL    HW140719   0.709   8.110   6.779  0.5349 -0.7708  1.4263
13159SOL    HW240720   0.800   8.192   6.867  0.0197  0.0792  1.1677
13160SOL     OW40721   2.945   7.763   0.960 -0.1598 -0.0322 -0.5028
13160SOL    HW140722   2.913   7.797   1.043  1.5827 -0.1210  0.2224
13160SOL    HW240723   3.028   7.721   0.981 -0.3950 -1.3525 -2.0467
13161SOL     OW40724   2.678   3.343   6.841 -0.4846  0.3508 -0.0925
13161SOL    HW140725   2.592   3.311   6.814  0.0907 -2.2670  1.0663
13161SOL    HW240726   2.741   3.287   6.795  0.6653  3.1836 -2.0777
13162SOL     OW40727   3.726   7.279   4.370 -0.1370  0.1380  0.0474
13162SOL    HW140728   3.741   7.187   4.347 -1.1132 -0.7261  2.6408
13162SOL    HW240729   3.814   7.314   4.386  0.2508 -0.2872 -1.0791
13163SOL     OW40730   2.683   5.926   4.703 -0.0502 -0.0058  0.1424
13163SOL    HW140731   2.667   5.867   4.777  1.0471 -0.1776  0.2518
13163SOL    HW240732   2.619   5.996   4.714 -1.4347 -1.2003 -0.0367
13164SOL     OW40733   7.060   4.971   6.173  0.4067 -0.1499  0.6695
13164SOL    HW140734   7.049   4.938   6.084  3.2324  1.1292 -0.2034
13164SOL    HW240735   7.016   5.056   6.173  2.6794  1.0549 -0.3062
13165SOL     OW40736   5.786   8.140   5.809  0.1371 -0.2252 -0.2060
13165SOL    HW140737   5.858   8.200   5.789 -1.1201  1.6619  0.7870
13165SOL    HW240738   5.821   8.084   5.879  1.2387 -0.5207 -0.9811
13166SOL     OW40739   5.937   5.008   3.314 -0.3815 -0.2569 -0.1013
13166SOL    HW140740   5.987   5.062   3.252 -0.0337  0.0836  0.4781
13166SOL    HW240741   5.941   5.056   3.396 -1.2495 -0.4756  0.0731
13167SOL     OW40742   8.152   6.781   1.730  0.3205 -0.0705  0.4719
13167SOL    HW140743   8.189   6.859   1.772  0.6792 -0.1241  0.2507
13167SOL    HW240744   8.191   6.707   1.776  1.2012 -0.1391 -0.3635
13168SOL     OW40745   3.197   3.791   7.464  0.2098 -0.7499 -0.4252
13168SOL    HW140746   3.284   3.766   7.495  0.1986 -2.2190 -1.5086
13168SOL    HW240747   3.137   3.750   7.525  0.2628 -0.1698  0.0204
13169SOL     OW40748   0.193   1.412   4.673  0.9431 -0.1611 -0.0187
13169SOL    HW140749   0.263   1.477   4.666 -0.2601  1.0248 -1.2272
13169SOL    HW240750   0.151   1.432   4.757 -0.4458  1.7177 -1.1077
13170SOL     OW40751   4.764   6.834   0.078  0.1606 -0.3029  0.3135
13170SOL    HW140752   4.806   6.792   0.003 -2.8679  0.9159 -2.1830
13170SOL    HW240753   4.836   6.874   0.127  2.1410 -0.5919 -2.2771
13171SOL     OW40754   5.750   0.657   3.927 -0.6039 -0.4950  0.1791
13171SOL    HW140755   5.798   0.721   3.873 -1.1698 -0.4971 -0.3317
13171SOL    HW240756   5.779   0.572   3.894  0.7895 -0.5312  1.4190
13172SOL     OW40757   7.474   4.588   0.372 -0.1771  0.1932  0.4251
13172SOL    HW140758   7.513   4.525   0.311  0.3883  0.2749  0.6973
13172SOL    HW240759   7.437   4.656   0.315 -1.9249 -1.0218  0.0871
13173SOL     OW40760   6.681   7.101   5.953 -0.5867 -0.4064 -0.1316
13173SOL    HW140761   6.693   7.135   6.041  0.8556  0.2728 -0.5807
13173SOL    HW240762   6.745   7.031   5.945 -0.1771  0.0404 -0.8922
13174SOL     OW40763   7.752   2.664   2.122 -0.2615 -0.2854 -0.4497
13174SOL    HW140764   7.663   2.668   2.087  0.0195 -0.0625 -1.1342
13174SOL    HW240765   7.765   2.571   2.143 -1.2289 -0.0817  1.1618
13175SOL     OW40766   5.591   4.488   2.919 -0.8110 -0.3326 -0.0365
13175SOL    HW140767   5.600   4.394   2.905  1.1561 -0.1216 -0.3077
13175SOL    HW240768   5.546   4.520   2.841 -0.5482 -0.8903 -0.4155
13176SOL     OW40769   2.200   3.321   4.139  0.0762 -0.5916 -0.5852
13176SOL    HW140770   2.224   3.248   4.083  0.8220 -0.6678 -0.1790
13176SOL    HW240771   2.230   3.399   4.091 -0.1872 -0.5945 -0.7505
13177SOL     OW40772   7.325   7.122   3.373  0.4460 -0.0969  0.2502
13177SOL    HW140773   7.261   7.057   3.400 -2.3716  1.6076 -2.0712
13177SOL    HW240774   7.388   7.073   3.319 -1.1384 -1.0791 -0.7444
13178SOL     OW40775   4.172   6.639   4.258 -0.0869 -0.2873  0.7882
13178SOL    HW140776   4.086   6.655   4.220  0.2495  1.0850  0.5610
13178SOL    HW240777   4.233   6.652   4.184  0.4736  1.0817  1.4673
13179SOL     OW40778   3.045   4.742   6.335 -0.1155  0.0745 -0.6511
13179SOL    HW140779   3.080   4.655   6.353  1.2987  0.9517  1.0405
13179SOL    HW240780   3.112   4.785   6.282  0.3033  0.9411  0.5606
13180SOL     OW40781   4.662   0.790   2.209 -0.1089  0.0069  0.3489
13180SOL    HW140782   4.735   0.850   2.196 -0.0341 -0.0072  0.6995
13180SOL    HW240783   4.662   0.736   2.130  0.4796 -0.2191  0.4943
13181SOL     OW40784   5.731   3.600   3.282 -0.1012 -0.3986  0.0069
13181SOL    HW140785   5.721   3.505   3.276 -0.1146 -0.3938 -0.0475
13181SOL    HW240786   5.809   3.620   3.230 -0.1296 -0.3735 -0.0268
13182SOL     OW40787   1.071   8.091   6.707  0.5161 -0.6099  0.5047
13182SOL    HW140788   1.052   8.143   6.785 -0.7386  1.8930 -1.3721
13182SOL    HW240789   1.166   8.078   6.708  0.5880  0.0288  2.0548
13183SOL     OW40790   2.571   5.615   1.183  0.4328 -0.3394 -0.2458
13183SOL    HW140791   2.581   5.699   1.139  0.6020  1.0043  2.2310
13183SOL    HW240792   2.659   5.579   1.187  0.3828 -0.5745 -1.1687
13184SOL     OW40793   5.730   0.669   2.605 -0.3445 -0.0750 -0.3977
13184SOL    HW140794   5.762   0.759   2.605 -0.3491 -0.0728 -0.6333
13184SOL    HW240795   5.779   0.626   2.675  2.5545 -0.9213 -2.8422
13185SOL     OW40796   1.452   0.971   7.959  0.2230 -0.3779 -0.2111
13185SOL    HW140797   1.380   0.948   8.018  0.8627  1.3378  1.2631
13185SOL    HW240798   1.414   1.034   7.898 -0.0981 -1.1884 -0.8664
13186SOL     OW40799   7.683   1.065   2.510  0.2338  0.0551  0.3008
13186SOL    HW140800   7.637   1.143   2.541 -1.5136 -1.4466  1.5863
13186SOL    HW240801   7.705   1.017   2.590 -0.7010 -1.8508 -0.5563
13187SOL     OW40802   2.802   7.781   4.034 -0.8276 -0.1830  0.2688
13187SOL    HW140803   2.715   7.740   4.036 -0.7774 -0.3421 -0.6741
13187SOL    HW240804   2.806   7.824   3.949  0.6001 -1.4504 -0.3190
13188SOL     OW40805   3.767   2.260   4.017  0.6016  0.5942  0.0055
13188SOL    HW140806   3.734   2.183   3.971 -0.5151  0.0491  1.6786
13188SOL    HW240807   3.732   2.334   3.968 -4.0656  0.0483  2.3227
13189SOL     OW40808   2.193   1.946   0.370 -0.3315  0.1098  0.2237
13189SOL    HW140809   2.255   1.985   0.308 -2.5885  1.9092 -1.0013
13189SOL    HW240810   2.180   1.857   0.338 -0.2916  0.5335 -1.0285
13190SOL     OW40811   5.180   2.740   4.768 -0.0199  0.3067 -0.5737
13190SOL    HW140812   5.108   2.726   4.706 -0.4419  1.2994 -0.3072
13190SOL    HW240813   5.147   2.706   4.851 -0.4654  1.4471 -0.2806
13191SOL     OW40814   0.540   4.472   6.321  0.8032  0.1427 -0.0841
13191SOL    HW140815   0.461   4.501   6.277  0.2471 -2.2944 -0.7720
13191SOL    HW240816   0.609   4.530   6.288 -0.4916  1.6075 -0.2644
13192SOL     OW40817   1.865   3.078   0.125  0.0886 -0.3984 -0.3872
13192SOL    HW140818   1.913   3.084   0.208 -2.0490  0.2172  0.8518
13192SOL    HW240819   1.910   3.139   0.067  1.5462 -0.7477  0.3466
13193SOL     OW40820   4.874   3.193   7.496 -0.1770  0.3896  0.1631
13193SOL    HW140821   4.920   3.218   7.576 -0.2025 -1.0490  0.6367
13193SOL    HW240822   4.781   3.202   7.516 -0.1512  1.4695 -0.1874
13194SOL     OW40823   3.628   0.797   3.491  0.2406  0.2863 -0.3489
13194SOL    HW140824   3.536   0.777   3.473  0.4559 -1.0542 -0.0593
13194SOL    HW240825   3.638   0.888   3.465 -1.1195  0.3892 -0.5882
13195SOL     OW40826   7.989   2.203   4.101 -0.0832 -0.0186  0.0472
13195SOL    HW140827   7.913   2.238   4.054 -0.6430 -0.3270  0.7008
13195SOL    HW240828   8.013   2.271   4.163  1.1142  0.6893 -1.1683
13196SOL     OW40829   8.042   1.621   6.460 -0.3783 -0.2267  0.1814
13196SOL    HW140830   8.101   1.618   6.385 -1.0763  1.1208 -0.4461
13196SOL    HW240831   8.096   1.595   6.534  0.5554 -0.6861 -0.6454
13197SOL     OW40832   4.645   7.780   4.859 -0.2125 -0.1626  0.0105
13197SOL    HW140833   4.675   7.870   4.871  1.1696 -0.5494 -0.5079
13197SOL    HW240834   4.718   7.726   4.888  0.2976 -1.1089 -2.8687
13198SOL     OW40835   3.514   2.829   2.109  0.1446  0.6128 -0.0045
13198SOL    HW140836   3.595   2.870   2.140  0.1999  0.5678 -0.0890
13198SOL    HW240837   3.544   2.754   2.058  0.0475  0.5564  0.0213
13199SOL     OW40838   0.906   2.544   6.642  0.2301  0.2009 -0.2467
13199SOL    HW140839   0.968   2.558   6.714 -0.5692 -1.8265  0.8949
13199SOL    HW240840   0.948   2.479   6.586 -1.5462 -2.5402  1.4889
13200SOL     OW40841   2.766   0.682   7.091 -0.1568  0.1836  0.4580
13200SOL    HW140842   2.768   0.616   7.160  0.5703 -0.3744 -0.0940
13200SOL    HW240843   2.813   0.757   7.128  2.2410 -0.9177 -0.2270
13201SOL     OW40844   3.891   0.918   7.517 -0.2062  0.2366 -0.1234
13201SOL    HW140845   3.925   0.967   7.592  0.2835 -1.2789  0.6656
13201SOL    HW240846   3.960   0.854   7.498 -1.8665 -1.7499  0.4049
13202SOL     OW40847   2.871   4.116   6.275 -0.0535  0.4076  0.1566
13202SOL    HW140848   2.915   4.067   6.205 -0.0783  0.4384  0.1193
13202SOL    HW240849   2.815   4.052   6.318  1.0940  0.0363  1.1126
13203SOL     OW40850   0.382   5.357   5.995 -0.5213  0.4057  0.1129
13203SOL    HW140851   0.404   5.267   6.019  0.0484  0.6320  0.4358
13203SOL    HW240852   0.358   5.351   5.902 -1.9442 -0.3282  0.5174
13204SOL     OW40853   1.175   6.451   2.693  0.0060 -0.0414  0.2239
13204SOL    HW140854   1.183   6.531   2.642 -0.3041  0.8648  1.5763
13204SOL    HW240855   1.145   6.385   2.630 -1.3139  1.2802 -0.5577
13205SOL     OW40856   6.868   3.040   5.576 -0.4294 -0.5025  0.0275
13205SOL    HW140857   6.906   3.118   5.617  0.4785 -1.0312  0.2157
13205SOL    HW240858   6.774   3.052   5.584 -0.3335  1.1912 -1.0727
13206SOL     OW40859   3.387   3.343   6.390 -0.7929 -0.3975  0.2996
13206SOL    HW140860   3.428   3.280   6.330 -0.7775 -0.7355  0.6626
13206SOL    HW240861   3.449   3.417   6.392 -2.1337  0.8802 -2.3004
13207SOL     OW40862   8.124   4.933   4.402  0.1505 -0.0015  0.0451
13207SOL    HW140863   8.119   4.852   4.351 -0.9169  0.3764 -0.4782
13207SOL    HW240864   8.148   4.905   4.490  0.8248 -0.7834 -0.3855
13208SOL     OW40865   0.235   7.238   0.056  0.0052 -0.3018  0.1311
13208SOL    HW140866   0.262   7.327   0.035 -0.7299 -0.0281  0.3275
13208SOL    HW240867   0.184   7.246   0.137 -1.6922 -0.6277 -0.8801
13209SOL     OW40868   2.811   3.674   8.165  0.2544 -1.4506 -0.0185
13209SOL    HW140869   2.834   3.724   8.243  0.1273 -0.0228 -0.8783
13209SOL    HW240870   2.891   3.627   8.142  0.7506 -0.6687  0.0837
13210SOL     OW40871   8.176   3.596   6.043  0.1921 -0.4202  0.5969
13210SOL    HW140872   8.207   3.505   6.035  0.2154 -0.7512  3.8195
13210SOL    HW240873   8.251   3.644   6.078 -1.2661 -0.1872  3.5489
13211SOL     OW40874   3.424   3.383   8.249 -0.4297 -0.0142 -0.0088
13211SOL    HW140875   3.353   3.447   8.238  0.6750  1.2662  0.1577
13211SOL    HW240876   3.483   3.400   8.176  0.0222 -0.6586  0.1992
13212SOL     OW40877   6.564   0.741   0.310  0.2173  0.2102  0.3789
13212SOL    HW140878   6.505   0.795   0.258 -0.7527 -0.9631  0.2735
13212SOL    HW240879   6.536   0.651   0.295 -0.4334 -0.1385  3.3413
13213SOL     OW40880   3.754   7.068   0.503  0.3390  0.2655 -0.1269
13213SOL    HW140881   3.847   7.066   0.526 -0.0870  0.5359  1.7372
13213SOL    HW240882   3.722   7.148   0.544 -0.4538  0.8488 -1.8663
13214SOL     OW40883   6.950   1.696   6.354 -0.3922 -0.1854  0.2292
13214SOL    HW140884   6.867   1.672   6.394 -1.2700  0.3665 -1.2109
13214SOL    HW240885   6.933   1.782   6.315  0.8302 -0.1091 -0.1422
13215SOL     OW40886   7.717   7.032   5.213 -0.3375  0.1466 -0.0267
13215SOL    HW140887   7.640   7.064   5.165 -0.6446  1.8206  1.5457
13215SOL    HW240888   7.774   7.108   5.220  0.5540 -0.5829  0.6024
13216SOL     OW40889   0.691   4.733   0.118 -0.1112 -0.5122  0.1279
13216SOL    HW140890   0.786   4.723   0.108 -0.1093  0.1768 -0.6647
13216SOL    HW240891   0.681   4.790   0.194  0.0796 -1.3230  0.7642
13217SOL     OW40892   8.068   2.536   1.006 -0.0609 -0.3796 -0.5431
13217SOL    HW140893   7.978   2.509   1.025  0.0405  0.0034  0.5257
13217SOL    HW240894   8.089   2.598   1.076  0.6830  0.3106 -1.3662
13218SOL     OW40895   1.162   4.278   5.864  0.0565 -0.6268  0.1517
13218SOL    HW140896   1.148   4.321   5.779 -1.1385 -1.0316  0.1317
13218SOL    HW240897   1.081   4.295   5.913  0.5051 -0.8971  0.9941
13219SOL     OW40898   3.536   5.668   1.448 -0.3707 -0.1569 -0.1178
13219SOL    HW140899   3.612   5.725   1.434  0.1241 -0.6309  0.5898
13219SOL    HW240900   3.508   5.643   1.360 -0.5852  1.1558 -0.4437
13220SOL     OW40901   6.028   7.852   2.182  0.0388  1.0692 -0.0744
13220SOL    HW140902   6.069   7.931   2.219 -0.1327  0.5713  1.1970
13220SOL    HW240903   6.027   7.789   2.254  1.8630 -0.7536 -1.5938
13221SOL     OW40904   3.388   0.403   0.537  0.0001 -0.3173  0.2386
13221SOL    HW140905   3.422   0.352   0.463  0.6329  3.5752 -2.3300
13221SOL    HW240906   3.466   0.427   0.587  0.2674  1.6855 -1.0432
13222SOL     OW40907   2.214   0.084   4.880  0.0225  0.0766 -0.2268
13222SOL    HW140908   2.133   0.134   4.869 -0.0688 -0.2230 -0.9710
13222SOL    HW240909   2.227   0.041   4.796 -0.2536 -1.6610  0.5810
13223SOL     OW40910   2.622   2.178   6.645 -0.0465  0.4488 -0.2434
13223SOL    HW140911   2.587   2.155   6.731  0.5411 -0.5176 -0.2586
13223SOL    HW240912   2.689   2.113   6.628  0.4233  1.1418 -1.0720
13224SOL     OW40913   6.305   1.537   3.439  0.0299  0.1816 -0.0433
13224SOL    HW140914   6.279   1.616   3.487 -0.4327 -1.5219  2.5966
13224SOL    HW240915   6.254   1.466   3.478  1.4034 -1.6755 -1.4713
13225SOL     OW40916   2.706   5.638   5.750  0.5219  0.4163  0.1564
13225SOL    HW140917   2.677   5.708   5.692 -1.3079 -0.3258  0.1258
13225SOL    HW240918   2.658   5.560   5.720  1.9003 -0.6688  0.6928
13226SOL     OW40919   2.656   7.007   3.630  0.3421  0.2755  0.0960
13226SOL    HW140920   2.645   7.049   3.715  2.2322 -0.2851  0.6412
13226SOL    HW240921   2.653   6.913   3.648  1.5259  0.1463 -0.3378
13227SOL     OW40922   8.015   4.870   2.897 -0.3825  0.0765 -0.4693
13227SOL    HW140923   8.050   4.915   2.974  0.2792  1.1945 -1.4079
13227SOL    HW240924   8.058   4.784   2.898 -1.2868 -0.3712  1.0687
13228SOL     OW40925   8.234   3.909   6.329  0.3028 -0.3541  0.1708
13228SOL    HW140926   8.164   3.913   6.394 -0.4194 -1.5037 -0.5213
13228SOL    HW240927   8.218   3.985   6.273  0.4471  0.1788  0.8369
13229SOL     OW40928   3.808   4.211   7.885  0.3156 -0.0628 -0.1175
13229SOL    HW140929   3.790   4.233   7.976  0.0696 -0.7072 -0.0053
13229SOL    HW240930   3.747   4.265   7.835  0.7247  0.5827  0.0825
13230SOL     OW40931   0.993   4.830   0.764 -0.2033 -0.4367  0.7355
13230SOL    HW140932   0.991   4.756   0.704  0.3565 -0.1768  0.3898
13230SOL    HW240933   1.069   4.814   0.820  0.7164  0.5309 -0.1988
13231SOL     OW40934   3.099   3.417   1.330  0.0913 -0.0369 -0.4003
13231SOL    HW140935   3.163   3.400   1.261  0.2697 -0.1024 -0.2208
13231SOL    HW240936   3.115   3.507   1.356  0.9081 -0.4208  0.4628
13232SOL     OW40937   6.696   2.684   3.526  0.1268 -0.2323  0.0468
13232SOL    HW140938   6.738   2.660   3.444  0.9668  1.1299  0.0521
13232SOL    HW240939   6.769   2.692   3.588 -0.2930  0.7371  0.4184
13233SOL     OW40940   3.960   2.256   2.328 -0.1140 -0.2121  0.3664
13233SOL    HW140941   4.037   2.245   2.383  0.2263 -0.8516 -0.2352
13233SOL    HW240942   3.897   2.193   2.363 -0.9587  1.3753  1.8604
13234SOL     OW40943   7.955   3.397   7.987  0.8112 -0.4023  0.4053
13234SOL    HW140944   8.014   3.367   8.056  2.0652  1.3230  0.0969
13234SOL    HW240945   8.002   3.382   7.906  0.6007  0.4323  0.1228
13235SOL     OW40946   5.713   6.201   0.207  0.4125  0.0307  0.5087
13235SOL    HW140947   5.764   6.281   0.196  0.8324 -0.3780 -0.6157
13235SOL    HW240948   5.778   6.130   0.200 -0.3367 -0.5146 -1.4347
13236SOL     OW40949   6.529   3.313   5.935  0.4852  0.0989  0.5946
13236SOL    HW140950   6.596   3.245   5.939  0.9584  0.5290  0.0945
13236SOL    HW240951   6.447   3.265   5.922  0.7750 -0.3960  0.5915
13237SOL     OW40952   4.885   2.474   5.302 -0.1700 -0.1493  0.1189
13237SOL    HW140953   4.874   2.407   5.369 -0.0643 -2.0214 -1.6858
13237SOL    HW240954   4.796   2.492   5.270 -0.0723 -0.4054 -0.3094
13238SOL     OW40955   7.681   1.566   3.794  0.2746 -0.0202 -0.2894
13238SOL    HW140956   7.682   1.585   3.700  1.4995 -1.0056 -0.4864
13238SOL    HW240957   7.690   1.652   3.836  1.5386  0.2674 -1.1111
13239SOL     OW40958   4.702   7.452   4.111  0.5630 -0.1050 -0.1036
13239SOL    HW140959   4.723   7.409   4.028  0.8477  1.5527 -0.9151
13239SOL    HW240960   4.610   7.479   4.102 -0.3339 -2.5366  1.3079
13240SOL     OW40961   4.739   7.492   6.203 -0.2548 -0.3275 -0.4067
13240SOL    HW140962   4.672   7.556   6.179 -0.4660 -0.4883 -0.2476
13240SOL    HW240963   4.722   7.473   6.295  1.1715  1.0506  0.1864
13241SOL     OW40964   2.341   6.876   0.885  0.1228  0.1043  0.2250
13241SOL    HW140965   2.333   6.963   0.846 -0.1239 -0.3964 -0.8818
13241SOL    HW240966   2.434   6.868   0.907  0.3954  0.1777 -0.8456
13242SOL     OW40967   4.455   3.991   8.048  0.0638  0.1483  0.0578
13242SOL    HW140968   4.491   4.001   8.136  0.1102 -0.3593  0.1016
13242SOL    HW240969   4.519   3.937   8.002  0.1301  0.5694 -0.3474
13243SOL     OW40970   2.566   7.640   4.060 -1.0016 -0.7220 -0.6980
13243SOL    HW140971   2.512   7.571   4.100  0.9221 -0.8624  1.7731
13243SOL    HW240972   2.518   7.721   4.076 -1.0769 -0.9807  0.4056
13244SOL     OW40973   5.335   5.888   0.931  0.0108  0.3750 -0.3794
13244SOL    HW140974   5.241   5.898   0.922  0.3212  3.5933 -0.4189
13244SOL    HW240975   5.346   5.838   1.012 -1.6908  0.3309 -0.1564
13245SOL     OW40976   4.251   6.870   5.754  0.3025  0.3026  0.2579
13245SOL    HW140977   4.200   6.843   5.830  1.8314 -0.6723  0.9527
13245SOL    HW240978   4.334   6.824   5.763  0.0557 -0.8693 -2.6472
13246SOL     OW40979   5.023   4.343   5.455  0.0410  0.3236  0.6565
13246SOL    HW140980   4.974   4.424   5.468 -1.1922  0.1697 -2.5054
13246SOL    HW240981   5.113   4.371   5.441 -0.5188  1.2795 -1.2832
13247SOL     OW40982   6.969   4.702   1.776 -0.0775  0.2004 -0.7067
13247SOL    HW140983   6.950   4.609   1.772  0.7229 -0.0611  1.1119
13247SOL    HW240984   6.918   4.735   1.849  0.8213  0.8803 -0.3640
13248SOL     OW40985   0.394   1.503   3.574 -0.1938 -0.8647 -0.1394
13248SOL    HW140986   0.299   1.512   3.579 -0.2247 -1.3531  0.2576
13248SOL    HW240987   0.408   1.410   3.552  0.1511 -0.4831 -1.6156
13249SOL     OW40988   4.648   3.701   2.563  0.3492 -0.5163  0.6461
13249SOL    HW140989   4.687   3.775   2.609  1.9359 -0.9350 -0.0077
13249SOL    HW240990   4.554   3.707   2.583  0.4943  1.5503  0.7431
13250SOL     OW40991   5.058   6.483   7.934  0.4685 -0.3369  0.3249
13250SOL    HW140992   4.969   6.451   7.944  0.2368  0.2231  0.0544
13250SOL    HW240993   5.112   6.416   7.977 -0.1879  0.0468  1.7831
13251SOL     OW40994   1.921   6.518   8.092  0.6336  0.5062  0.3096
13251SOL    HW140995   1.949   6.434   8.129 -0.2063  0.8398  1.7401
13251SOL    HW240996   1.905   6.573   8.169  1.2215  1.9973 -0.6162
13252SOL     OW40997   8.048   1.076   2.774 -0.1301  0.7367  0.1222
13252SOL    HW140998   7.982   1.128   2.819 -0.4115  0.6901 -0.2365
13252SOL    HW240999   8.132   1.110   2.807 -0.3349  0.0240  1.4459
13253SOL     OW41000   3.149   8.194   7.796  0.1324  0.6340 -0.5350
13253SOL    HW141001   3.093   8.156   7.728 -1.0312  1.4182 -0.0331
13253SOL    HW241002   3.161   8.285   7.770 -0.5901  1.0237  0.4631
13254SOL     OW41003   8.253   3.850   1.771  1.1222 -0.2992  0.1392
13254SOL    HW141004   8.206   3.870   1.690 -0.2922 -1.4437  0.6425
13254SOL    HW241005   8.346   3.862   1.749  0.8863 -2.2298 -2.1572
13255SOL     OW41006   8.078   6.218   6.986 -0.4900 -0.3809  0.5661
13255SOL    HW141007   8.160   6.264   7.005  0.1326 -0.2689 -2.1691
13255SOL    HW241008   8.090   6.130   7.021  0.4855 -0.1092  0.9107
13256SOL     OW41009   2.076   2.299   6.811  0.0100  0.3040  0.5978
13256SOL    HW141010   2.142   2.304   6.879 -0.0516  2.2770  0.5439
13256SOL    HW241011   1.999   2.262   6.854  0.6924 -0.6401  1.0111
13257SOL     OW41012   1.707   0.423   7.791 -0.4478 -0.1346  0.3612
13257SOL    HW141013   1.618   0.397   7.818  0.3136 -1.9715  1.1879
13257SOL    HW241014   1.762   0.350   7.818  1.3505  1.0486 -0.0425
13258SOL     OW41015   1.430   6.461   0.176 -0.0513 -0.0294  0.7986
13258SOL    HW141016   1.488   6.396   0.137 -0.1031  0.2238  0.2849
13258SOL    HW241017   1.349   6.413   0.196 -1.1738  0.4863 -2.2797
13259SOL     OW41018   6.586   3.818   6.630 -0.4300 -0.6250 -0.1021
13259SOL    HW141019   6.571   3.781   6.717 -1.1566  1.0137  0.4854
13259SOL    HW241020   6.677   3.795   6.610  0.3878  0.6914  1.9615
13260SOL     OW41021   0.931   4.458   4.857  0.7303  0.8101 -0.0577
13260SOL    HW141022   0.862   4.523   4.846  0.5684  0.3440 -1.9439
13260SOL    HW241023   0.956   4.464   4.950 -2.6288  0.1572  0.9433
13261SOL     OW41024   4.940   7.028   6.906 -0.3580  0.3120 -0.0402
13261SOL    HW141025   5.032   7.051   6.891  0.4954 -3.9516 -2.1891
13261SOL    HW241026   4.905   7.009   6.819 -2.2220 -1.6845  1.0919
13262SOL     OW41027   4.249   1.626   3.064 -0.4411  0.2140 -0.2233
13262SOL    HW141028   4.169   1.678   3.057 -1.1599 -0.5906  1.6883
13262SOL    HW241029   4.227   1.555   3.124  1.4385 -0.5597 -0.3989
13263SOL     OW41030   1.007   1.137   3.094  0.0815 -0.0996  0.1284
13263SOL    HW141031   1.023   1.087   3.174 -1.1039  0.8714  0.9892
13263SOL    HW241032   0.913   1.153   3.093  0.3749  1.7227 -0.3565
13264SOL     OW41033   3.250   3.878   1.682  0.6347 -0.0569  0.2116
13264SOL    HW141034   3.186   3.838   1.741 -0.4485  0.9202 -0.2754
13264SOL    HW241035   3.251   3.971   1.706  1.1893  0.1014 -0.4067
13265SOL     OW41036   5.362   4.444   1.681 -0.2359 -0.2516 -0.1625
13265SOL    HW141037   5.403   4.502   1.745  1.5034 -1.4598 -0.1282
13265SOL    HW241038   5.419   4.451   1.604 -0.3521 -1.4091 -0.3681
13266SOL     OW41039   6.315   1.649   6.647 -0.0586 -0.0304  0.7301
13266SOL    HW141040   6.227   1.618   6.625 -0.1302  0.6507  0.0467
13266SOL    HW241041   6.352   1.579   6.700 -0.6586 -0.7560  0.2061
13267SOL     OW41042   7.999   2.436   5.108  0.3797 -0.2927 -0.9844
13267SOL    HW141043   8.057   2.443   5.185 -2.1753 -0.9682  1.0767
13267SOL    HW241044   8.052   2.389   5.043  3.0825  1.4720 -0.1525
13268SOL     OW41045   5.269   8.013   1.967  0.7228 -0.0303  0.2286
13268SOL    HW141046   5.211   7.995   1.893  0.1161  0.2391  0.6384
13268SOL    HW241047   5.229   8.087   2.011  0.7437 -0.5930  1.2007
13269SOL     OW41048   8.086   7.618   5.497 -0.2821 -0.2103 -0.0062
13269SOL    HW141049   7.993   7.600   5.483  0.7468 -4.3149 -2.5255
13269SOL    HW241050   8.113   7.666   5.419 -0.2718  0.9572  0.7119
13270SOL     OW41051   7.147   6.569   3.527  0.0148  0.2503  0.0731
13270SOL    HW141052   7.064   6.523   3.523  0.6672 -0.9614  0.0773
13270SOL    HW241053   7.183   6.562   3.438 -0.7193  2.4065 -0.4432
13271SOL     OW41054   3.236   1.270   6.583  0.1409 -0.2257 -0.1784
13271SOL    HW141055   3.207   1.192   6.535 -0.1095 -0.4297  0.3002
13271SOL    HW241056   3.155   1.314   6.609  0.2012 -1.3601  2.0751
13272SOL     OW41057   1.915   2.695   7.930  0.0463  0.3209 -0.2408
13272SOL    HW141058   1.991   2.654   7.972  0.3945  1.1000 -0.1068
13272SOL    HW241059   1.890   2.765   7.990  0.9553  1.8702 -1.6422
13273SOL     OW41060   4.965   0.748   5.730 -0.3689  0.5559 -0.9764
13273SOL    HW141061   4.907   0.689   5.681  0.4262 -1.8395  0.8298
13273SOL    HW241062   5.052   0.708   5.721 -0.0656  0.5840  1.5497
13274SOL     OW41063   2.244   5.608   0.565 -0.1238  0.3090 -0.0193
13274SOL    HW141064   2.208   5.593   0.652  0.0025  0.0822 -0.0062
13274SOL    HW241065   2.338   5.595   0.575 -0.2826 -1.5222 -0.5688
13275SOL     OW41066   1.155   0.092   3.211 -0.5572  0.1780 -0.3328
13275SOL    HW141067   1.118   0.007   3.187 -0.9729  0.6945 -1.5382
13275SOL    HW241068   1.079   0.148   3.224 -0.2468  0.6390 -0.5294
13276SOL     OW41069   0.829   1.274   8.305 -0.0378 -0.5630  0.1560
13276SOL    HW141070   0.827   1.293   8.399 -0.1728 -0.1158  0.0651
13276SOL    HW241071   0.849   1.181   8.300  1.0148 -0.3599  0.6000
13277SOL     OW41072   2.694   2.936   0.448 -0.1347 -0.1718 -0.6239
13277SOL    HW141073   2.684   3.018   0.400 -0.0393  1.6681  2.3541
13277SOL    HW241074   2.608   2.922   0.490  0.2063 -0.9295 -0.1705
13278SOL     OW41075   2.289   0.381   3.623  0.1603 -0.1728 -0.2544
13278SOL    HW141076   2.279   0.473   3.598 -1.0785 -0.2810 -0.1934
13278SOL    HW241077   2.312   0.336   3.542 -0.2595  0.0334 -0.4886
13279SOL     OW41078   7.082   7.681   7.315 -0.1104 -0.7880 -0.2305
13279SOL    HW141079   6.992   7.691   7.347  0.3078 -2.4909  1.5856
13279SOL    HW241080   7.133   7.740   7.370  0.1626 -1.2701  0.0293
13280SOL     OW41081   7.768   4.359   6.999 -0.1707 -0.0461  0.4709
13280SOL    HW141082   7.709   4.410   6.943  1.0182 -0.7264 -1.4193
13280SOL    HW241083   7.856   4.383   6.970  0.4778 -0.2680  2.1883
13281SOL     OW41084   3.150   5.336   6.391 -0.4830  0.2807  0.1085
13281SOL    HW141085   3.089   5.322   6.319  2.6049  3.3794 -3.3214
13281SOL    HW241086   3.221   5.275   6.375  0.4792  1.3546  0.2495
13282SOL     OW41087   4.303   8.264   5.529  0.3605 -0.0330  0.0798
13282SOL    HW141088   4.258   8.310   5.458  0.2573 -1.6851 -0.9456
13282SOL    HW241089   4.351   8.332   5.575  1.0731  0.9522 -2.0612
13283SOL     OW41090   5.433   6.079   4.912 -0.3771 -0.4485  0.5085
13283SOL    HW141091   5.399   5.992   4.894 -1.3109  0.4267 -2.1617
13283SOL    HW241092   5.527   6.073   4.892 -0.5150 -0.7254 -0.0461
13284SOL     OW41093   6.423   3.914   3.770 -0.1794  0.3374  0.1009
13284SOL    HW141094   6.499   3.864   3.740 -1.5024 -0.2423 -2.3841
13284SOL    HW241095   6.348   3.856   3.755 -1.3824  1.8108  0.2665
13285SOL     OW41096   0.494   5.607   1.100 -0.1446  0.0013  0.1656
13285SOL    HW141097   0.566   5.669   1.112  0.5095 -0.4145 -1.5689
13285SOL    HW241098   0.536   5.527   1.068 -1.3377 -0.3524 -0.5429
13286SOL     OW41099   5.887   3.940   3.454 -0.2737  0.3630  0.6349
13286SOL    HW141100   5.943   3.994   3.398 -0.7260 -1.1827 -1.3719
13286SOL    HW241101   5.802   3.985   3.452 -1.0160 -1.0409 -2.0979
13287SOL     OW41102   4.130   5.723   0.196 -0.7461  0.0787 -0.8390
13287SOL    HW141103   4.111   5.758   0.109 -0.2733 -1.0314 -1.4073
13287SOL    HW241104   4.210   5.671   0.184 -2.6482 -3.0671 -0.5486
13288SOL     OW41105   1.010   5.292   1.095 -0.5536 -0.2784 -0.0122
13288SOL    HW141106   1.006   5.378   1.052 -1.1883 -0.8370 -1.0961
13288SOL    HW241107   1.102   5.282   1.119 -0.5126  0.7932  0.3142
13289SOL     OW41108   5.885   0.194   6.173  0.0182 -0.1333 -0.1192
13289SOL    HW141109   5.837   0.126   6.126  0.3466  0.1288 -0.8450
13289SOL    HW241110   5.849   0.192   6.262 -0.9384 -0.3164 -0.5039
13290SOL     OW41111   6.714   4.003   2.979  0.7874  0.1196  0.6619
13290SOL    HW141112   6.659   4.006   3.058  0.7371  2.6063  0.5723
13290SOL    HW241113   6.664   3.950   2.918  0.4553 -1.1795  2.0277
13291SOL     OW41114   4.886   3.209   2.724  0.0977 -0.3720  0.2421
13291SOL    HW141115   4.976   3.239   2.737  0.4326 -0.2796 -2.0882
13291SOL    HW241116   4.846   3.277   2.670 -1.1163 -0.8532  0.5260
13292SOL     OW41117   4.678   7.654   7.956 -0.2331  0.5474  0.2254
13292SOL    HW141118   4.603   7.594   7.961 -0.2286  0.5997  1.0385
13292SOL    HW241119   4.730   7.620   7.883  0.1699 -0.9386  1.1586
13293SOL     OW41120   0.979   8.037   7.097 -0.1877 -0.1329 -0.4135
13293SOL    HW141121   0.925   7.961   7.078 -1.2281  1.0146 -2.2132
13293SOL    HW241122   1.069   8.007   7.085 -0.5023 -1.4794  0.4885
13294SOL     OW41123   1.102   2.130   0.152  0.2888 -0.4299  0.7500
13294SOL    HW141124   1.132   2.208   0.200 -1.1623 -0.5506  1.8748
13294SOL    HW241125   1.140   2.140   0.065  0.3373  1.4150  0.9519
13295SOL     OW41126   5.845   3.195   6.999  0.5706  0.1304 -0.2182
13295SOL    HW141127   5.830   3.267   6.938 -0.4336  0.3196  0.2401
13295SOL    HW241128   5.939   3.199   7.017  0.3708  1.9447  0.5565
13296SOL     OW41129   5.692   3.377   5.996 -0.2646  0.8655  0.0392
13296SOL    HW141130   5.676   3.436   5.923 -1.0474  1.1509  0.4363
13296SOL    HW241131   5.615   3.319   5.998  0.4049 -0.0545 -0.2383
13297SOL     OW41132   1.957   5.334   0.129 -0.2909  0.5055 -0.1317
13297SOL    HW141133   1.933   5.426   0.118 -0.0527  0.2935 -2.9199
13297SOL    HW241134   1.957   5.299   0.039  0.7580 -1.9193  0.7808
13298SOL     OW41135   1.631   7.417   4.719 -0.3871 -0.1403 -0.2952
13298SOL    HW141136   1.726   7.420   4.708 -0.0592 -0.3748  2.1023
13298SOL    HW241137   1.606   7.330   4.685  0.0529  0.4025 -2.0674
13299SOL     OW41138   0.948   4.654   4.077  0.5783  0.3963  0.1690
13299SOL    HW141139   0.934   4.745   4.055 -0.8749 -0.0944 -1.0308
13299SOL    HW241140   0.901   4.642   4.160 -0.4839  0.3876 -0.4288
13300SOL     OW41141   1.240   3.208   6.912  0.2068  0.0906  0.1356
13300SOL    HW141142   1.199   3.152   6.978 -0.7974  0.6499  0.0013
13300SOL    HW241143   1.311   3.155   6.875 -0.4682 -0.9242  0.2996
13301SOL     OW41144   0.578   2.005   3.723 -0.3774 -0.0309  0.0536
13301SOL    HW141145   0.610   2.068   3.787 -0.8678 -0.2317  0.5008
13301SOL    HW241146   0.567   2.055   3.643  1.7292 -0.1017 -0.3016
13302SOL     OW41147   6.178   1.434   7.637 -0.1031  0.3623 -0.8613
13302SOL    HW141148   6.196   1.520   7.598 -0.7555  0.7414 -0.3235
13302SOL    HW241149   6.084   1.434   7.654 -0.3957 -1.0885 -2.3667
13303SOL     OW41150   4.188   7.244   3.738 -0.3406 -0.2498  0.0041
13303SOL    HW141151   4.224   7.174   3.684 -0.6829 -1.2448  1.0261
13303SOL    HW241152   4.260   7.269   3.797  0.6154  2.0972 -2.0729
13304SOL     OW41153   0.613   8.154   6.088 -0.3095  0.5154 -0.4802
13304SOL    HW141154   0.648   8.168   6.000  0.0511  0.0197 -0.4126
13304SOL    HW241155   0.687   8.167   6.146 -0.7665  1.8683 -0.1675
13305SOL     OW41156   6.086   0.450   5.372 -0.3402  0.6959 -0.1157
13305SOL    HW141157   6.118   0.427   5.460 -0.2288 -0.5910 -0.4781
13305SOL    HW241158   6.138   0.396   5.313 -2.5773 -0.7909 -0.7762
13306SOL     OW41159   1.613   7.047   5.791 -0.2105  0.2729  0.0430
13306SOL    HW141160   1.649   6.961   5.813  0.4417  0.2954 -0.9396
13306SOL    HW241161   1.522   7.043   5.822 -0.5664 -1.2145 -1.1140
13307SOL     OW41162   2.247   6.870   2.563  0.3847 -0.4946  0.0036
13307SOL    HW141163   2.248   6.864   2.467  0.3593  0.2843 -0.0437
13307SOL    HW241164   2.316   6.932   2.584  0.2007 -0.4480  0.4801
13308SOL     OW41165   1.387   7.871   2.781  0.6639 -0.4459 -0.2180
13308SOL    HW141166   1.339   7.943   2.741 -0.1192 -0.8014  0.0732
13308SOL    HW241167   1.328   7.795   2.773  0.0313 -0.2950  2.5246
13309SOL     OW41168   5.028   5.307   3.848 -0.4536 -0.0414  0.3229
13309SOL    HW141169   5.079   5.285   3.770  0.2477  2.1742  0.1245
13309SOL    HW241170   5.093   5.324   3.916 -1.0082  0.0087  0.8510
13310SOL     OW41171   3.934   5.709   5.457 -0.1496 -0.2719  0.6653
13310SOL    HW141172   3.883   5.694   5.537 -0.0910 -0.6605  0.6330
13310SOL    HW241173   4.020   5.672   5.477 -0.5363 -1.5933 -0.0479
13311SOL     OW41174   3.215   4.292   4.901  0.5158  0.0164  0.6180
13311SOL    HW141175   3.217   4.320   4.993 -1.5702 -1.4450  1.1428
13311SOL    HW241176   3.139   4.336   4.864 -0.4275 -1.7289  0.4109
13312SOL     OW41177   5.540   5.972   6.238  0.3263  0.5246 -0.1863
13312SOL    HW141178   5.506   5.922   6.165  1.0579  1.0094 -0.8667
13312SOL    HW241179   5.630   5.939   6.250 -0.6235 -1.3669  2.1503
13313SOL     OW41180   0.839   2.141   2.059  0.0327  0.5070 -0.5907
13313SOL    HW141181   0.788   2.210   2.101  3.2313  1.3613  2.0978
13313SOL    HW241182   0.876   2.183   1.982 -0.8153  0.7699 -0.8666
13314SOL     OW41183   6.223   3.952   6.332 -0.2175  0.0937 -0.0675
13314SOL    HW141184   6.303   3.903   6.351  0.0275 -0.0221 -1.3561
13314SOL    HW241185   6.212   3.943   6.237 -0.1488  2.5521 -0.3338
13315SOL     OW41186   7.965   7.157   3.869 -0.5941  0.1193 -0.0475
13315SOL    HW141187   7.947   7.186   3.959 -2.6151 -0.0914 -0.3682
13315SOL    HW241188   7.968   7.062   3.875 -0.0774  0.1262 -0.1107
13316SOL     OW41189   2.658   5.792   7.244  0.3360 -0.1364  0.2933
13316SOL    HW141190   2.574   5.802   7.288  0.2295  2.4588 -0.4261
13316SOL    HW241191   2.644   5.721   7.182 -1.0935 -0.2114  0.6795
13317SOL     OW41192   8.269   1.506   0.225 -0.1498 -0.3531 -0.0583
13317SOL    HW141193   8.246   1.493   0.132 -1.7145 -3.4891  0.6909
13317SOL    HW241194   8.359   1.477   0.232 -1.2269 -3.8501  0.0808
13318SOL     OW41195   8.089   1.851   1.940 -0.3178  0.0342 -0.3364
13318SOL    HW141196   8.117   1.941   1.952 -0.0360 -0.2062  0.9255
13318SOL    HW241197   8.170   1.801   1.930 -0.5224  0.1421 -2.8763
13319SOL     OW41198   5.178   7.316   2.953  0.0681  0.5795  0.0752
13319SOL    HW141199   5.171   7.235   3.004  0.4492  0.9874  0.7831
13319SOL    HW241200   5.112   7.374   2.992 -1.3979  0.0331 -1.5304
13320SOL     OW41201   0.114   4.622   5.416 -0.1881 -0.6156  0.0890
13320SOL    HW141202   0.019   4.615   5.417 -0.1887 -0.8700 -1.1823
13320SOL    HW241203   0.134   4.681   5.489 -1.4304  0.6647 -0.5773
13321SOL     OW41204   4.963   4.083   4.275  0.2981  0.1360  0.2300
13321SOL    HW141205   5.041   4.132   4.300  0.8016 -0.1183 -0.7971
13321SOL    HW241206   4.971   3.999   4.320 -0.2019  0.7090  1.4132
13322SOL     OW41207   3.989   7.978   6.104 -0.8105  0.1770 -0.2815
13322SOL    HW141208   4.065   7.920   6.094 -1.8138 -1.3227  0.5389
13322SOL    HW241209   3.950   7.951   6.187 -2.8872  0.1863 -1.2375
13323SOL     OW41210   5.421   3.402   3.316  0.1564  0.2854  0.3741
13323SOL    HW141211   5.391   3.464   3.382 -0.4935 -0.1103  0.4556
13323SOL    HW241212   5.396   3.441   3.232  0.9012  0.7449  0.3640
13324SOL     OW41213   7.875   0.630   0.742  0.0600  0.0297 -0.1741
13324SOL    HW141214   7.814   0.666   0.678  0.2985  0.5938 -0.0821
13324SOL    HW241215   7.957   0.675   0.725  0.4839 -0.7938 -0.3617
13325SOL     OW41216   3.356   7.352   8.197  0.2399  0.3280 -0.2694
13325SOL    HW141217   3.297   7.362   8.122 -0.3952 -2.6733 -0.2439
13325SOL    HW241218   3.443   7.347   8.159 -0.1153 -1.5824 -0.8800
13326SOL     OW41219   2.574   4.415   6.331 -0.3054  0.0209 -0.2070
13326SOL    HW141220   2.539   4.352   6.269 -1.3663 -1.1996  1.5734
13326SOL    HW241221   2.656   4.376   6.361 -0.4856 -0.0672  0.1801
13327SOL     OW41222   1.599   5.143   7.297 -0.2524 -0.5218  0.7500
13327SOL    HW141223   1.640   5.203   7.360 -0.8257  0.5619  0.0981
13327SOL    HW241224   1.525   5.104   7.345 -1.0760  0.7815  0.5604
13328SOL     OW41225   2.890   5.087   7.817  0.5468 -0.1253  0.4938
13328SOL    HW141226   2.946   5.110   7.742  0.6351  0.7169  0.8071
13328SOL    HW241227   2.951   5.050   7.881  0.2189 -2.4322 -0.4967
13329SOL     OW41228   5.996   5.437   7.438  0.0516  0.0366  0.0975
13329SOL    HW141229   5.924   5.471   7.385 -0.4698  1.0103  1.3984
13329SOL    HW241230   5.972   5.346   7.456 -0.0290 -0.1397 -0.8673
13330SOL     OW41231   6.413   2.606   3.400  0.4165  0.5888  0.0420
13330SOL    HW141232   6.487   2.555   3.432  0.0520  0.2080  0.2859
13330SOL    HW241233   6.423   2.691   3.442  0.5171  0.4240  0.3553
13331SOL     OW41234   3.540   3.916   4.759 -0.3443  0.2236 -0.0116
13331SOL    HW141235   3.554   3.866   4.840  1.9843  0.3830 -0.2632
13331SOL    HW241236   3.580   4.001   4.777 -1.2964  0.8250 -0.7565
13332SOL     OW41237   7.695   0.132   6.983 -1.0515  0.7204  0.1676
13332SOL    HW141238   7.667   0.224   6.990 -0.5049  0.8443  0.7603
13332SOL    HW241239   7.787   0.133   7.011 -1.0466 -0.0101  0.1754
13333SOL     OW41240   6.987   4.009   0.179 -0.1153 -0.0954  0.6017
13333SOL    HW141241   6.974   3.960   0.097  1.4672 -1.0236  0.8778
13333SOL    HW241242   6.946   3.954   0.246 -0.2716  0.0313  0.6095
13334SOL     OW41243   5.757   2.009   7.795 -0.0293 -0.6025  0.8651
13334SOL    HW141244   5.763   1.925   7.749  0.4355  0.3434 -0.8465
13334SOL    HW241245   5.820   2.065   7.750  0.4880  0.3396  2.7293
13335SOL     OW41246   1.809   0.945   3.732 -0.6773  0.5892 -0.4666
13335SOL    HW141247   1.810   0.849   3.731 -2.3826  0.5307  0.8699
13335SOL    HW241248   1.730   0.969   3.683 -0.5616  1.2877 -0.3103
13336SOL     OW41249   4.496   4.755   3.910  1.1596 -0.2214 -0.3134
13336SOL    HW141250   4.410   4.727   3.941  0.0780  0.4960 -2.5471
13336SOL    HW241251   4.549   4.676   3.912  0.7392 -0.4726  2.0155
13337SOL     OW41252   4.237   2.858   5.171 -0.3866 -0.3150 -0.0024
13337SOL    HW141253   4.250   2.909   5.091  0.9569  0.4974  0.7105
13337SOL    HW241254   4.304   2.891   5.231 -2.4296  0.3024  2.0386
13338SOL     OW41255   1.516   0.381   1.207 -0.4007  0.7617  0.1232
13338SOL    HW141256   1.445   0.444   1.193 -0.5933  0.6044  0.3982
13338SOL    HW241257   1.497   0.341   1.292 -0.6439 -0.1430 -0.3438
13339SOL     OW41258   8.299   4.979   5.488  0.2512  0.2353 -0.4335
13339SOL    HW141259   8.390   5.006   5.476  0.2481 -0.6594 -2.7667
13339SOL    HW241260   8.298   4.933   5.572  1.5852  1.7268  0.4214
13340SOL     OW41261   2.884   0.801   2.828 -0.3547  0.7098 -0.0546
13340SOL    HW141262   2.871   0.829   2.737 -1.2965 -0.5336 -0.3100
13340SOL    HW241263   2.809   0.745   2.846  0.9681 -0.7862  0.8167
13341SOL     OW41264   2.296   0.900   1.470 -0.2004  0.3906  0.0369
13341SOL    HW141265   2.341   0.892   1.554 -2.9735  0.7445  1.6005
13341SOL    HW241266   2.324   0.986   1.436  1.7395 -0.2127  0.0705
13342SOL     OW41267   4.747   7.521   0.899  0.1946 -0.9360 -0.4527
13342SOL    HW141268   4.701   7.564   0.827  1.8805 -3.9450 -3.4513
13342SOL    HW241269   4.685   7.456   0.932  0.1140 -0.8744 -0.4830
13343SOL     OW41270   6.659   6.584   7.392  0.0730  0.0606  0.1118
13343SOL    HW141271   6.653   6.494   7.424 -0.1453 -0.0599 -0.2593
13343SOL    HW241272   6.572   6.603   7.356 -0.6856  1.3286  2.5228
13344SOL     OW41273   3.562   6.681   2.906 -0.1844 -0.1509  0.0829
13344SOL    HW141274   3.549   6.770   2.939  1.4421  0.3612 -0.6278
13344SOL    HW241275   3.554   6.625   2.983  1.0563  0.8137  0.9121
13345SOL     OW41276   7.168   7.300   5.086  0.6475 -0.1399 -0.5285
13345SOL    HW141277   7.246   7.288   5.140 -0.0250 -1.5460  0.1512
13345SOL    HW241278   7.108   7.351   5.141  1.0355  0.8695 -1.0202
13346SOL     OW41279   0.450   3.445   8.304  0.2806 -0.0951  0.3463
13346SOL    HW141280   0.356   3.428   8.319  0.3662 -2.5013 -1.4003
13346SOL    HW241281   0.494   3.368   8.341  1.5974  1.1742  1.4377
13347SOL     OW41282   2.069   7.139   2.543  0.6506 -0.0939 -0.6495
13347SOL    HW141283   2.002   7.205   2.525  0.5761 -0.0669 -0.2784
13347SOL    HW241284   2.032   7.086   2.614  2.1885  1.6228  1.4988
13348SOL     OW41285   3.320   7.989   3.160  0.1639 -0.9161  0.1139
13348SOL    HW141286   3.393   8.034   3.117 -1.1033 -0.8680 -2.0067
13348SOL    HW241287   3.291   8.050   3.228  1.3483 -0.4544  0.2238
13349SOL     OW41288   8.181   4.520   7.599 -0.4714  0.1181  0.0850
13349SOL    HW141289   8.086   4.521   7.597 -0.5453 -1.4776  1.1448
13349SOL    HW241290   8.206   4.462   7.527 -0.2189  1.9057 -1.2869
13350SOL     OW41291   7.240   1.848   8.145 -0.4025 -0.0194  0.3176
13350SOL    HW141292   7.187   1.777   8.108 -0.7191  1.3227 -1.8770
13350SOL    HW241293   7.176   1.912   8.177 -0.1578  1.2108 -1.5662
13351SOL     OW41294   5.830   7.697   2.039  0.0175  0.4538 -0.2459
13351SOL    HW141295   5.899   7.758   2.065  1.0801 -1.6070  1.8845
13351SOL    HW241296   5.756   7.719   2.097  0.6722 -0.7883  1.0760
13352SOL     OW41297   5.657   4.131   1.689  0.2013  0.6319 -0.0739
13352SOL    HW141298   5.635   4.215   1.651  0.2872  0.5152 -0.3790
13352SOL    HW241299   5.749   4.140   1.716  0.5119  0.2978 -1.0199
13353SOL     OW41300   6.562   3.143   0.428  0.2294  0.1577  0.0350
13353SOL    HW141301   6.656   3.132   0.443  0.5597  0.9555 -1.3963
13353SOL    HW241302   6.533   3.059   0.393  0.7399  0.4775 -1.1484
13354SOL     OW41303   0.159   3.652   4.037 -0.1626  0.2527  0.6304
13354SOL    HW141304   0.115   3.615   4.113  0.0753 -0.4407  0.4433
13354SOL    HW241305   0.199   3.576   3.994 -0.9109  0.5409 -0.5873
13355SOL     OW41306   4.463   4.471   0.127  0.0814  0.4402  0.3744
13355SOL    HW141307   4.376   4.506   0.149  0.1505 -0.0709  1.4981
13355SOL    HW241308   4.449   4.417   0.049 -0.3968  1.2937 -0.1394
13356SOL     OW41309   6.151   6.120   0.832  0.8592 -0.1237 -0.2292
13356SOL    HW141310   6.113   6.185   0.772  0.7808  0.2704  0.2506
13356SOL    HW241311   6.150   6.039   0.781 -0.7417 -0.1503 -0.1832
13357SOL     OW41312   1.051   7.390   4.171 -0.4790 -0.2737  0.1191
13357SOL    HW141313   0.969   7.412   4.216 -1.0665 -1.9885 -0.0939
13357SOL    HW241314   1.094   7.475   4.158 -2.5654  0.7367 -0.4477
13358SOL     OW41315   2.788   4.661   1.551 -0.0049 -0.3010  0.1170
13358SOL    HW141316   2.776   4.613   1.633 -2.3130  0.4215  0.2355
13358SOL    HW241317   2.808   4.750   1.578 -1.7230  0.1573 -0.0920
13359SOL     OW41318   0.871   6.545   4.048  0.3600  1.0341  0.4984
13359SOL    HW141319   0.925   6.620   4.021  0.7556  0.1272 -1.2767
13359SOL    HW241320   0.836   6.571   4.134  1.2087  2.8792  0.3196
13360SOL     OW41321   1.254   7.029   1.199 -0.1478 -0.0469 -0.4907
13360SOL    HW141322   1.270   7.025   1.105  1.2375 -0.0311 -0.2645
13360SOL    HW241323   1.340   7.047   1.237 -0.7490  0.2210  0.7573
13361SOL     OW41324   4.770   2.631   5.632  0.6247 -0.3459  0.8460
13361SOL    HW141325   4.850   2.636   5.581  0.8257 -2.6901  0.8800
13361SOL    HW241326   4.701   2.613   5.568  0.6163 -1.5174  1.1692
13362SOL     OW41327   4.377   3.194   6.159 -0.4893  0.4148  0.1688
13362SOL    HW141328   4.306   3.132   6.142 -1.1219  0.8848  1.0448
13362SOL    HW241329   4.333   3.279   6.169  0.3271  0.9347 -0.6264
13363SOL     OW41330   2.860   6.109   7.783  0.0147  0.0446  0.2223
13363SOL    HW141331   2.815   6.081   7.863 -0.3628 -0.3559 -0.1261
13363SOL    HW241332   2.897   6.028   7.747  0.5577  0.2920  0.2252
13364SOL     OW41333   0.356   0.272   7.792  0.1636 -0.5334 -0.5629
13364SOL    HW141334   0.306   0.309   7.865 -0.9143 -0.2569 -1.4190
13364SOL    HW241335   0.402   0.347   7.754 -1.0907 -0.2522 -1.5690
13365SOL     OW41336   1.155   6.624   3.628  0.2418  0.2420 -0.0870
13365SOL    HW141337   1.149   6.534   3.597 -1.6247 -0.6719  2.8040
13365SOL    HW241338   1.067   6.660   3.615  0.3760  0.9440  0.9176
13366SOL     OW41339   5.762   1.525   2.330 -0.0499 -0.0068 -0.2449
13366SOL    HW141340   5.679   1.568   2.347  0.2347  1.1493 -1.6420
13366SOL    HW241341   5.770   1.459   2.398 -0.6548  1.9612  1.7669
13367SOL     OW41342   1.815   2.139   7.321 -0.7298 -0.0580  0.1730
13367SOL    HW141343   1.738   2.083   7.308 -2.4267  1.8821  1.6202
13367SOL    HW241344   1.780   2.220   7.358  1.9578  1.0844  0.3162
13368SOL     OW41345   2.141   6.659   7.279  0.5578 -0.0431  0.2305
13368SOL    HW141346   2.069   6.662   7.343  1.3381 -0.2319  1.1346
13368SOL    HW241347   2.203   6.597   7.316  0.9334 -0.3019 -0.8245
13369SOL     OW41348   5.960   4.520   1.255  0.3018 -0.1361 -0.1071
13369SOL    HW141349   5.977   4.581   1.183  1.1992 -0.3964 -0.1216
13369SOL    HW241350   6.012   4.442   1.233  2.7897  0.8079  2.1726
13370SOL     OW41351   1.786   2.150   7.859  0.4756  0.0913 -0.3153
13370SOL    HW141352   1.831   2.225   7.898  1.0241 -0.7476  0.6966
13370SOL    HW241353   1.808   2.077   7.917 -3.3565 -0.0720  1.0899
13371SOL     OW41354   7.774   6.807   0.284 -0.2601 -0.3414 -0.0840
13371SOL    HW141355   7.767   6.719   0.248 -0.0858 -1.0351  1.5328
13371SOL    HW241356   7.868   6.823   0.292 -0.2814 -1.2338  2.4622
13372SOL     OW41357   7.459   0.758   6.903  0.3204  0.5999  0.1257
13372SOL    HW141358   7.418   0.809   6.972 -0.0247  2.4284 -1.4179
13372SOL    HW241359   7.396   0.689   6.883 -0.4978  1.3405  0.1517
13373SOL     OW41360   6.876   0.636   2.035  0.6609  0.0665  0.0726
13373SOL    HW141361   6.966   0.605   2.021  0.7377  0.6724 -0.8161
13373SOL    HW241362   6.856   0.610   2.125  1.0647 -1.6814 -0.3207
13374SOL     OW41363   6.231   1.996   2.928  0.1517 -0.0173 -0.4279
13374SOL    HW141364   6.213   2.076   2.977 -0.5223 -1.6016  2.0321
13374SOL    HW241365   6.307   1.957   2.973  1.9221  0.3458 -3.0046
13375SOL     OW41366   6.263   3.976   0.921 -0.3247  0.0173 -0.4397
13375SOL    HW141367   6.273   3.885   0.892  0.3662 -0.5243  1.4407
13375SOL    HW241368   6.207   3.970   0.999  1.7394  0.9072  1.1669
13376SOL     OW41369   5.856   0.670   7.788  0.1696  0.0845  0.1945
13376SOL    HW141370   5.806   0.679   7.706  0.4120 -0.9029 -0.0594
13376SOL    HW241371   5.927   0.610   7.766 -0.0613 -0.5879  1.2727
13377SOL     OW41372   3.180   0.614   0.494 -0.1469 -0.5149 -0.3259
13377SOL    HW141373   3.235   0.665   0.553 -0.5575 -0.3132 -0.1179
13377SOL    HW241374   3.227   0.531   0.484  1.1033  0.3191 -1.5749
13378SOL     OW41375   5.676   1.772   7.404 -0.3209  0.2883 -0.2662
13378SOL    HW141376   5.741   1.761   7.473  0.9930  0.5325 -1.4580
13378SOL    HW241377   5.626   1.850   7.431 -0.8990 -0.5668  1.2322
13379SOL     OW41378   7.237   3.526   7.748  0.2530 -0.1887 -0.0186
13379SOL    HW141379   7.331   3.510   7.744  0.0663 -1.1230 -0.8992
13379SOL    HW241380   7.213   3.560   7.662 -0.4224 -1.2014 -0.2456
13380SOL     OW41381   3.503   0.711   0.319 -0.2511  0.4626 -0.5468
13380SOL    HW141382   3.450   0.704   0.399 -0.8431  1.3902 -0.8447
13380SOL    HW241383   3.464   0.785   0.272  0.3987  0.2189 -1.4666
13381SOL     OW41384   0.599   6.189   4.064 -0.3342 -0.5921 -0.1980
13381SOL    HW141385   0.587   6.209   3.972  0.4959 -0.3535 -0.2522
13381SOL    HW241386   0.683   6.228   4.087 -0.0386 -1.5624  0.4004
13382SOL     OW41387   2.916   1.358   5.928  0.5477  0.1023  0.6877
13382SOL    HW141388   2.870   1.437   5.900 -1.6964 -1.2947  0.3101
13382SOL    HW241389   2.846   1.295   5.948  2.2999 -2.2212 -0.3106
13383SOL     OW41390   5.960   2.437   4.398  0.4258  0.2045 -0.2787
13383SOL    HW141391   5.959   2.359   4.343  1.6880  0.2923 -0.4409
13383SOL    HW241392   5.870   2.471   4.394  0.0604 -0.8188 -0.7955
13384SOL     OW41393   0.717   4.113   6.701 -0.1893 -0.0163 -0.3669
13384SOL    HW141394   0.698   4.081   6.790 -2.0309  1.3808 -0.2461
13384SOL    HW241395   0.812   4.108   6.695  0.1394  1.5467  2.3560
13385SOL     OW41396   6.847   2.621   5.088  0.2208  0.0225  0.5676
13385SOL    HW141397   6.940   2.603   5.079  0.2856  1.1933 -1.5171
13385SOL    HW241398   6.818   2.565   5.161  2.7100  0.3328  1.8494
13386SOL     OW41399   8.088   2.454   2.455  0.3310  0.2516 -0.4520
13386SOL    HW141400   8.019   2.517   2.473 -0.5103 -1.1149  1.2211
13386SOL    HW241401   8.140   2.450   2.536  2.2790  1.1323 -1.6245
13387SOL     OW41402   5.636   3.043   4.236  0.5746 -0.1656 -0.2738
13387SOL    HW141403   5.657   3.136   4.251 -2.0905  0.3217  0.7168
13387SOL    HW241404   5.568   3.045   4.169 -0.4851 -1.3076  0.7411
13388SOL     OW41405   3.835   3.439   1.165 -0.0898  0.0326  0.5987
13388SOL    HW141406   3.829   3.532   1.184  1.3213  0.0792  0.8998
13388SOL    HW241407   3.815   3.395   1.248 -2.6051  0.0056  0.0037
13389SOL     OW41408   0.735   0.625   6.575  0.1163  0.5445  0.1341
13389SOL    HW141409   0.688   0.661   6.650 -1.2075  0.6173 -0.7158
13389SOL    HW241410   0.679   0.644   6.500  1.8506  1.2654 -1.0016
13390SOL     OW41411   3.362   3.004   1.177  0.3278 -0.3505  0.1937
13390SOL    HW141412   3.281   2.954   1.183 -0.1764  0.5959  1.6899
13390SOL    HW241413   3.430   2.943   1.205 -0.2269 -0.3361  1.5944
13391SOL     OW41414   4.499   3.590   6.362  0.4588 -0.0708 -0.1092
13391SOL    HW141415   4.567   3.602   6.296 -0.4541  1.0678 -0.8590
13391SOL    HW241416   4.480   3.496   6.360  2.2150 -0.4592  0.3399
13392SOL     OW41417   2.889   7.711   4.313  0.5419  0.1341  0.7510
13392SOL    HW141418   2.960   7.775   4.306 -0.8556  1.5494 -0.8489
13392SOL    HW241419   2.809   7.762   4.300 -0.6794 -1.6916  0.9764
13393SOL     OW41420   0.106   0.247   7.153 -0.4651  1.0316 -0.3555
13393SOL    HW141421   0.120   0.164   7.199  0.3106  1.8519  0.9370
13393SOL    HW241422   0.181   0.254   7.094 -0.8242  0.5447 -0.8663
13394SOL     OW41423   7.568   3.363   7.522 -0.0227 -0.2402  0.4122
13394SOL    HW141424   7.595   3.320   7.441 -0.6437 -0.3919  0.2879
13394SOL    HW241425   7.504   3.303   7.561 -1.5318  0.9632 -0.1688
13395SOL     OW41426   1.500   2.801   1.058  0.0719  0.4222  0.1882
13395SOL    HW141427   1.563   2.873   1.051 -0.0676  0.5683  0.4139
13395SOL    HW241428   1.416   2.840   1.033 -0.1786  0.5958  1.2471
13396SOL     OW41429   3.107   0.115   2.917  0.2866  0.4172 -0.3179
13396SOL    HW141430   3.179   0.086   2.862 -1.3105 -3.0206 -0.6960
13396SOL    HW241431   3.041   0.146   2.855 -0.1773 -0.2589 -0.1586
13397SOL     OW41432   1.038   5.156   0.245  0.5454  0.2925  0.3428
13397SOL    HW141433   1.067   5.244   0.222  1.5990  0.1808  1.1703
13397SOL    HW241434   1.118   5.112   0.274 -0.0136 -0.8665  0.1455
13398SOL     OW41435   0.186   1.417   8.176  0.4183 -0.1786 -0.3320
13398SOL    HW141436   0.206   1.350   8.241  0.3743 -0.1621 -0.3015
13398SOL    HW241437   0.206   1.500   8.219 -1.1459 -0.0709  0.2231
13399SOL     OW41438   7.077   5.002   3.280 -0.4900  0.5546 -0.5777
13399SOL    HW141439   7.133   5.037   3.211  0.4563  0.6222  0.2271
13399SOL    HW241440   7.096   4.908   3.281 -1.4046  0.3482 -1.2279
13400SOL     OW41441   7.355   7.040   7.643 -0.2630 -0.6598 -0.1732
13400SOL    HW141442   7.386   7.038   7.552  1.5562 -1.1074  0.4404
13400SOL    HW241443   7.347   7.133   7.663  0.2010 -0.5445 -0.5060
13401SOL     OW41444   1.899   5.245   4.806 -0.1970  0.2248 -0.5007
13401SOL    HW141445   1.874   5.337   4.798 -1.9120 -0.3367 -1.9191
13401SOL    HW241446   1.833   5.208   4.865 -0.6871 -0.5108 -1.5017
13402SOL     OW41447   1.736   6.310   2.355 -0.1965 -0.2180  0.2039
13402SOL    HW141448   1.670   6.316   2.286 -0.9351 -1.6134  0.7706
13402SOL    HW241449   1.710   6.376   2.419  0.5621  1.1735 -0.8773
13403SOL     OW41450   4.245   1.273   2.214 -0.1189  0.0031 -0.4254
13403SOL    HW141451   4.246   1.304   2.305  0.1216 -2.3064  0.4019
13403SOL    HW241452   4.163   1.224   2.207  0.2449 -0.5039 -1.2135
13404SOL     OW41453   2.755   8.287   2.979 -0.1311  0.5240  0.1462
13404SOL    HW141454   2.733   8.201   3.014 -2.5340  1.8291  1.9757
13404SOL    HW241455   2.705   8.294   2.897  1.6981 -0.5947 -1.1115
13405SOL     OW41456   0.494   1.321   4.656 -0.0788  0.1890  0.0014
13405SOL    HW141457   0.418   1.290   4.607 -0.1586 -1.5310  1.1602
13405SOL    HW241458   0.480   1.415   4.667 -1.6950 -0.0033 -0.3996
13406SOL     OW41459   1.288   0.195   4.675 -0.2338  0.1748 -0.1433
13406SOL    HW141460   1.202   0.172   4.709  0.6080 -0.1952  1.7604
13406SOL    HW241461   1.329   0.111   4.654  1.6406 -0.0241  3.8849
13407SOL     OW41462   8.067   0.697   5.269  0.1782 -0.7333 -0.0340
13407SOL    HW141463   8.009   0.657   5.205  0.8748  0.7614 -1.6221
13407SOL    HW241464   8.090   0.625   5.329 -1.3115 -1.8875 -0.8314
13408SOL     OW41465   5.761   2.719   5.209 -0.9628  0.8807  0.6807
13408SOL    HW141466   5.730   2.809   5.197  1.2154  1.6712  0.7589
13408SOL    HW241467   5.850   2.728   5.243 -0.4235 -1.2981 -0.0322
13409SOL     OW41468   0.784   4.430   6.851 -0.3459  0.3186  0.1094
13409SOL    HW141469   0.767   4.444   6.758  1.1205 -1.6362 -0.4858
13409SOL    HW241470   0.702   4.396   6.886 -0.9416  1.1757 -0.4467
13410SOL     OW41471   0.668   2.172   3.917 -0.1974  0.7761 -0.2262
13410SOL    HW141472   0.753   2.215   3.926  0.3174 -0.2993  0.0431
13410SOL    HW241473   0.624   2.190   3.999  0.7942 -0.9045  0.6822
13411SOL     OW41474   4.444   0.298   0.961 -0.1780 -0.1967 -0.3718
13411SOL    HW141475   4.502   0.260   1.027 -0.3319  1.5283  0.7963
13411SOL    HW241476   4.357   0.263   0.982  0.2194 -1.8469 -1.3964
13412SOL     OW41477   1.866   5.702   2.325  0.7405 -0.0118 -0.1874
13412SOL    HW141478   1.897   5.734   2.410 -2.6832 -2.8238  2.2575
13412SOL    HW241479   1.800   5.765   2.298 -0.3930 -0.7706  0.7842
13413SOL     OW41480   8.262   6.942   5.505  0.3972  0.1938  0.6727
13413SOL    HW141481   8.261   6.896   5.421  1.0195  0.3737  0.5634
13413SOL    HW241482   8.250   7.034   5.483 -0.0460  0.1735  0.8299
13414SOL     OW41483   7.886   4.440   2.893 -0.6081 -0.1184  0.1661
13414SOL    HW141484   7.924   4.452   2.980 -0.8883  0.8861  0.1507
13414SOL    HW241485   7.805   4.390   2.910 -0.6081 -0.0189  0.4659
13415SOL     OW41486   0.342   3.578   3.608  0.1402  0.1477  0.4214
13415SOL    HW141487   0.377   3.505   3.659 -0.1135 -1.5457 -1.7753
13415SOL    HW241488   0.413   3.602   3.549 -0.5870  0.1179 -0.4815
13416SOL     OW41489   2.950   1.159   0.896 -0.0332 -0.3565  0.0145
13416SOL    HW141490   3.023   1.178   0.954  0.5753  0.0940 -0.8774
13416SOL    HW241491   2.892   1.103   0.947 -0.8692  2.2280  2.0290
13417SOL     OW41492   2.421   1.946   4.303 -0.2397  0.3386  0.1719
13417SOL    HW141493   2.371   1.876   4.262  0.4424  0.3653 -0.7442
13417SOL    HW241494   2.390   2.026   4.261  0.6197  0.3457 -0.4708
13418SOL     OW41495   1.207   5.403   1.352  0.0431  0.0370 -0.1608
13418SOL    HW141496   1.135   5.376   1.409  0.7282 -0.2523  0.5805
13418SOL    HW241497   1.222   5.495   1.373  1.5493 -0.5533  1.5343
13419SOL     OW41498   7.689   0.263   4.625 -0.1920  0.0491  0.0407
13419SOL    HW141499   7.674   0.342   4.572  0.6962 -0.0010 -0.2883
13419SOL    HW241500   7.646   0.193   4.576 -1.2936  0.3766  0.5107
13420SOL     OW41501   7.685   0.938   2.748  0.2317 -0.4960  0.5439
13420SOL    HW141502   7.727   0.951   2.833  1.6514 -0.3007 -0.1753
13420SOL    HW241503   7.593   0.926   2.768  0.7265 -1.5336  2.1979
13421SOL     OW41504   1.742   2.493   4.010 -0.3317 -0.3830 -0.4181
13421SOL    HW141505   1.675   2.562   4.015  1.4886  1.3762  0.1869
13421SOL    HW241506   1.743   2.454   4.097  0.2380  0.3770 -0.0788
13422SOL     OW41507   1.748   2.389   0.228  0.4109  0.2773  0.5507
13422SOL    HW141508   1.793   2.308   0.205  0.0084  0.8022 -2.2111
13422SOL    HW241509   1.819   2.449   0.255  0.8792 -0.4519  0.9476
13423SOL     OW41510   1.523   7.324   5.742  0.1086  0.1121 -0.2188
13423SOL    HW141511   1.560   7.236   5.755  0.0639  0.2377  0.7985
13423SOL    HW241512   1.596   7.383   5.759  0.3100  0.2528 -1.5748
13424SOL     OW41513   6.379   0.968   0.864 -0.1061 -0.6852 -0.3000
13424SOL    HW141514   6.378   0.889   0.811  1.3942 -1.1130  0.2790
13424SOL    HW241515   6.423   0.942   0.945  1.0175  0.8940 -0.3750
13425SOL     OW41516   7.924   1.653   7.288 -0.0583 -0.4374 -0.0496
13425SOL    HW141517   7.856   1.631   7.351 -1.5517 -0.3489 -1.5787
13425SOL    HW241518   7.930   1.748   7.290 -1.7670 -0.2540 -1.6568
13426SOL     OW41519   6.261   5.818   5.880  0.3354 -0.4213  0.1156
13426SOL    HW141520   6.191   5.768   5.836 -2.2955  0.8675  2.6542
13426SOL    HW241521   6.273   5.896   5.825 -3.1629  1.3450  1.6957
13427SOL     OW41522   1.683   2.223   4.220 -0.2801  0.4051 -0.0430
13427SOL    HW141523   1.763   2.181   4.189 -0.1884  0.1676  0.5063
13427SOL    HW241524   1.619   2.152   4.226 -0.5589  0.6106 -0.5705
13428SOL     OW41525   7.126   5.261   1.972 -0.0077  0.4977 -0.5890
13428SOL    HW141526   7.062   5.323   2.006  0.8323  1.0380  0.0297
13428SOL    HW241527   7.081   5.176   1.975 -0.7103  0.8802 -0.2202
13429SOL     OW41528   7.339   0.119   0.815  0.1313 -0.0614 -0.3287
13429SOL    HW141529   7.399   0.046   0.830 -0.0378 -0.2025 -0.3474
13429SOL    HW241530   7.293   0.097   0.735 -0.6347 -0.4119  0.2033
13430SOL     OW41531   4.734   4.674   7.708 -0.7315  0.0428  0.4606
13430SOL    HW141532   4.689   4.759   7.707  1.0110  0.9988  1.2971
13430SOL    HW241533   4.811   4.687   7.652 -1.4828 -1.5940 -1.0012
13431SOL     OW41534   7.963   7.170   3.003 -0.0929  0.2855  0.4388
13431SOL    HW141535   7.871   7.169   2.976 -0.0820  0.0461  0.4112
13431SOL    HW241536   7.967   7.237   3.071 -0.0334  1.2238 -0.4636
13432SOL     OW41537   2.929   7.312   4.828 -0.0940  0.6328 -0.2735
13432SOL    HW141538   2.982   7.269   4.761 -1.1111 -2.2574  0.6614
13432SOL    HW241539   2.846   7.332   4.785 -0.6523 -0.9882  0.0010
13433SOL     OW41540   2.996   5.920   7.636  0.1784  0.1882 -0.4537
13433SOL    HW141541   2.935   5.854   7.603 -0.6719  0.5709  0.3176
13433SOL    HW241542   3.083   5.886   7.614 -0.1547 -2.0901  1.5539
13434SOL     OW41543   0.488   6.790   0.893 -0.0307  0.0913  0.1107
13434SOL    HW141544   0.400   6.826   0.888 -0.3154 -0.4319  1.4481
13434SOL    HW241545   0.476   6.695   0.889  0.5648  0.0419 -0.9176
13435SOL     OW41546   6.680   3.678   8.304 -0.0464 -0.3258 -0.3088
13435SOL    HW141547   6.613   3.740   8.334  0.2875  0.2904 -0.8354
13435SOL    HW241548   6.664   3.669   8.210  1.8411  1.3557 -0.8291
13436SOL     OW41549   3.853   7.879   0.612  0.0424  0.1073  0.1462
13436SOL    HW141550   3.834   7.787   0.592 -0.6776 -0.0055  1.2542
13436SOL    HW241551   3.853   7.923   0.527 -0.3294 -0.7949 -0.3326
13437SOL     OW41552   1.776   2.411   7.193  0.3112  0.3521  0.1633
13437SOL    HW141553   1.825   2.420   7.111 -0.9293  0.1969 -0.6052
13437SOL    HW241554   1.689   2.445   7.173  0.4909  1.9337  1.9123
13438SOL     OW41555   2.122   4.156   1.703  0.0027  0.4845 -0.6807
13438SOL    HW141556   2.033   4.177   1.733  0.9956  0.7551  2.2318
13438SOL    HW241557   2.159   4.240   1.677 -0.2298  0.5183 -0.9055
13439SOL     OW41558   4.854   5.595   5.229  0.0026 -0.2392 -0.1139
13439SOL    HW141559   4.819   5.590   5.140  0.4363  0.4144 -0.3274
13439SOL    HW241560   4.949   5.599   5.217  0.0952 -0.8329  0.4070
13440SOL     OW41561   6.972   3.519   3.829 -0.2285 -0.4365  0.4918
13440SOL    HW141562   6.898   3.470   3.865  0.1775 -0.2061  1.6408
13440SOL    HW241563   7.039   3.515   3.897  0.2070  0.7833  0.1375
13441SOL     OW41564   3.603   2.091   1.146 -0.0196 -0.7492 -0.1290
13441SOL    HW141565   3.518   2.059   1.176  0.4430 -0.8332  1.0903
13441SOL    HW241566   3.657   2.012   1.139 -0.3479 -0.8340 -1.9461
13442SOL     OW41567   8.152   2.639   2.896  0.2291 -0.0892  0.6987
13442SOL    HW141568   8.119   2.639   2.985  0.1783  0.1788  0.6790
13442SOL    HW241569   8.086   2.591   2.845  0.4577 -0.6005  0.8791
13443SOL     OW41570   2.161   2.842   5.611  0.8430  0.7850  0.9052
13443SOL    HW141571   2.131   2.927   5.642  0.0358  0.1187  2.0190
13443SOL    HW241572   2.231   2.817   5.672  0.7980  0.4717  0.8305
13444SOL     OW41573   7.560   5.629   4.507 -0.0531  0.3449 -0.3262
13444SOL    HW141574   7.543   5.706   4.562  0.3042  0.5168 -0.4595
13444SOL    HW241575   7.497   5.636   4.436 -0.8331 -0.1198  0.3013
13445SOL     OW41576   2.459   5.678   6.716 -0.2226 -0.4924  0.4036
13445SOL    HW141577   2.461   5.771   6.736 -0.2597 -0.5449  0.6564
13445SOL    HW241578   2.549   5.648   6.732 -0.4162 -0.6739  1.1702
13446SOL     OW41579   3.032   3.831   0.294 -0.6720 -0.5401  0.6061
13446SOL    HW141580   3.090   3.756   0.280  0.5695  0.1686  1.7813
13446SOL    HW241581   3.054   3.862   0.383 -1.8726  0.5884  0.5254
13447SOL     OW41582   4.652   5.105   4.423  0.7277 -0.6529  0.4524
13447SOL    HW141583   4.708   5.037   4.386 -0.0332 -1.2109  0.3076
13447SOL    HW241584   4.571   5.059   4.447 -0.2648  0.4138 -0.7611
13448SOL     OW41585   1.003   6.789   3.948  0.2642 -0.3753  0.1594
13448SOL    HW141586   1.047   6.868   3.917 -1.4947  0.2602 -0.8398
13448SOL    HW241587   1.066   6.719   3.934  1.1749  0.5955 -0.6993
13449SOL     OW41588   0.638   2.297   7.476  0.0802  0.0136  0.0542
13449SOL    HW141589   0.647   2.337   7.562 -0.0489  1.0586 -0.4077
13449SOL    HW241590   0.715   2.328   7.427 -0.6496  0.6933 -0.6871
13450SOL     OW41591   3.454   7.273   3.000  0.3792  0.1660  0.3131
13450SOL    HW141592   3.532   7.277   3.055  0.3981 -0.7873  0.3615
13450SOL    HW241593   3.417   7.361   3.005  1.1707  0.4863  0.6912
13451SOL     OW41594   7.248   8.189   6.014 -0.2680 -0.1108 -0.4939
13451SOL    HW141595   7.155   8.211   6.015  0.0664  1.3902 -1.2766
13451SOL    HW241596   7.289   8.257   6.067  0.4321 -0.5802 -0.4300
13452SOL     OW41597   1.979   6.146   7.788 -0.0918  0.5783 -0.7922
13452SOL    HW141598   1.894   6.118   7.757 -0.1822  0.1745 -0.1929
13452SOL    HW241599   1.961   6.194   7.869  0.3295 -0.3233 -0.1616
13453SOL     OW41600   4.390   5.846   8.086 -0.1793  0.3833 -0.1897
13453SOL    HW141601   4.439   5.833   8.167  0.6238  2.4102 -0.3298
13453SOL    HW241602   4.435   5.791   8.021 -0.0010 -0.1850  0.4083
13454SOL     OW41603   2.041   6.116   4.582 -0.2998  1.0882 -0.0745
13454SOL    HW141604   2.022   6.049   4.647  0.3153  1.5924  0.6338
13454SOL    HW241605   1.983   6.096   4.509 -0.5071  0.1104  0.3516
13455SOL     OW41606   5.357   1.705   6.029 -0.7424  0.1957  0.0133
13455SOL    HW141607   5.286   1.767   6.015 -0.5030  0.6673  0.8284
13455SOL    HW241608   5.426   1.757   6.070  0.6680  0.0934 -2.1567
13456SOL     OW41609   7.502   3.134   6.640 -0.8607 -0.2639 -0.2922
13456SOL    HW141610   7.591   3.166   6.657 -1.8126  1.6038  1.4272
13456SOL    HW241611   7.480   3.081   6.716 -1.2275 -0.7155 -0.7084
13457SOL     OW41612   6.917   6.963   6.368  0.3150  0.4823 -0.2683
13457SOL    HW141613   6.836   6.955   6.317  0.3997  0.8849 -0.4708
13457SOL    HW241614   6.887   6.991   6.455  0.2471  0.7968 -0.3908
13458SOL     OW41615   3.960   7.227   2.728 -0.2505  0.2390  0.0223
13458SOL    HW141616   3.991   7.289   2.794  0.2651 -0.9333  0.9108
13458SOL    HW241617   3.877   7.263   2.698  1.1380  2.5620 -1.1628
13459SOL     OW41618   4.244   0.641   2.232  0.4083 -0.0659 -0.6029
13459SOL    HW141619   4.232   0.606   2.143 -0.0575 -1.9463  0.1731
13459SOL    HW241620   4.264   0.734   2.219  1.1987 -0.5026 -2.7152
13460SOL     OW41621   0.894   6.569   0.729 -0.1386  0.2006 -0.4420
13460SOL    HW141622   0.944   6.639   0.687 -0.7363  0.8265 -0.1287
13460SOL    HW241623   0.804   6.580   0.696 -0.2360 -0.4241 -0.3973
13461SOL     OW41624   4.011   3.293   5.093 -0.0935  0.3648 -0.7120
13461SOL    HW141625   4.016   3.333   5.006  0.2905 -0.0162 -0.8653
13461SOL    HW241626   4.080   3.227   5.093 -0.0240  0.4361 -0.0794
13462SOL     OW41627   3.624   3.494   0.568 -0.0857 -0.0019 -0.4944
13462SOL    HW141628   3.601   3.401   0.572 -0.8420  0.1671 -0.8787
13462SOL    HW241629   3.691   3.500   0.500 -0.7139 -0.1241 -1.1191
13463SOL     OW41630   5.335   1.661   6.614  0.0961  0.0015  0.0073
13463SOL    HW141631   5.315   1.573   6.645  1.3763 -0.0816  0.6497
13463SOL    HW241632   5.370   1.706   6.691 -0.0510  0.9104 -0.4486
13464SOL     OW41633   1.500   7.911   0.882 -0.5388 -0.0486 -0.0379
13464SOL    HW141634   1.532   7.909   0.972 -0.5915  1.0910  0.0138
13464SOL    HW241635   1.516   8.001   0.853 -1.0261 -0.2602 -0.9813
13465SOL     OW41636   7.695   2.251   3.875  0.0908 -0.5546  0.1222
13465SOL    HW141637   7.731   2.222   3.791 -0.5502  0.8596 -0.6621
13465SOL    HW241638   7.704   2.347   3.873 -0.4990 -0.4607  1.4028
13466SOL     OW41639   6.908   7.154   4.571 -0.7905  0.0284  0.7659
13466SOL    HW141640   6.914   7.221   4.639 -1.6366 -0.2417  1.1095
13466SOL    HW241641   6.971   7.087   4.598 -0.7593  0.1574  1.0173
13467SOL     OW41642   0.651   2.818   5.591 -0.6972 -0.0347 -0.0518
13467SOL    HW141643   0.632   2.749   5.527 -1.1761  1.0189 -1.0659
13467SOL    HW241644   0.701   2.773   5.660  1.2764 -0.8736 -1.9548
13468SOL     OW41645   7.558   6.071   5.861 -0.3972 -0.5772  0.1553
13468SOL    HW141646   7.573   6.135   5.792 -1.0340  0.2875  0.8073
13468SOL    HW241647   7.544   6.123   5.940  0.2021 -1.5441  0.9213
13469SOL     OW41648   7.259   5.270   5.082 -0.3979  0.8357  0.6042
13469SOL    HW141649   7.191   5.210   5.112  1.0598 -0.7483  0.8352
13469SOL    HW241650   7.279   5.324   5.159 -1.0516  0.9962  0.6668
13470SOL     OW41651   0.756   7.004   5.728 -0.1979  0.2707 -0.0496
13470SOL    HW141652   0.832   6.976   5.779 -0.1043 -0.4148 -0.5646
13470SOL    HW241653   0.781   6.989   5.637 -1.2610 -0.7507 -0.1821
13471SOL     OW41654   5.650   2.384   6.534  0.1428  0.1685  0.1095
13471SOL    HW141655   5.562   2.414   6.553 -0.8094 -3.2076  1.3400
13471SOL    HW241656   5.646   2.289   6.544  4.2887  0.0679  1.7590
13472SOL     OW41657   3.377   6.500   0.698 -0.1054  0.1573  0.0368
13472SOL    HW141658   3.351   6.442   0.770  1.4979  0.8167  1.1884
13472SOL    HW241659   3.376   6.587   0.737 -0.0602  0.6294 -1.0037
13473SOL     OW41660   0.258   5.587   7.012  0.3327  0.3664  0.2484
13473SOL    HW141661   0.222   5.654   6.953  0.6838  1.0806  0.8389
13473SOL    HW241662   0.343   5.622   7.039 -0.2846  0.5378  2.0180
13474SOL     OW41663   5.704   5.308   2.068 -0.1370  0.8348  0.0726
13474SOL    HW141664   5.615   5.278   2.089 -0.5143  0.9938 -1.2541
13474SOL    HW241665   5.721   5.378   2.130 -1.6078  1.9551 -0.7517
13475SOL     OW41666   6.413   0.165   0.772 -0.8436 -0.5613 -0.1849
13475SOL    HW141667   6.377   0.177   0.860  0.4744 -0.9844  0.4262
13475SOL    HW241668   6.488   0.224   0.769 -0.1409 -1.4720 -0.5845
13476SOL     OW41669   6.297   2.916   3.143  0.2523  0.2307 -0.7626
13476SOL    HW141670   6.314   2.823   3.162  0.2071  0.5017  0.6236
13476SOL    HW241671   6.207   2.917   3.111 -0.4554  0.0575  1.1894
13477SOL     OW41672   0.756   8.182   3.237 -0.2586  0.3636  0.1385
13477SOL    HW141673   0.811   8.260   3.230 -0.5526  0.7173  1.5628
13477SOL    HW241674   0.787   8.138   3.317 -2.1976  0.7165  1.1291
13478SOL     OW41675   2.825   2.628   0.138 -0.4526  0.4335 -0.5416
13478SOL    HW141676   2.836   2.642   0.044  1.4939  1.2966 -0.2054
13478SOL    HW241677   2.907   2.588   0.167 -1.0840  0.0336  0.7744
13479SOL     OW41678   0.763   1.008   7.791 -0.3636 -0.3532 -0.1970
13479SOL    HW141679   0.777   1.082   7.850  0.3526 -0.2499 -0.4870
13479SOL    HW241680   0.850   0.988   7.757 -0.8293 -0.1245 -1.5553
13480SOL     OW41681   7.932   2.471   3.883  0.6290 -0.3176  0.3897
13480SOL    HW141682   7.903   2.458   3.793 -1.6210  1.0811  0.8800
13480SOL    HW241683   7.852   2.488   3.933  2.0299  1.2168  2.2417
13481SOL     OW41684   5.358   4.263   6.790 -0.1724  0.1178 -0.1488
13481SOL    HW141685   5.364   4.345   6.741  0.5088  0.0406 -0.2018
13481SOL    HW241686   5.376   4.288   6.881  0.5194 -0.0406 -0.2353
13482SOL     OW41687   7.079   3.142   0.374 -0.4618 -0.8256 -0.3264
13482SOL    HW141688   7.167   3.138   0.335  0.2314  2.2892  0.7725
13482SOL    HW241689   7.095   3.151   0.468 -1.9576  0.0669 -0.1433
13483SOL     OW41690   4.960   6.797   3.829 -0.6170 -0.3390  0.3817
13483SOL    HW141691   4.934   6.869   3.887  0.9032  0.2571  0.3641
13483SOL    HW241692   4.936   6.718   3.877 -0.1452  0.1607  1.4594
13484SOL     OW41693   6.043   3.089   8.248 -0.3089 -0.2403  0.9891
13484SOL    HW141694   6.069   3.104   8.339  0.2343  2.9422  0.3745
13484SOL    HW241695   5.955   3.128   8.242  0.3781  1.1237 -0.2664
13485SOL     OW41696   2.278   7.839   8.293 -0.1388 -0.3179  0.1110
13485SOL    HW141697   2.347   7.874   8.350  1.3550 -1.6929 -0.7949
13485SOL    HW241698   2.199   7.885   8.320  1.4316  2.5127  0.0922
13486SOL     OW41699   4.725   4.832   1.357  0.3262 -0.7717  0.0009
13486SOL    HW141700   4.631   4.848   1.365  0.9474  3.2860 -0.1688
13486SOL    HW241701   4.736   4.802   1.267 -0.8704 -2.2804  0.3214
13487SOL     OW41702   2.287   4.192   4.951 -0.8684  0.5091  0.3461
13487SOL    HW141703   2.333   4.269   4.986  0.3795 -0.6262  1.2801
13487SOL    HW241704   2.233   4.226   4.880 -0.1836  2.2201  0.6228
13488SOL     OW41705   4.570   0.506   3.962  0.1627  0.5812  0.1565
13488SOL    HW141706   4.502   0.560   4.002 -0.9082 -0.6028 -0.0208
13488SOL    HW241707   4.593   0.443   4.031 -0.6586 -0.5496 -0.5903
13489SOL     OW41708   2.137   5.857   0.460  0.2935  0.2891 -0.7897
13489SOL    HW141709   2.170   5.777   0.501  0.0695  1.0506  0.9548
13489SOL    HW241710   2.055   5.831   0.418  0.8226 -0.6403 -1.2561
13490SOL     OW41711   0.165   8.245   4.782 -0.0419  0.3762 -0.0298
13490SOL    HW141712   0.169   8.150   4.782 -3.1884  0.1886  2.3050
13490SOL    HW241713   0.096   8.266   4.719 -0.4805  1.0340  0.6602
13491SOL     OW41714   5.869   0.269   1.028 -0.3425  0.1459  0.2315
13491SOL    HW141715   5.894   0.306   1.113 -0.9191 -0.4277  0.6567
13491SOL    HW241716   5.812   0.196   1.050 -1.6681  0.8761 -0.6928
13492SOL     OW41717   7.466   1.548   0.536  0.5261  0.0267 -0.2807
13492SOL    HW141718   7.411   1.483   0.580 -1.9426  2.3786  0.1772
13492SOL    HW241719   7.519   1.586   0.606 -0.8612  1.2743  0.1003
13493SOL     OW41720   5.366   4.974   5.256 -0.1964  0.3112 -0.2731
13493SOL    HW141721   5.431   5.045   5.255  1.2722 -1.0010 -1.6175
13493SOL    HW241722   5.356   4.948   5.164 -2.1106  0.0124 -0.0041
13494SOL     OW41723   4.826   1.935   1.852  0.3136  0.2646  0.0244
13494SOL    HW141724   4.841   2.029   1.839  1.9760 -0.1193 -0.8409
13494SOL    HW241725   4.868   1.915   1.935  1.1460  0.0012 -0.4618
13495SOL     OW41726   0.919   5.905   0.670 -0.1847  0.5640  0.9910
13495SOL    HW141727   0.853   5.860   0.724  0.3754 -0.7678  0.5960
13495SOL    HW241728   0.981   5.941   0.733 -0.7019  0.8944  1.3203
13496SOL     OW41729   0.194   5.025   2.547  0.2938 -0.3123  0.4799
13496SOL    HW141730   0.222   5.028   2.456 -0.9692 -0.3575  0.0689
13496SOL    HW241731   0.213   5.113   2.581 -1.7201  0.6120 -0.6324
13497SOL     OW41732   4.000   3.437   4.857  0.0534  0.3337  0.0762
13497SOL    HW141733   3.956   3.459   4.775  2.8226  0.4328 -1.4416
13497SOL    HW241734   4.085   3.481   4.852  0.7391 -0.5962  2.4971
13498SOL     OW41735   2.088   1.216   4.815  0.2400  0.3321  0.4126
13498SOL    HW141736   2.125   1.189   4.731  1.0697 -0.5468  1.0596
13498SOL    HW241737   2.008   1.165   4.824 -1.0102  1.9810 -0.8233
13499SOL     OW41738   3.680   2.817   6.767 -0.3682  0.2306 -0.0270
13499SOL    HW141739   3.763   2.849   6.734 -0.5204  1.5080  0.7696
13499SOL    HW241740   3.665   2.867   6.847 -0.6678 -1.8028  1.2340
13500SOL     OW41741   4.615   2.729   4.898  0.4742 -0.0335  0.3070
13500SOL    HW141742   4.622   2.722   4.802  0.8478 -0.2251  0.3496
13500SOL    HW241743   4.588   2.641   4.926 -1.3495  0.4768  0.2162
13501SOL     OW41744   3.905   2.427   0.100 -0.3534  0.0462 -0.3033
13501SOL    HW141745   3.895   2.446   0.006  1.7012  0.5061 -0.4651
13501SOL    HW241746   3.917   2.513   0.140  1.0496 -0.2944  0.0529
13502SOL     OW41747   0.335   1.533   6.016  0.0648  0.2199 -0.4703
13502SOL    HW141748   0.259   1.574   5.976 -0.4202 -0.6807 -0.4931
13502SOL    HW241749   0.348   1.452   5.966  0.6620  0.0612 -0.0752
13503SOL     OW41750   5.132   6.181   0.075  0.1314  0.3783 -0.1316
13503SOL    HW141751   5.065   6.190   0.007 -1.6295  0.1773  1.5448
13503SOL    HW241752   5.215   6.195   0.029 -1.0685  0.8950 -2.1845
13504SOL     OW41753   3.473   3.858   7.238  0.4196 -0.0066 -0.2420
13504SOL    HW141754   3.528   3.926   7.278  0.8479 -0.0232 -0.7964
13504SOL    HW241755   3.516   3.776   7.262  0.4844 -0.0335 -0.4539
13505SOL     OW41756   2.772   7.729   6.216 -0.0159 -0.2403  0.2097
13505SOL    HW141757   2.728   7.711   6.132  1.3782  2.1481 -1.0728
13505SOL    HW241758   2.712   7.789   6.261  1.0655  1.6784 -0.8289
13506SOL     OW41759   3.606   5.330   3.882 -0.1918 -0.8036 -0.0324
13506SOL    HW141760   3.533   5.307   3.823 -1.1193 -2.2993  1.6474
13506SOL    HW241761   3.586   5.284   3.963  0.5727  1.9745  1.8004
13507SOL     OW41762   5.092   6.363   1.538 -0.1294 -0.2316 -0.1139
13507SOL    HW141763   5.187   6.369   1.543 -0.0192 -1.1181 -0.9354
13507SOL    HW241764   5.065   6.446   1.499  0.3162 -0.0007  0.0735
13508SOL     OW41765   3.905   6.644   6.102  0.1011 -0.4582 -0.6262
13508SOL    HW141766   3.861   6.723   6.133  1.9735  0.3986 -0.0921
13508SOL    HW241767   3.860   6.572   6.147  0.6746  0.5388  1.5933
13509SOL     OW41768   2.785   7.249   0.168 -0.1957 -0.1049  0.1161
13509SOL    HW141769   2.762   7.244   0.075 -1.3649 -0.1690  0.4032
13509SOL    HW241770   2.881   7.252   0.169 -0.1880  0.3815 -1.1137
13510SOL     OW41771   3.748   0.515   6.054  0.8951  0.0525 -0.0826
13510SOL    HW141772   3.771   0.534   6.145  1.4674  1.8690 -0.5865
13510SOL    HW241773   3.832   0.504   6.009  0.6610  1.1597 -0.7960
13511SOL     OW41774   5.914   3.713   5.268 -0.2921 -0.5987 -0.1425
13511SOL    HW141775   5.930   3.632   5.316  2.5454 -0.6631 -1.0833
13511SOL    HW241776   5.920   3.782   5.334 -0.9483 -1.0098  0.3537
13512SOL     OW41777   4.502   4.422   8.048  0.1599  0.5820 -0.3372
13512SOL    HW141778   4.494   4.367   8.126  2.3511 -0.3144 -0.7042
13512SOL    HW241779   4.505   4.512   8.082  2.3022  0.1343  0.7333
13513SOL     OW41780   4.642   2.509   4.720 -0.5540 -0.2820  0.8232
13513SOL    HW141781   4.721   2.508   4.665 -0.7864  1.3524  0.4227
13513SOL    HW241782   4.572   2.482   4.662 -0.5886  0.1739  0.6454
13514SOL     OW41783   4.172   1.699   3.979  0.6189 -0.1311 -0.0636
13514SOL    HW141784   4.201   1.767   3.919 -2.4763  1.2916 -0.0377
13514SOL    HW241785   4.097   1.659   3.936 -1.0508  0.2668  2.3640
13515SOL     OW41786   1.030   7.972   1.574  0.3901  0.6381  0.0913
13515SOL    HW141787   1.116   7.931   1.584  0.6518  1.1854  0.1063
13515SOL    HW241788   0.973   7.926   1.636  0.5126 -0.1809 -0.4088
13516SOL     OW41789   1.727   5.555   7.911 -0.5097  0.3468 -0.0196
13516SOL    HW141790   1.746   5.488   7.846 -1.3867  0.7786 -0.7389
13516SOL    HW241791   1.634   5.542   7.933 -0.5685  1.0397  0.1653
13517SOL     OW41792   2.436   0.915   1.711 -0.5447 -0.1131  0.2157
13517SOL    HW141793   2.442   0.999   1.757 -2.2542  0.1639 -0.0286
13517SOL    HW241794   2.480   0.852   1.768 -1.6503  0.4412  1.6770
13518SOL     OW41795   6.091   4.767   4.285  0.0301  0.0212 -0.0345
13518SOL    HW141796   6.144   4.745   4.208  0.2393  2.2626 -0.5729
13518SOL    HW241797   6.146   4.741   4.359  0.7115 -0.2582 -0.6230
13519SOL     OW41798   1.366   1.301   5.438 -0.4436  0.4312  0.4758
13519SOL    HW141799   1.423   1.224   5.436 -1.7340 -0.5966  1.7919
13519SOL    HW241800   1.278   1.266   5.422 -0.9356  1.7721  0.1239
13520SOL     OW41801   5.967   3.158   1.961 -0.0892 -0.1929  0.2983
13520SOL    HW141802   6.043   3.106   1.935  0.3919  0.1406  1.0304
13520SOL    HW241803   6.001   3.223   2.022 -0.7985  0.5915 -0.1228
13521SOL     OW41804   2.334   6.756   5.322  0.2699 -0.0039 -0.4853
13521SOL    HW141805   2.264   6.713   5.273 -1.0966  0.3074  1.1176
13521SOL    HW241806   2.397   6.686   5.341 -0.2880 -0.5824 -0.7550
13522SOL     OW41807   6.061   1.285   2.437 -0.4956  0.1553  0.5810
13522SOL    HW141808   6.148   1.290   2.397  0.1634 -0.9581  1.8496
13522SOL    HW241809   6.063   1.351   2.506  0.2712 -1.6393  2.3212
13523SOL     OW41810   1.336   1.056   0.482 -0.1519  0.1870 -0.5306
13523SOL    HW141811   1.285   1.006   0.418  0.5154 -1.7985  0.4489
13523SOL    HW241812   1.274   1.120   0.518 -1.4000 -0.8604 -0.7999
13524SOL     OW41813   3.038   4.398   3.879  0.6836  0.1884  0.0113
13524SOL    HW141814   2.961   4.382   3.824  0.1466 -1.5219  1.1954
13524SOL    HW241815   3.090   4.319   3.872  1.0103  0.2690  1.3034
13525SOL     OW41816   4.162   2.618   0.373 -0.0166  0.3207 -0.0362
13525SOL    HW141817   4.140   2.668   0.452 -0.6695 -0.9931  0.6426
13525SOL    HW241818   4.248   2.650   0.347  1.8606 -1.6319  3.2657
13526SOL     OW41819   6.538   3.637   8.073  0.7799  0.3336 -0.6727
13526SOL    HW141820   6.576   3.615   7.987 -0.1310 -1.2971 -0.6989
13526SOL    HW241821   6.481   3.712   8.055  0.7690  0.1482 -1.4697
13527SOL     OW41822   6.664   3.901   0.838  0.0298 -0.1445 -0.3669
13527SOL    HW141823   6.685   3.971   0.776 -0.7727  0.3033 -0.1459
13527SOL    HW241824   6.706   3.823   0.802 -0.7161  0.0319 -1.6579
13528SOL     OW41825   8.201   7.488   2.781  0.6950 -0.3896 -0.4698
13528SOL    HW141826   8.110   7.512   2.800 -0.0500 -0.7414 -3.2661
13528SOL    HW241827   8.198   7.393   2.767  1.6379 -0.5150  0.1476
13529SOL     OW41828   3.829   2.520   5.725  0.5691  0.4812  0.3726
13529SOL    HW141829   3.797   2.580   5.657 -1.9561 -2.6965 -1.3792
13529SOL    HW241830   3.916   2.494   5.694  0.7980  1.6100  0.0643
13530SOL     OW41831   3.349   0.406   7.458 -0.0112  0.0674  0.2450
13530SOL    HW141832   3.295   0.475   7.497 -0.1938 -0.1192  0.3216
13530SOL    HW241833   3.366   0.436   7.369 -0.7923 -0.1926  0.0127
13531SOL     OW41834   5.357   6.537   2.212  0.6509 -0.0167 -0.1489
13531SOL    HW141835   5.398   6.452   2.200 -1.2528 -1.3080  2.0095
13531SOL    HW241836   5.407   6.577   2.284 -0.0400 -0.3658  0.5239
13532SOL     OW41837   2.797   1.950   0.900 -0.5060 -0.1958  0.7677
13532SOL    HW141838   2.791   2.005   0.977  0.2142 -0.7030  1.1962
13532SOL    HW241839   2.706   1.927   0.879 -0.7483  0.4782  1.0624
13533SOL     OW41840   0.113   0.220   3.356 -0.1979  0.6653  0.0231
13533SOL    HW141841   0.122   0.268   3.439 -1.9982 -0.2017  0.7440
13533SOL    HW241842   0.023   0.236   3.329  0.1193  0.2121 -1.3327
13534SOL     OW41843   6.035   5.802   3.969  0.1119 -0.0125 -0.6614
13534SOL    HW141844   6.113   5.760   3.933 -0.5794 -2.4552  0.5634
13534SOL    HW241845   5.968   5.788   3.902  0.7635  2.3566 -1.8516
13535SOL     OW41846   3.556   5.459   7.555  0.0665 -0.0584  0.5202
13535SOL    HW141847   3.637   5.469   7.506  0.6490  0.6038  1.6063
13535SOL    HW241848   3.567   5.375   7.601  0.6828  0.6349  1.6624
13536SOL     OW41849   4.137   3.653   0.785  0.2437 -0.3239 -0.1091
13536SOL    HW141850   4.112   3.579   0.841  0.0839 -0.0401  0.1966
13536SOL    HW241851   4.192   3.708   0.840  0.0827 -0.0409 -0.2285
13537SOL     OW41852   2.287   4.898   2.724 -0.4486  0.9308 -0.0304
13537SOL    HW141853   2.200   4.935   2.710 -0.3592  1.7822  1.5495
13537SOL    HW241854   2.272   4.803   2.729 -1.3399  1.0940  0.5098
13538SOL     OW41855   7.648   2.521   3.815 -0.1526 -0.6317  0.2148
13538SOL    HW141856   7.651   2.521   3.720 -0.2136 -0.2199  0.2108
13538SOL    HW241857   7.650   2.614   3.839 -2.7063 -0.6099  0.5153
13539SOL     OW41858   3.857   1.919   5.643  0.4658 -0.2455  0.3069
13539SOL    HW141859   3.820   1.918   5.732  0.9752  1.1958  0.5381
13539SOL    HW241860   3.932   1.859   5.648  0.5343 -0.1165  0.8630
13540SOL     OW41861   2.341   3.704   1.325 -0.1135  0.1022  0.2840
13540SOL    HW141862   2.380   3.639   1.383 -0.3515 -0.2974  0.0034
13540SOL    HW241863   2.315   3.776   1.383  0.8680  0.2942  0.4904
13541SOL     OW41864   5.530   3.961   6.854  0.3111 -0.3093 -0.4892
13541SOL    HW141865   5.624   3.947   6.851  0.5031  1.1200 -1.8959
13541SOL    HW241866   5.498   3.901   6.922  1.9639 -2.1246 -1.2922
13542SOL     OW41867   4.810   2.206   1.959  0.0263  0.1697 -0.0961
13542SOL    HW141868   4.897   2.168   1.944  0.2133  0.9945 -1.2294
13542SOL    HW241869   4.772   2.153   2.030  0.6025 -1.5767 -1.0446
13543SOL     OW41870   6.601   8.044   6.828 -0.0130  0.1068  0.1399
13543SOL    HW141871   6.573   8.134   6.843 -0.6663 -0.3455  1.7253
13543SOL    HW241872   6.529   7.990   6.859  0.8886 -0.9886  0.3866
13544SOL     OW41873   5.074   4.005   1.564  0.2580 -0.6234  0.3491
13544SOL    HW141874   5.114   4.032   1.481 -1.3991 -1.1738 -0.6541
13544SOL    HW241875   5.137   4.031   1.631 -0.5365  4.3015 -0.6682
13545SOL     OW41876   1.877   3.029   1.167 -0.8358  0.1920 -0.1879
13545SOL    HW141877   1.939   3.098   1.187 -0.4064  0.1952 -1.4951
13545SOL    HW241878   1.931   2.951   1.152 -1.1758  0.0494 -0.7086
13546SOL     OW41879   5.605   6.442   6.590  0.4011  0.9408  0.2491
13546SOL    HW141880   5.622   6.494   6.668 -1.4086 -0.7068  1.7886
13546SOL    HW241881   5.614   6.351   6.619  1.1934  0.3162 -1.8278
13547SOL     OW41882   1.780   0.649   4.009 -0.1719  0.6277  0.0697
13547SOL    HW141883   1.718   0.620   4.075  0.6388  0.5663  0.8164
13547SOL    HW241884   1.864   0.613   4.038  0.3201  1.2441 -0.5810
13548SOL     OW41885   0.004   2.971   3.469 -0.1954 -0.2332  0.2134
13548SOL    HW141886  -0.072   3.023   3.444 -0.2965  0.2593  1.5425
13548SOL    HW241887   0.060   2.972   3.391 -1.3048 -0.1710 -0.5915
13549SOL     OW41888   1.047   6.756   0.619  0.3916  0.0440  0.1852
13549SOL    HW141889   1.068   6.819   0.688 -0.4089 -0.0782  0.5430
13549SOL    HW241890   1.061   6.804   0.538  3.2967 -0.4010  0.3648
13550SOL     OW41891   1.034   5.418   2.727  0.5533  0.2117 -0.1997
13550SOL    HW141892   1.098   5.428   2.797  0.9808 -1.1798 -0.3742
13550SOL    HW241893   1.086   5.395   2.650 -0.1567 -1.3403 -0.2537
13551SOL     OW41894   6.434   4.194   2.927  0.0535  0.8381 -0.4588
13551SOL    HW141895   6.472   4.281   2.945  0.9946  0.2289  0.5658
13551SOL    HW241896   6.485   4.134   2.982 -0.0417 -0.4822 -1.7959
13552SOL     OW41897   3.868   2.731   2.028 -0.1604 -0.0940  0.2914
13552SOL    HW141898   3.813   2.653   2.025 -1.3136  0.7078  0.3974
13552SOL    HW241899   3.953   2.699   2.059 -1.0358 -1.0798  1.7204
13553SOL     OW41900   5.158   2.516   5.215  0.3127 -0.9151 -0.0907
13553SOL    HW141901   5.063   2.521   5.228  0.6203 -1.3301  2.4625
13553SOL    HW241902   5.168   2.505   5.121 -2.1976 -1.3580 -0.3432
13554SOL     OW41903   7.440   5.070   3.760  0.1531 -0.2354 -0.2290
13554SOL    HW141904   7.374   5.088   3.694  0.1771  0.0946 -0.1608
13554SOL    HW241905   7.390   5.055   3.841  0.1582 -0.0194 -0.1850
13555SOL     OW41906   5.992   6.173   0.578  0.4588 -0.7363  0.1233
13555SOL    HW141907   5.913   6.210   0.539 -1.3025 -0.1442  3.9753
13555SOL    HW241908   6.055   6.245   0.578  0.1344 -0.4563 -0.7133
13556SOL     OW41909   0.153   6.386   6.861  0.1425 -0.2206  0.2432
13556SOL    HW141910   0.107   6.372   6.944  0.3966 -0.8127  0.2861
13556SOL    HW241911   0.135   6.478   6.839  1.0663  0.2969  1.5678
13557SOL     OW41912   0.358   2.075   7.442  0.2246 -0.5274 -0.4732
13557SOL    HW141913   0.336   2.016   7.514  1.2294 -1.6600 -1.0652
13557SOL    HW241914   0.303   2.152   7.455  1.8913  0.2233  2.7009
13558SOL     OW41915   7.939   1.295   2.610  0.1325  0.3528  0.4341
13558SOL    HW141916   8.018   1.276   2.660 -0.4173  1.9246  1.9428
13558SOL    HW241917   7.898   1.368   2.657 -3.5897 -2.1445  1.2185
13559SOL     OW41918   6.817   7.434   8.295 -0.3562 -0.5570 -0.8197
13559SOL    HW141919   6.788   7.381   8.220 -2.7332 -1.0779  0.4284
13559SOL    HW241920   6.806   7.525   8.265  2.0795 -0.6961 -2.3309
13560SOL     OW41921   1.973   1.432   7.685  0.4970 -0.2793 -0.5133
13560SOL    HW141922   2.048   1.446   7.743  0.0765  2.3270 -0.5468
13560SOL    HW241923   1.902   1.484   7.724 -1.1649 -2.3094 -0.7511
13561SOL     OW41924   6.435   7.727   6.476 -0.1223  0.1913  0.2931
13561SOL    HW141925   6.428   7.709   6.570 -0.7526 -2.0959 -0.1446
13561SOL    HW241926   6.389   7.810   6.463 -0.5402  0.2282  1.9153
13562SOL     OW41927   8.156   2.923   2.677 -0.0985  0.1035 -0.1625
13562SOL    HW141928   8.223   2.868   2.637 -0.8852  0.5468 -2.1651
13562SOL    HW241929   8.102   2.863   2.728  1.2046 -0.4052  0.6409
13563SOL     OW41930   6.205   0.039   1.624  0.2974  0.2662 -0.1043
13563SOL    HW141931   6.203  -0.012   1.705  0.5606  0.4878  0.0395
13563SOL    HW241932   6.227  -0.025   1.556  0.6600  0.1978  0.0814
13564SOL     OW41933   2.249   0.621   3.530  0.2703  0.1040 -0.3377
13564SOL    HW141934   2.153   0.619   3.535  0.3376 -2.7581  0.7764
13564SOL    HW241935   2.267   0.652   3.441 -1.6740  0.3629 -0.6744
13565SOL     OW41936   2.986   2.077   3.227  0.2142  0.1776  0.2357
13565SOL    HW141937   2.969   2.051   3.318 -0.5583 -1.7905 -0.4485
13565SOL    HW241938   2.903   2.115   3.197 -0.8386 -2.8597 -0.8672
13566SOL     OW41939   3.819   5.005   2.046  1.1186  0.2398  0.0272
13566SOL    HW141940   3.788   4.919   2.018  1.4167  0.4670 -1.0098
13566SOL    HW241941   3.829   5.054   1.965  1.8485  0.9494  0.5471
13567SOL     OW41942   2.444   6.529   6.446  0.1597 -0.0951 -0.2524
13567SOL    HW141943   2.368   6.483   6.481  0.1405 -0.0051 -0.1774
13567SOL    HW241944   2.418   6.554   6.357 -1.0585  2.7166  0.8737
13568SOL     OW41945   3.057   3.790   0.733  0.1409  0.1092 -0.6896
13568SOL    HW141946   3.076   3.802   0.826  0.1897 -1.3270 -0.5071
13568SOL    HW241947   3.044   3.696   0.723  1.3647  0.1121 -2.3737
13569SOL     OW41948   4.924   2.240   0.001  0.2055  0.3189 -0.7943
13569SOL    HW141949   4.987   2.173  -0.024  0.7386  1.1074 -1.5820
13569SOL    HW241950   4.839   2.198  -0.010  0.5847 -0.9441  0.8481
13570SOL     OW41951   5.286   0.566   7.864  0.5359  0.6491  0.0491
13570SOL    HW141952   5.322   0.514   7.935 -0.8982 -1.6254 -0.8407
13570SOL    HW241953   5.352   0.563   7.795 -0.0015 -0.9176 -0.4083
13571SOL     OW41954   2.584   1.871   1.198 -0.0246  0.2772 -0.3806
13571SOL    HW141955   2.546   1.887   1.112 -1.0024 -0.9441 -0.2006
13571SOL    HW241956   2.671   1.911   1.195 -0.7640  1.8489 -1.3051
13572SOL     OW41957   3.012   4.964   4.234 -0.9670  0.1486  0.1409
13572SOL    HW141958   3.012   5.043   4.179 -0.5464 -0.4622 -0.7472
13572SOL    HW241959   2.955   4.903   4.187 -1.2443 -0.0948  0.7992
13573SOL     OW41960   3.407   1.201   2.360 -0.0485  0.0999  0.1005
13573SOL    HW141961   3.422   1.290   2.329  0.6539  0.3367  1.0765
13573SOL    HW241962   3.456   1.196   2.443 -1.7367 -0.5661  1.0727
13574SOL     OW41963   1.367   3.406   5.283 -0.8586 -0.4967 -0.2791
13574SOL    HW141964   1.288   3.393   5.335 -0.3127  1.8027  1.2070
13574SOL    HW241965   1.347   3.480   5.226 -0.3425 -0.9842 -1.1096
13575SOL     OW41966   5.532   1.253   7.704  0.5379  0.0167 -0.2698
13575SOL    HW141967   5.499   1.166   7.680  0.3582 -0.1302  0.5048
13575SOL    HW241968   5.546   1.297   7.620  0.3080 -0.6405 -0.6572
13576SOL     OW41969   7.192   2.666   7.773 -0.2351 -0.3269  0.0594
13576SOL    HW141970   7.118   2.609   7.795  0.9929 -1.6313  0.9012
13576SOL    HW241971   7.228   2.628   7.693  0.2237 -0.3803  0.2914
13577SOL     OW41972   7.638   5.446   1.522 -0.5579  0.3179 -0.2622
13577SOL    HW141973   7.554   5.402   1.525 -1.4573  2.1301  3.7288
13577SOL    HW241974   7.701   5.381   1.551 -0.9195 -0.2626 -0.7686
13578SOL     OW41975   1.607   6.545   4.918 -0.1986 -0.3195  0.3671
13578SOL    HW141976   1.585   6.635   4.893  1.1510  0.0426  0.4317
13578SOL    HW241977   1.694   6.552   4.957 -1.4616 -1.1409  3.5392
13579SOL     OW41978   2.799   5.201   1.982  0.1073 -0.4493  0.6041
13579SOL    HW141979   2.766   5.130   1.928  0.1524  0.4087 -0.5765
13579SOL    HW241980   2.817   5.160   2.066 -1.2314 -1.5289  0.3947
13580SOL     OW41981   2.294   6.119   7.286  0.0635 -0.3100  0.3735
13580SOL    HW141982   2.242   6.089   7.211  0.0781 -0.1407  0.2952
13580SOL    HW241983   2.264   6.066   7.359 -0.7808  0.3388  0.5019
13581SOL     OW41984   5.932   6.037   0.136  0.1386 -0.4069 -0.2136
13581SOL    HW141985   6.014   6.010   0.178 -0.4412 -0.8115  0.6806
13581SOL    HW241986   5.902   5.959   0.089  0.8868  0.1048 -1.5536
13582SOL     OW41987   1.678   0.582   2.645 -0.0416  1.1574  0.1504
13582SOL    HW141988   1.613   0.647   2.619  0.0436  0.2683 -2.3723
13582SOL    HW241989   1.759   0.608   2.601 -0.0789 -0.8001 -1.1518
13583SOL     OW41990   5.231   8.303   0.571 -0.8829 -0.2577 -0.2953
13583SOL    HW141991   5.313   8.276   0.530 -0.5068  1.1663 -0.5048
13583SOL    HW241992   5.169   8.310   0.498 -0.8416 -0.0795 -0.3158
13584SOL     OW41993   4.913   4.980   5.133  0.0825 -0.4415 -0.3836
13584SOL    HW141994   4.915   4.958   5.040  1.1172 -2.8727  0.1735
13584SOL    HW241995   4.823   5.005   5.151 -0.3146 -0.8226 -1.8326
13585SOL     OW41996   0.469   6.722   7.617 -0.1023 -0.6331 -0.0767
13585SOL    HW141997   0.528   6.696   7.546 -0.2577  0.4683 -0.6109
13585SOL    HW241998   0.521   6.781   7.672 -0.4143 -0.3996 -0.0300
13586SOL     OW41999   7.134   5.695   5.323  0.1066 -0.1645  0.7813
13586SOL    HW142000   7.133   5.783   5.286 -0.8870 -1.0952 -1.5147
13586SOL    HW242001   7.046   5.660   5.304  0.7600 -1.9400  0.9281
13587SOL     OW42002   5.518   3.508   1.872  0.2901 -0.2370  0.5931
13587SOL    HW142003   5.426   3.507   1.846  0.3590 -1.4196  0.3512
13587SOL    HW242004   5.566   3.494   1.790  0.4970 -4.2331  1.2838
13588SOL     OW42005   7.311   2.566   1.841  0.3213 -0.4184  0.1517
13588SOL    HW142006   7.228   2.530   1.811 -0.6162  0.4147  1.7043
13588SOL    HW242007   7.287   2.645   1.890  2.0782  0.2678 -0.0623
13589SOL     OW42008   0.875   1.256   2.722 -0.1225  0.1994  0.2044
13589SOL    HW142009   0.925   1.335   2.745  0.5630 -0.3964  0.7951
13589SOL    HW242010   0.876   1.203   2.802  0.3266 -0.8757 -0.5052
13590SOL     OW42011   2.040   1.265   5.396 -0.0511  0.2198 -0.6331
13590SOL    HW142012   2.125   1.251   5.355  1.1889  2.1024  1.1814
13590SOL    HW242013   2.000   1.336   5.346  0.1673  0.4727 -0.4488
13591SOL     OW42014   0.585   5.639   1.476 -0.3347  0.1623  0.1494
13591SOL    HW142015   0.609   5.549   1.454  1.1235  1.0177 -1.9254
13591SOL    HW242016   0.620   5.691   1.403 -4.2248  2.0328 -0.4781
13592SOL     OW42017   4.403   8.024   1.931  0.4489 -0.5657 -0.7666
13592SOL    HW142018   4.313   8.047   1.954  0.6783  0.8195 -1.2277
13592SOL    HW242019   4.398   8.000   1.838  0.6852  0.2554 -0.9943
13593SOL     OW42020   2.672   4.778   5.693  0.2183 -0.2156  0.0768
13593SOL    HW142021   2.657   4.713   5.762 -1.9116  0.6133  0.4558
13593SOL    HW242022   2.732   4.735   5.632  0.3042 -1.8436  1.2666
13594SOL     OW42023   4.448   1.152   8.108  0.3437 -0.4291 -0.1312
13594SOL    HW142024   4.513   1.222   8.111  0.8136 -0.9178  2.3039
13594SOL    HW242025   4.390   1.176   8.036  1.3794  1.6848 -0.2897
13595SOL     OW42026   6.873   0.597   5.807  0.3634  0.3109  0.0399
13595SOL    HW142027   6.905   0.514   5.772 -1.6823  0.4169 -2.1581
13595SOL    HW242028   6.912   0.664   5.751  0.1714  0.7254  0.3936
13596SOL     OW42029   6.361   6.524   8.011  0.0531 -0.2414 -0.2851
13596SOL    HW142030   6.430   6.501   8.074  0.1786 -1.3829 -0.8238
13596SOL    HW242031   6.282   6.532   8.065  0.4822  0.4535  0.2505
13597SOL     OW42032   0.675   0.322   0.199  0.3552  0.6107 -0.4797
13597SOL    HW142033   0.745   0.375   0.161 -0.2605  0.2929 -2.0863
13597SOL    HW242034   0.601   0.382   0.208  0.9117  1.0370  1.5502
13598SOL     OW42035   1.092   6.151   4.051 -0.6168  0.1280 -0.5085
13598SOL    HW142036   1.082   6.149   4.146 -2.2600  0.2969 -0.6643
13598SOL    HW242037   1.060   6.066   4.022 -2.2053  0.8990 -1.0810
13599SOL     OW42038   1.572   2.973   1.327  0.3717 -0.0929  0.3493
13599SOL    HW142039   1.577   2.997   1.235 -1.9408  0.0367  0.2296
13599SOL    HW242040   1.562   2.878   1.327  0.0579 -0.0622  0.4356
13600SOL     OW42041   0.760   5.176   1.105 -0.5172  0.1382 -0.1232
13600SOL    HW142042   0.837   5.232   1.105 -0.7760  0.4988 -0.3784
13600SOL    HW242043   0.696   5.223   1.052 -1.0216 -0.0141  0.3451
13601SOL     OW42044   5.414   2.548   6.431  0.1725 -0.1377  0.0915
13601SOL    HW142045   5.353   2.480   6.402 -1.1523  1.0850 -0.0484
13601SOL    HW242046   5.407   2.546   6.527 -0.0524 -0.0268  0.0771
13602SOL     OW42047   6.878   0.303   7.266  0.3362 -0.8602  0.3895
13602SOL    HW142048   6.805   0.331   7.321  0.5266  0.8904 -0.2043
13602SOL    HW242049   6.956   0.333   7.312  0.4728  1.1727 -1.1072
13603SOL     OW42050   5.284   5.258   3.766  0.7673 -0.2964  0.2955
13603SOL    HW142051   5.326   5.269   3.851  0.6813  1.0966  0.1676
13603SOL    HW242052   5.317   5.332   3.714 -1.5634  0.6388  0.0995
13604SOL     OW42053   5.927   3.621   4.786  0.0445  0.0703  0.1854
13604SOL    HW142054   6.009   3.584   4.820  0.1722 -1.1686 -1.4271
13604SOL    HW242055   5.890   3.667   4.861  2.9476  1.9456  0.5592
13605SOL     OW42056   6.128   4.802   6.854  0.0124 -0.0915 -0.4564
13605SOL    HW142057   6.208   4.828   6.809  0.9067  0.3107  1.3169
13605SOL    HW242058   6.154   4.726   6.906 -1.0893 -0.7589 -0.8630
13606SOL     OW42059   5.383   5.689   1.884  0.0978 -0.0253 -0.3890
13606SOL    HW142060   5.474   5.720   1.882 -0.8382  2.8605 -0.8081
13606SOL    HW242061   5.377   5.631   1.808  1.1896  1.0007 -1.2909
13607SOL     OW42062   3.722   0.079   7.191 -0.4702  0.5607  0.8159
13607SOL    HW142063   3.771   0.102   7.270 -0.1038  0.4095  0.6379
13607SOL    HW242064   3.665   0.154   7.175  1.7863  2.0508 -0.6009
13608SOL     OW42065   7.946   7.655   7.341 -0.4115 -0.0206  0.1542
13608SOL    HW142066   7.935   7.703   7.259 -0.4047  1.0592  0.7703
13608SOL    HW242067   7.961   7.565   7.314 -0.3103  0.3369 -1.0357
13609SOL     OW42068   3.668   0.713   4.792  0.3401  0.0036  0.3583
13609SOL    HW142069   3.762   0.703   4.778  0.5067  1.0625  0.6795
13609SOL    HW242070   3.659   0.726   4.886  0.1656  2.8685 -0.0132
13610SOL     OW42071   7.614   0.601   1.297 -0.4651  0.1199 -0.0391
13610SOL    HW142072   7.706   0.575   1.297  0.0390  1.8096  0.6389
13610SOL    HW242073   7.582   0.576   1.211  1.2276  1.4255 -1.0939
13611SOL     OW42074   7.891   1.904   2.894  0.0046 -0.4263  0.1294
13611SOL    HW142075   7.799   1.901   2.871 -0.1992  0.9959  0.6927
13611SOL    HW242076   7.926   1.820   2.866 -1.3820 -0.8285 -0.4171
13612SOL     OW42077   1.726   3.600   6.671 -0.6170  0.4085 -0.0848
13612SOL    HW142078   1.782   3.666   6.711 -1.3339 -0.3353  2.1961
13612SOL    HW242079   1.727   3.527   6.732 -0.3433 -1.4732 -2.2665
13613SOL     OW42080   3.664   4.707   4.830  0.1661 -0.1931 -0.2247
13613SOL    HW142081   3.643   4.716   4.923 -0.0105  0.9911 -0.3700
13613SOL    HW242082   3.583   4.732   4.785  0.4549 -0.1297 -0.7127
13614SOL     OW42083   5.792   0.310   3.018 -0.2391 -1.2822 -0.2985
13614SOL    HW142084   5.883   0.335   3.001 -0.3966 -0.2076  0.4209
13614SOL    HW242085   5.740   0.382   2.983 -0.7750 -1.4766  0.0984
13615SOL     OW42086   0.397   4.096   4.886 -0.2375 -0.2774 -0.1400
13615SOL    HW142087   0.465   4.157   4.916 -0.9931 -0.1999  1.4854
13615SOL    HW242088   0.442   4.040   4.823  0.8685  0.9407 -0.4731
13616SOL     OW42089   1.338   7.195   2.797  0.1202  0.0750 -0.0999
13616SOL    HW142090   1.309   7.258   2.732  0.1522 -0.5385 -0.7110
13616SOL    HW242091   1.423   7.165   2.766  0.2737 -0.0003  0.3791
13617SOL     OW42092   0.385   3.334   4.685  0.4466 -0.1021  0.2418
13617SOL    HW142093   0.477   3.307   4.682  0.9699  1.4573  1.4839
13617SOL    HW242094   0.372   3.385   4.605  0.4290 -0.9990 -0.3340
13618SOL     OW42095   3.216   6.540   2.595  0.4133 -0.2723 -0.7200
13618SOL    HW142096   3.289   6.599   2.578 -1.0811  1.6106 -0.8988
13618SOL    HW242097   3.248   6.453   2.573  2.1595  0.6973 -2.0594
13619SOL     OW42098   5.698   4.043   2.717 -0.1551  0.4355  0.1712
13619SOL    HW142099   5.781   4.042   2.670 -0.5107  0.6910 -0.4683
13619SOL    HW242100   5.709   3.979   2.787  0.7588  0.8296  0.3930
13620SOL     OW42101   1.666   4.862   0.803 -0.2497 -0.9406 -1.0482
13620SOL    HW142102   1.747   4.882   0.755 -0.2104 -1.3541 -1.1506
13620SOL    HW242103   1.599   4.914   0.758  0.3602  1.2589  0.4870
13621SOL     OW42104   2.551   5.311   0.589 -0.5879  0.3889  1.0748
13621SOL    HW142105   2.623   5.271   0.539 -0.9406 -0.1573  0.9983
13621SOL    HW242106   2.508   5.237   0.632 -0.2306  0.8580  2.2662
13622SOL     OW42107   6.188   7.919   4.698  0.3964  0.5748 -0.2638
13622SOL    HW142108   6.112   7.910   4.756 -1.0849  1.9215 -1.9315
13622SOL    HW242109   6.253   7.858   4.733 -0.2565  1.7146  3.1060
13623SOL     OW42110   2.968   1.780   7.397  0.2359 -0.1110  0.3017
13623SOL    HW142111   2.984   1.791   7.304 -0.4719  1.3811  0.3353
13623SOL    HW242112   3.030   1.713   7.425  2.1767  1.2126 -0.7293
13624SOL     OW42113   7.866   8.150   4.573  0.5557 -0.2878  0.1556
13624SOL    HW142114   7.917   8.077   4.609  0.8598 -0.4049 -0.5016
13624SOL    HW242115   7.915   8.177   4.495  0.5853  0.7958  0.5533
13625SOL     OW42116   2.670   6.714   3.718 -0.0146 -0.2526  0.2085
13625SOL    HW142117   2.652   6.680   3.805 -1.2940  2.2289  0.9610
13625SOL    HW242118   2.607   6.670   3.661  0.0545 -1.0101  0.7116
13626SOL     OW42119   0.698   1.233   5.831  0.3293  0.2902  0.1168
13626SOL    HW142120   0.743   1.185   5.901 -0.7368  0.8336  1.2047
13626SOL    HW242121   0.752   1.310   5.816  0.3203  0.4055  0.6701
13627SOL     OW42122   8.297   2.833   4.247  0.7357  0.0637 -0.3112
13627SOL    HW142123   8.242   2.756   4.260  0.2711  0.5375  0.5698
13627SOL    HW242124   8.239   2.898   4.208  0.1529  1.2049  2.3879
13628SOL     OW42125   2.216   6.188   4.355  0.5335 -0.3099 -0.3670
13628SOL    HW142126   2.198   6.156   4.443  1.9563 -1.0819 -0.3352
13628SOL    HW242127   2.152   6.144   4.299 -0.3492  0.1546  0.2642
13629SOL     OW42128   6.114   2.114   3.607  0.4600 -0.3305  0.5717
13629SOL    HW142129   6.191   2.158   3.573  0.5346  0.2529  1.4789
13629SOL    HW242130   6.041   2.153   3.560  0.6596 -0.3941  0.2076
13630SOL     OW42131   6.823   5.474   1.063  0.0998 -0.8756 -0.4709
13630SOL    HW142132   6.814   5.382   1.037 -2.0954 -0.1445 -2.4399
13630SOL    HW242133   6.799   5.524   0.985 -0.1329  1.3713  0.9939
13631SOL     OW42134   0.874   0.749   3.205 -0.8156  0.2442  0.0336
13631SOL    HW142135   0.898   0.837   3.235 -1.0022  1.3438 -2.9146
13631SOL    HW242136   0.794   0.728   3.254 -0.6416  1.6149  0.9228
13632SOL     OW42137   2.198   3.633   5.885 -0.1881  0.5668  0.7333
13632SOL    HW142138   2.282   3.594   5.858 -0.4145 -0.3687  1.3254
13632SOL    HW242139   2.221   3.718   5.921  0.2363  1.3441 -1.3574
13633SOL     OW42140   1.221   4.147   6.982  0.1950 -0.3193  0.3021
13633SOL    HW142141   1.182   4.060   6.992 -0.2625 -0.1695 -0.1589
13633SOL    HW242142   1.152   4.200   6.942  0.9050 -0.0844 -0.6376
13634SOL     OW42143   3.947   7.115   1.956  0.2520 -0.2137 -0.0743
13634SOL    HW142144   3.967   7.043   2.015  0.4085  0.4502  0.6892
13634SOL    HW242145   4.021   7.176   1.967 -0.0892  0.2628 -0.3885
13635SOL     OW42146   0.486   0.118   0.845  0.2745  0.1688  0.0658
13635SOL    HW142147   0.577   0.123   0.817 -0.0430 -0.1072 -1.0465
13635SOL    HW242148   0.487   0.144   0.937  1.4067  0.6273 -0.0742
13636SOL     OW42149   3.725   4.361   4.272 -0.6145  0.2003 -0.2807
13636SOL    HW142150   3.719   4.266   4.267 -2.4931  0.2620  0.4672
13636SOL    HW242151   3.696   4.392   4.187  2.1449  0.0552 -1.3158
13637SOL     OW42152   3.592   4.392   5.164  0.2264 -0.0113 -0.0241
13637SOL    HW142153   3.636   4.310   5.141  0.7130  0.2607 -0.0466
13637SOL    HW242154   3.565   4.430   5.081 -2.4306 -1.4915  0.0896
13638SOL     OW42155   6.813   7.287   6.884 -0.1139  0.0846 -0.3071
13638SOL    HW142156   6.878   7.354   6.862 -0.8016  1.2627  1.1510
13638SOL    HW242157   6.736   7.336   6.910 -1.2189 -1.3104 -0.9156
13639SOL     OW42158   1.833   4.820   3.264  0.2272 -0.2263  0.0394
13639SOL    HW142159   1.866   4.731   3.257  2.5523  0.6335 -0.7454
13639SOL    HW242160   1.909   4.871   3.294 -0.0604  2.0251 -2.7722
13640SOL     OW42161   7.373   1.965   3.522 -0.9526  0.3170 -0.5518
13640SOL    HW142162   7.340   1.875   3.529 -1.4075  0.5978  1.2095
13640SOL    HW242163   7.465   1.955   3.498 -0.6875 -0.6567  0.8190
13641SOL     OW42164   5.562   4.982   1.720  0.1914 -0.6688  0.1747
13641SOL    HW142165   5.557   4.919   1.648  0.0219 -1.3526  0.7769
13641SOL    HW242166   5.486   5.039   1.707 -0.5823 -1.6017  0.5607
13642SOL     OW42167   3.685   0.016   0.106 -0.2250 -0.1380 -0.0201
13642SOL    HW142168   3.592   0.001   0.123 -0.7777  2.4075 -0.4953
13642SOL    HW242169   3.697  -0.012   0.015 -0.1093 -2.1195  0.5960
13643SOL     OW42170   3.044   5.864   6.200 -0.8082 -0.3242 -0.1117
13643SOL    HW142171   3.114   5.929   6.203  0.4039 -1.5438 -1.1437
13643SOL    HW242172   2.965   5.914   6.182  0.1638  0.8290 -1.2794
13644SOL     OW42173   1.495   1.451   5.252  0.4056 -0.7267 -0.0715
13644SOL    HW142174   1.446   1.413   5.325  1.1341  0.5782  1.1256
13644SOL    HW242175   1.428   1.496   5.200  0.2847  1.0532  1.5611
13645SOL     OW42176   3.499   6.496   4.860 -0.4494  0.3905 -0.2098
13645SOL    HW142177   3.550   6.550   4.800  0.5618  0.0701  0.3576
13645SOL    HW242178   3.544   6.505   4.944 -1.2512 -0.0006  0.2641
13646SOL     OW42179   4.360   0.059   2.326 -0.1102  0.7628  0.4988
13646SOL    HW142180   4.424  -0.011   2.336 -0.3229  0.6165  0.8216
13646SOL    HW242181   4.294   0.042   2.393 -0.9173  0.4471 -0.3727
13647SOL     OW42182   5.204   1.286   6.267  0.1245 -0.3894  0.1294
13647SOL    HW142183   5.249   1.203   6.252  2.4549  0.5118  1.8339
13647SOL    HW242184   5.241   1.319   6.349 -2.5781  1.1370  0.8055
13648SOL     OW42185   3.498   2.021   2.463  0.3683 -0.2455 -0.6778
13648SOL    HW142186   3.501   1.926   2.473  2.1655 -0.2122 -0.6501
13648SOL    HW242187   3.417   2.047   2.506  0.4350 -1.6569  0.3568
13649SOL     OW42188   2.381   4.458   7.022  0.5681 -0.3031 -0.3530
13649SOL    HW142189   2.307   4.491   7.073 -1.1169 -2.1971 -1.4834
13649SOL    HW242190   2.458   4.493   7.067 -1.0032  2.5775  0.2302
13650SOL     OW42191   7.189   7.403   5.688  0.1574 -0.1373 -0.5024
13650SOL    HW142192   7.136   7.440   5.617 -1.0144 -2.1204 -0.7254
13650SOL    HW242193   7.127   7.348   5.736  1.2219  0.2840  1.3804
13651SOL     OW42194   3.752   8.300   3.172  0.1733  0.3265  0.1666
13651SOL    HW142195   3.752   8.275   3.265 -0.4093 -0.8058 -0.1339
13651SOL    HW242196   3.672   8.353   3.162  0.2693  0.5021  0.3174
13652SOL     OW42197   8.076   4.942   1.791 -0.1289  0.0722 -0.1451
13652SOL    HW142198   7.999   4.919   1.844  1.0728  0.0351  1.6497
13652SOL    HW242199   8.048   5.015   1.737 -1.6202 -0.3724  0.0061
13653SOL     OW42200   5.690   6.115   4.798 -0.3017  0.1743  0.0270
13653SOL    HW142201   5.714   6.182   4.735  1.3085  0.1972  0.6389
13653SOL    HW242202   5.708   6.154   4.884 -1.4577 -0.2358  0.4682
13654SOL     OW42203   7.753   1.194   4.148  0.5628 -0.4671  0.1022
13654SOL    HW142204   7.809   1.252   4.097  1.6172  0.2357  2.0109
13654SOL    HW242205   7.669   1.240   4.154  0.6358 -0.2634 -0.4617
13655SOL     OW42206   6.783   0.290   6.983 -0.2709 -0.1619 -0.3232
13655SOL    HW142207   6.825   0.292   7.069 -1.5947  0.4845  0.3223
13655SOL    HW242208   6.738   0.205   6.980 -0.4274 -0.0818 -0.2708
13656SOL     OW42209   6.477   7.287   7.093  0.2936  0.6401  0.1723
13656SOL    HW142210   6.493   7.195   7.070  1.9409  1.2889 -1.3977
13656SOL    HW242211   6.506   7.295   7.184 -0.7926 -0.6099  0.6490
13657SOL     OW42212   3.240   7.131   3.047  0.3598 -0.1422  0.3023
13657SOL    HW142213   3.243   7.044   3.007  1.8342 -0.7723  1.7338
13657SOL    HW242214   3.317   7.176   3.014  0.6090 -0.0350  1.0145
13658SOL     OW42215   7.444   0.612   5.590  0.0712  0.6558  0.1874
13658SOL    HW142216   7.500   0.569   5.654 -0.7895 -0.1206  0.4228
13658SOL    HW242217   7.500   0.678   5.550  0.4176  1.5877  2.1877
13659SOL     OW42218   1.005   5.856   1.366  0.2642 -0.4740 -0.5229
13659SOL    HW142219   0.988   5.947   1.393 -2.3624 -0.9056 -0.5697
13659SOL    HW242220   0.985   5.855   1.273  3.1561 -0.4561 -1.1751
13660SOL     OW42221   5.843   8.029   4.876 -0.2906 -0.2218  0.1157
13660SOL    HW142222   5.830   7.935   4.862 -0.0430 -0.0484 -1.3040
13660SOL    HW242223   5.894   8.035   4.957 -1.6887 -1.2440  1.0924
13661SOL     OW42224   3.115   4.131   0.919 -0.3255 -0.2643 -0.1886
13661SOL    HW142225   3.118   4.048   0.967  2.2216  0.3955  0.8752
13661SOL    HW242226   3.204   4.144   0.888 -1.0341  1.3698 -1.6122
13662SOL     OW42227   5.242   0.810   3.423 -0.1325  0.1881 -0.3334
13662SOL    HW142228   5.215   0.727   3.384 -1.7824 -0.1988  1.5967
13662SOL    HW242229   5.329   0.792   3.459  0.0017 -0.3597 -0.9101
13663SOL     OW42230   4.498   4.409   6.822 -0.5059 -0.1965  0.8026
13663SOL    HW142231   4.535   4.331   6.863  0.2640 -1.3281 -1.9644
13663SOL    HW242232   4.499   4.475   6.891 -0.7145 -2.4640  3.0565
13664SOL     OW42233   2.163   3.292   1.363 -0.1645  0.0206 -0.2369
13664SOL    HW142234   2.213   3.292   1.282  1.2065 -1.8291  0.5653
13664SOL    HW242235   2.184   3.375   1.405 -1.3342  1.2617 -1.9949
13665SOL     OW42236   5.172   6.231   8.010  0.0828  0.5697 -0.0984
13665SOL    HW142237   5.268   6.230   8.015  0.0083 -0.6282  1.7493
13665SOL    HW242238   5.147   6.141   8.029 -1.3500  0.3389 -2.8407
13666SOL     OW42239   5.076   6.762   5.584  0.1323  0.3633  0.1073
13666SOL    HW142240   5.028   6.752   5.667  0.4178  0.2774  0.2654
13666SOL    HW242241   5.167   6.744   5.608  0.3308  1.1258 -0.0622
13667SOL     OW42242   3.077   2.052   4.575  0.4902  0.3062  0.5734
13667SOL    HW142243   3.148   2.101   4.617  0.6344 -1.0996  2.0279
13667SOL    HW242244   2.999   2.104   4.593  0.8543  0.7841  0.8073
13668SOL     OW42245   0.900   5.986   6.867 -0.1904 -0.3336 -0.1215
13668SOL    HW142246   0.912   6.045   6.941 -1.7289 -1.3606  0.9754
13668SOL    HW242247   0.971   5.923   6.875  0.3951  0.3032 -0.2646
13669SOL     OW42248   2.621   3.736   6.315  0.1139  0.2543  0.1586
13669SOL    HW142249   2.664   3.792   6.379 -1.3840 -1.4733  2.7715
13669SOL    HW242250   2.527   3.755   6.327 -0.1598  0.3773 -1.9998
13670SOL     OW42251   7.367   1.227   8.071 -0.4419  0.4164 -0.1951
13670SOL    HW142252   7.405   1.272   7.996  0.4103 -0.0970 -0.0908
13670SOL    HW242253   7.318   1.294   8.118 -1.8041  0.5146 -1.7458
13671SOL     OW42254   4.650   7.540   3.327 -0.4009  0.6964  0.0809
13671SOL    HW142255   4.612   7.568   3.411 -0.3576  0.3313  0.2220
13671SOL    HW242256   4.574   7.526   3.270 -0.5140 -0.5414  0.5208
13672SOL     OW42257   2.291   5.014   2.160  0.1792 -0.3575 -1.0395
13672SOL    HW142258   2.304   5.044   2.250  0.3195 -0.4529 -1.0271
13672SOL    HW242259   2.256   4.925   2.169 -1.2663  0.1924 -1.0633
13673SOL     OW42260   1.492   6.132   1.539  0.1244 -0.7289 -0.3905
13673SOL    HW142261   1.552   6.104   1.608  0.7518 -0.6249 -0.8918
13673SOL    HW242262   1.460   6.217   1.568 -0.3654 -1.1215  0.2400
13674SOL     OW42263   3.317   2.687   3.901 -0.0552 -0.3160 -0.6240
13674SOL    HW142264   3.385   2.685   3.834 -1.1720  0.2567 -1.7840
13674SOL    HW242265   3.328   2.771   3.944  0.2601 -0.4195 -0.4973
13675SOL     OW42266   5.842   3.590   7.860 -0.2697  0.0221 -0.0060
13675SOL    HW142267   5.929   3.607   7.896  0.0368  2.7646 -1.9031
13675SOL    HW242268   5.783   3.648   7.908 -0.3892  1.1410 -1.4533
13676SOL     OW42269   5.045   2.019   5.297 -0.2141 -0.4692 -0.8529
13676SOL    HW142270   4.981   2.068   5.245 -0.8410 -0.7831 -0.3786
13676SOL    HW242271   5.000   1.999   5.379  0.2673 -1.2543 -0.7740
13677SOL     OW42272   4.930   0.275   7.888  0.1848 -0.0031  0.1958
13677SOL    HW142273   4.868   0.302   7.820 -0.0574 -1.7871 -0.3249
13677SOL    HW242274   4.937   0.351   7.946 -0.5981  1.0929 -1.1005
13678SOL     OW42275   0.416   5.047   1.115 -0.3189  0.2209 -0.6515
13678SOL    HW142276   0.438   5.047   1.022 -1.1313 -0.6938 -0.8472
13678SOL    HW242277   0.496   5.016   1.158 -0.5188 -1.0941 -1.1995
13679SOL     OW42278   4.892   0.467   2.026 -0.0538 -0.2010 -0.5616
13679SOL    HW142279   4.932   0.494   2.108  1.3955 -4.3921  0.2364
13679SOL    HW242280   4.824   0.404   2.052 -0.0823 -1.0116 -2.4903
13680SOL     OW42281   1.811   6.046   2.067 -0.3576  0.2703 -0.4892
13680SOL    HW142282   1.796   5.952   2.076  1.3762 -0.0894 -1.1174
13680SOL    HW242283   1.854   6.072   2.148  2.1393 -0.1496 -1.6260
13681SOL     OW42284   1.980   0.559   5.453  0.3292 -0.0162 -0.1853
13681SOL    HW142285   2.035   0.552   5.375  0.1918 -1.2796 -0.1719
13681SOL    HW242286   1.893   0.579   5.419  0.0994 -1.3732 -0.4080
13682SOL     OW42287   3.004   5.286   1.196  0.2726  0.4727 -0.4042
13682SOL    HW142288   3.057   5.229   1.251  1.3523  1.3604 -0.5127
13682SOL    HW242289   2.950   5.226   1.145 -1.3843 -0.3476  2.2165
13683SOL     OW42290   7.818   4.317   5.725  0.3794  0.5615 -0.1644
13683SOL    HW142291   7.794   4.363   5.645  0.3141 -0.1070 -0.5243
13683SOL    HW242292   7.751   4.342   5.789 -1.4533 -1.5203 -1.2309
13684SOL     OW42293   2.159   2.289   2.942 -0.1114  0.0812  0.1790
13684SOL    HW142294   2.129   2.221   2.882 -2.5509  1.4672 -0.2354
13684SOL    HW242295   2.176   2.364   2.887  2.6353 -0.1536  0.6336
13685SOL     OW42296   7.423   1.828   0.036  0.2337 -0.1218 -0.7114
13685SOL    HW142297   7.350   1.843  -0.024  0.7222 -0.5298 -1.4177
13685SOL    HW242298   7.396   1.870   0.117 -2.5079 -3.5878  0.3002
13686SOL     OW42299   3.597   3.080   3.891  0.7479  0.3523 -0.8373
13686SOL    HW142300   3.525   3.045   3.944  2.7318 -1.2764  0.9060
13686SOL    HW242301   3.569   3.067   3.800 -0.7589 -1.0962 -0.1862
13687SOL     OW42302   6.405   6.099   4.315  0.1438  0.0552  0.0390
13687SOL    HW142303   6.329   6.078   4.369  0.5036 -1.6913 -0.0785
13687SOL    HW242304   6.371   6.102   4.226  0.2497 -1.0886 -0.0535
13688SOL     OW42305   7.161   3.680   8.260 -0.2602  0.0020 -0.0850
13688SOL    HW142306   7.196   3.664   8.172  1.3322  3.2266 -0.1149
13688SOL    HW242307   7.208   3.619   8.316 -0.1376 -0.9677 -1.2076
13689SOL     OW42308   3.854   1.086   1.073  0.7499 -0.7871 -0.4590
13689SOL    HW142309   3.921   1.040   1.124  1.0737  0.1801  0.0069
13689SOL    HW242310   3.776   1.082   1.129  0.4719 -1.7274 -0.9073
13690SOL     OW42311   4.422   4.864   4.223  0.0526  0.2683  0.3727
13690SOL    HW142312   4.513   4.868   4.193  0.4012 -0.6916  1.2571
13690SOL    HW242313   4.374   4.828   4.149  0.4955  0.2421  0.0962
13691SOL     OW42314   7.720   1.530   5.614 -0.9932 -0.2074 -0.1957
13691SOL    HW142315   7.688   1.590   5.546 -0.1669 -0.3966 -0.7524
13691SOL    HW242316   7.803   1.568   5.642 -0.7519 -0.7778 -0.1402
13692SOL     OW42317   2.129   1.940   8.008 -0.0793  0.2534 -0.5269
13692SOL    HW142318   2.213   1.976   8.036 -0.6517 -0.2013  1.8782
13692SOL    HW242319   2.147   1.848   7.987  0.4276  0.6938 -2.1081
13693SOL     OW42320   3.539   6.089   7.905  0.1103 -0.4125  0.0448
13693SOL    HW142321   3.465   6.033   7.881  0.2738 -0.7013  0.2025
13693SOL    HW242322   3.511   6.178   7.884  0.2046 -0.6424 -1.1389
13694SOL     OW42323   3.010   4.327   5.560  0.4282  0.1715 -0.0279
13694SOL    HW142324   3.038   4.341   5.650  0.2698 -0.7570  0.1648
13694SOL    HW242325   2.915   4.328   5.564  0.4207  0.0121 -0.1725
13695SOL     OW42326   0.537   4.474   7.706 -0.2610 -0.0691 -0.1310
13695SOL    HW142327   0.477   4.509   7.642  1.1824 -1.2870 -2.2318
13695SOL    HW242328   0.523   4.527   7.785 -3.1176  0.4734 -0.9575
13696SOL     OW42329   7.233   0.815   5.214  0.4992 -0.0328  0.2952
13696SOL    HW142330   7.282   0.841   5.292  0.5472 -2.3792  1.0787
13696SOL    HW242331   7.297   0.822   5.143  1.3973 -0.9896  0.9855
13697SOL     OW42332   6.824   4.942   4.001 -0.6766  0.1652 -0.0422
13697SOL    HW142333   6.788   4.875   3.942  0.4272 -1.2359  0.8192
13697SOL    HW242334   6.765   5.016   3.993 -3.4735 -1.8542  0.9195
13698SOL     OW42335   3.175   3.172   4.678  0.7260  0.8092  0.6813
13698SOL    HW142336   3.217   3.090   4.703  0.7619  0.7239  0.3396
13698SOL    HW242337   3.192   3.181   4.585  1.3480  1.5685  0.8519
13699SOL     OW42338   0.235   0.626   7.556  0.3121  0.1221 -0.8066
13699SOL    HW142339   0.166   0.582   7.507  0.6785 -1.3986  0.0256
13699SOL    HW242340   0.268   0.693   7.495 -0.5455 -0.4437 -1.9181
13700SOL     OW42341   3.809   8.294   3.919 -0.2710 -0.6229 -0.4862
13700SOL    HW142342   3.764   8.277   4.002  0.2327 -1.7807 -0.4414
13700SOL    HW242343   3.838   8.384   3.926 -0.4620 -0.6248  0.4926
13701SOL     OW42344   7.397   3.141   3.227  0.4586  0.2434  0.2981
13701SOL    HW142345   7.416   3.079   3.298 -1.3823 -1.4479 -0.6407
13701SOL    HW242346   7.467   3.206   3.233  2.1598 -1.6398  1.6362
13702SOL     OW42347   1.226   2.958   8.280 -0.1384  0.2749  0.0985
13702SOL    HW142348   1.144   2.910   8.293 -0.6475  1.1978  0.2763
13702SOL    HW242349   1.284   2.894   8.239 -0.7283 -0.5826  0.5872
13703SOL     OW42350   4.078   1.413   1.990 -0.4750 -0.4057  0.1348
13703SOL    HW142351   4.106   1.340   2.045  1.0767 -1.3179 -1.8062
13703SOL    HW242352   4.018   1.373   1.926 -0.0863  0.1229 -0.5606
13704SOL     OW42353   4.100   7.835   3.794  0.3288  0.0899  0.4377
13704SOL    HW142354   4.020   7.879   3.766  1.8310  4.0794  2.0776
13704SOL    HW242355   4.170   7.886   3.754  2.1846  0.0691  3.5673
13705SOL     OW42356   4.741   8.193   7.134 -0.3193 -0.2715  0.3114
13705SOL    HW142357   4.700   8.190   7.048 -1.4850  1.0084  0.8029
13705SOL    HW242358   4.774   8.104   7.148 -0.2949 -0.5373 -1.3620
13706SOL     OW42359   6.120   8.249   2.042 -0.2976  0.0652  0.2226
13706SOL    HW142360   6.041   8.269   1.992  0.4988 -0.6084 -1.3254
13706SOL    HW242361   6.089   8.192   2.113 -1.4551  1.1794  0.6467
13707SOL     OW42362   2.614   3.252   5.204 -0.3347 -0.3905 -0.2017
13707SOL    HW142363   2.545   3.202   5.160 -0.7221 -0.4233  0.4342
13707SOL    HW242364   2.572   3.289   5.282  0.4788 -0.8058  0.4537
13708SOL     OW42365   6.342   7.621   7.812  0.0883 -0.4262 -0.0979
13708SOL    HW142366   6.359   7.534   7.776 -0.3073  0.0892 -1.5618
13708SOL    HW242367   6.249   7.636   7.795 -0.3316 -0.5314  1.9605
13709SOL     OW42368   1.011   4.839   2.190  0.2897 -0.6659  0.8209
13709SOL    HW142369   1.021   4.882   2.106  0.6144 -1.8546  0.2448
13709SOL    HW242370   1.066   4.890   2.250 -0.4046  0.5268  0.4538
13710SOL     OW42371   2.611   7.471   0.114 -0.1715 -0.1603 -0.3322
13710SOL    HW142372   2.658   7.389   0.129 -1.7103 -1.8113 -3.9646
13710SOL    HW242373   2.526   7.457   0.157  0.0724  0.0679  0.2236
13711SOL     OW42374   5.479   3.556   6.177 -0.4276 -0.8808 -0.2068
13711SOL    HW142375   5.510   3.644   6.198 -0.4273 -1.3796  2.0112
13711SOL    HW242376   5.521   3.536   6.093 -0.6144  1.2992 -0.8649
13712SOL     OW42377   7.844   8.065   5.494 -0.6790  0.1043 -0.1074
13712SOL    HW142378   7.773   8.119   5.528 -1.7898 -1.0948 -0.4888
13712SOL    HW242379   7.848   7.991   5.554 -0.1250 -0.1139 -0.4174
13713SOL     OW42380   0.666   4.663   1.848 -0.0878 -0.5777  0.0675
13713SOL    HW142381   0.677   4.568   1.855 -1.5889 -0.6798  1.2131
13713SOL    HW242382   0.599   4.674   1.780  0.2791 -0.3208 -0.2557
13714SOL     OW42383   6.185   7.139   1.810  0.0795  0.3770 -0.1730
13714SOL    HW142384   6.143   7.225   1.807 -0.1361  0.2428 -1.3383
13714SOL    HW242385   6.171   7.103   1.722 -1.7703 -1.7509  0.9380
13715SOL     OW42386   6.381   1.921   1.693 -0.3510 -0.5873 -0.3687
13715SOL    HW142387   6.412   2.005   1.658 -1.1237 -0.2187 -0.1804
13715SOL    HW242388   6.289   1.916   1.664 -0.1304 -1.6561 -0.9113
13716SOL     OW42389   5.437   0.472   1.328 -0.3654  0.3387  0.4981
13716SOL    HW142390   5.428   0.453   1.235  0.4333  1.8618  0.0939
13716SOL    HW242391   5.378   0.546   1.343  0.7665  1.1883  0.8262
13717SOL     OW42392   2.932   1.278   5.014  0.2789  0.2650  0.2115
13717SOL    HW142393   2.868   1.348   5.004 -0.6729 -0.6375 -0.0484
13717SOL    HW242394   3.015   1.317   4.986 -0.8715  0.2569 -3.4184
13718SOL     OW42395   4.307   8.232   2.934  0.3242 -1.0403  0.1763
13718SOL    HW142396   4.362   8.259   3.008 -0.2122  0.3569  0.0778
13718SOL    HW242397   4.355   8.262   2.857 -0.5170  0.1077  0.0852
13719SOL     OW42398   4.651   3.756   3.820  0.1473 -0.1052 -0.3884
13719SOL    HW142399   4.565   3.763   3.861 -0.1811 -0.5809 -0.9938
13719SOL    HW242400   4.633   3.728   3.730  0.8345  1.3626 -1.0017
13720SOL     OW42401   0.937   4.231   1.598  0.6818  0.2058  0.2222
13720SOL    HW142402   0.956   4.204   1.508 -2.1559 -0.1119 -0.3262
13720SOL    HW242403   0.915   4.324   1.591  0.3988  0.1667  0.5713
13721SOL     OW42404   1.233   1.084   7.726  0.3735 -0.1931  0.5520
13721SOL    HW142405   1.206   1.115   7.812 -0.4339 -1.5788  0.8123
13721SOL    HW242406   1.156   1.037   7.692  0.7520  0.1558 -0.8283
13722SOL     OW42407   0.613   3.755   1.918  0.5905 -0.2318 -0.0815
13722SOL    HW142408   0.629   3.831   1.975  1.8402 -1.3002  1.0188
13722SOL    HW242409   0.693   3.703   1.924 -0.5001 -1.9861 -0.2856
13723SOL     OW42410   3.657   7.131   1.438  0.7536  0.0886  0.0185
13723SOL    HW142411   3.613   7.054   1.474 -0.8652  1.0748  0.1863
13723SOL    HW242412   3.749   7.104   1.429  0.7057 -1.0276  2.4409
13724SOL     OW42413   0.863   1.475   7.768  0.4029 -0.0191  0.3794
13724SOL    HW142414   0.807   1.552   7.780  1.7817  1.1402 -0.5247
13724SOL    HW242415   0.899   1.485   7.680  0.4198 -1.8309  0.1529
13725SOL     OW42416   2.282   3.825   5.173 -0.0530 -0.0237 -0.3503
13725SOL    HW142417   2.265   3.835   5.080 -1.6711  1.0237  0.0501
13725SOL    HW242418   2.199   3.843   5.216  0.7222 -0.2580  1.3187
13726SOL     OW42419   3.158   5.751   0.312  0.3334  0.0491 -0.3475
13726SOL    HW142420   3.214   5.744   0.389  0.8210  0.5013 -0.6632
13726SOL    HW242421   3.126   5.841   0.313  2.2576  0.7932 -1.9910
13727SOL     OW42422   6.281   4.513   4.174 -0.2644  0.0354  0.0258
13727SOL    HW142423   6.287   4.537   4.266 -2.0481 -0.2730  0.2393
13727SOL    HW242424   6.327   4.429   4.168  0.4031  0.3550  0.4892
13728SOL     OW42425   1.272   3.709   4.142  0.1755  0.8727  0.1180
13728SOL    HW142426   1.184   3.725   4.176  0.2850  0.6859  0.4857
13728SOL    HW242427   1.288   3.616   4.157 -0.0032  0.6538 -0.9770
13729SOL     OW42428   0.745   8.045   2.293  0.2224  0.7029 -0.0490
13729SOL    HW142429   0.663   8.088   2.320  0.6875  0.9807  0.9476
13729SOL    HW242430   0.767   7.988   2.367  2.0396  2.2146  0.5987
13730SOL     OW42431   1.070   5.082   4.920  0.4648 -0.5142 -0.1026
13730SOL    HW142432   1.044   5.173   4.933 -1.2881 -0.9909 -0.1517
13730SOL    HW242433   1.129   5.084   4.844 -1.1961  0.3278 -1.4003
13731SOL     OW42434   3.325   0.146   2.052  0.2253  0.3001 -0.5811
13731SOL    HW142435   3.420   0.158   2.059  0.1413  0.2773  0.7242
13731SOL    HW242436   3.301   0.099   2.131 -0.3500 -3.1953 -2.7349
13732SOL     OW42437   7.800   4.132   5.006  0.0314 -0.2808  0.2139
13732SOL    HW142438   7.726   4.178   4.967  1.0032  0.7954 -0.3725
13732SOL    HW242439   7.836   4.194   5.069 -0.7919 -1.5558  2.0255
13733SOL     OW42440   0.515   1.425   5.067 -0.0851  0.2600 -0.5072
13733SOL    HW142441   0.468   1.424   5.151  0.2596  0.5324 -0.3066
13733SOL    HW242442   0.569   1.347   5.069 -2.5055 -1.5178 -1.8948
13734SOL     OW42443   2.801   5.364   2.815  0.1260  0.4196  0.0152
13734SOL    HW142444   2.795   5.455   2.843 -0.9695 -0.0081  1.1830
13734SOL    HW242445   2.871   5.326   2.869  0.3680  0.4852 -0.2506
13735SOL     OW42446   7.453   1.909   1.454 -0.5033  0.7391  0.1237
13735SOL    HW142447   7.500   1.887   1.534 -1.1075 -1.9994 -0.2063
13735SOL    HW242448   7.497   1.858   1.386 -1.5726  1.0812 -0.8420
13736SOL     OW42449   4.244   0.847   1.620 -0.1237 -0.1279  0.4276
13736SOL    HW142450   4.168   0.874   1.671  0.7710 -0.3314  1.8938
13736SOL    HW242451   4.208   0.808   1.540 -1.4954  2.4329 -0.2397
13737SOL     OW42452   2.781   7.451   4.662 -0.4595 -0.3569 -0.4676
13737SOL    HW142453   2.839   7.521   4.633  1.1844 -2.1835 -1.7315
13737SOL    HW242454   2.719   7.439   4.589 -0.7331 -0.2229 -0.2582
13738SOL     OW42455   0.521   6.135   5.329 -0.8288 -0.8123  0.0562
13738SOL    HW142456   0.474   6.057   5.356  1.0499 -2.0076 -0.0765
13738SOL    HW242457   0.567   6.164   5.408 -1.6218  0.2539  0.1425
13739SOL     OW42458   4.831   2.322   7.183 -0.6822 -0.1915 -0.4073
13739SOL    HW142459   4.803   2.231   7.194 -0.6985 -0.1786 -0.3394
13739SOL    HW242460   4.926   2.318   7.179 -0.6964 -0.2413 -0.6893
13740SOL     OW42461   1.906   7.958   7.442 -0.3721  0.0058 -0.6608
13740SOL    HW142462   1.846   7.884   7.429  0.7153 -0.8314 -0.9677
13740SOL    HW242463   1.940   7.978   7.355  1.6426 -1.1215 -0.1686
13741SOL     OW42464   7.360   5.051   6.598  0.3015  0.2011 -0.2891
13741SOL    HW142465   7.353   4.965   6.639  1.2959 -0.1503 -0.8461
13741SOL    HW242466   7.342   5.113   6.669 -0.3006 -0.4564  0.1428
13742SOL     OW42467   3.739   7.354   4.834  0.1783 -0.1453 -0.3198
13742SOL    HW142468   3.802   7.282   4.820 -0.4965 -0.7042 -0.5014
13742SOL    HW242469   3.789   7.433   4.814  1.4529 -0.4270  1.5768
13743SOL     OW42470   4.334   7.057   2.193 -0.0554  0.5155  0.2453
13743SOL    HW142471   4.404   7.047   2.129 -0.8507  0.4902 -0.6268
13743SOL    HW242472   4.368   7.017   2.273  1.1122  0.9557 -0.0332
13744SOL     OW42473   2.595   6.651   1.963 -0.3450 -0.0115  0.2059
13744SOL    HW142474   2.672   6.709   1.966 -0.1758 -0.2243 -0.0172
13744SOL    HW242475   2.573   6.645   1.870 -1.4152  1.0798  0.3732
13745SOL     OW42476   0.132   0.717   2.014 -0.4135  0.3467  0.1278
13745SOL    HW142477   0.075   0.645   1.988  0.4074 -0.1839 -0.2382
13745SOL    HW242478   0.138   0.772   1.935 -1.8334  1.3630  0.7030
13746SOL     OW42479   3.540   2.495   6.480 -0.5762 -0.4442 -0.3246
13746SOL    HW142480   3.621   2.466   6.437 -1.0674  1.4522 -2.6668
13746SOL    HW242481   3.488   2.415   6.488  0.9306 -1.4282 -0.1508
13747SOL     OW42482   4.485   5.958   0.274 -1.0175  0.5340 -0.7762
13747SOL    HW142483   4.422   5.976   0.204  0.8853  0.4479 -2.5455
13747SOL    HW242484   4.491   5.863   0.277 -0.8829  0.5452 -0.6833
13748SOL     OW42485   5.687   3.353   6.334 -0.3244  0.4373 -0.3371
13748SOL    HW142486   5.604   3.341   6.379 -0.3828  0.0467 -0.5528
13748SOL    HW242487   5.663   3.368   6.242 -0.0573 -1.8173 -0.7958
13749SOL     OW42488   2.250   8.112   5.473  0.2380  0.1969  0.0554
13749SOL    HW142489   2.299   8.175   5.420 -1.5528 -0.5576 -2.5924
13749SOL    HW242490   2.309   8.091   5.545  2.6733  1.4343 -1.5019
13750SOL     OW42491   4.599   7.372   5.866  0.3519  0.5340 -0.6473
13750SOL    HW142492   4.526   7.433   5.861  1.1416  1.5945  0.4437
13750SOL    HW242493   4.673   7.419   5.829  0.7922 -0.0294 -0.4949
13751SOL     OW42494   5.470   0.828   6.735 -0.1076 -0.3303 -0.0193
13751SOL    HW142495   5.401   0.851   6.797  0.5893  0.1191  0.5980
13751SOL    HW242496   5.534   0.899   6.743  1.4297 -1.7697  0.9363
13752SOL     OW42497   2.147   0.320   3.172  0.2868 -0.1012  0.1938
13752SOL    HW142498   2.133   0.226   3.181  3.2198 -0.5539  0.5436
13752SOL    HW242499   2.100   0.359   3.245 -0.0738 -1.3948  0.6605
13753SOL     OW42500   7.352   1.570   1.248 -0.1799  0.2617 -0.3593
13753SOL    HW142501   7.399   1.616   1.317 -0.9000 -2.0648  1.7647
13753SOL    HW242502   7.260   1.593   1.263 -0.2036  0.8878 -1.4460
13754SOL     OW42503   1.934   1.825   1.016  0.0172  0.2322  0.5249
13754SOL    HW142504   2.026   1.847   1.029  0.9760 -2.2279 -1.5543
13754SOL    HW242505   1.912   1.767   1.088  0.9433 -1.3665 -0.4349
13755SOL     OW42506   7.635   1.661   1.411  0.4652  0.1646 -0.6111
13755SOL    HW142507   7.570   1.615   1.465 -0.3845  1.1898 -0.7425
13755SOL    HW242508   7.709   1.600   1.406  0.2699 -0.2558  1.0890
13756SOL     OW42509   1.929   4.764   1.575  0.5560 -0.1304  0.4247
13756SOL    HW142510   1.848   4.719   1.548  1.1379  0.3731 -2.2886
13756SOL    HW242511   1.907   4.803   1.660 -1.6580 -1.0353  0.3195
13757SOL     OW42512   4.342   6.464   5.207  0.5738 -0.2094 -0.0546
13757SOL    HW142513   4.404   6.402   5.167  1.7626 -0.7463  2.5009
13757SOL    HW242514   4.391   6.503   5.279 -1.4469  0.8485  0.7808
13758SOL     OW42515   1.255   2.562   0.115 -0.2677 -0.0530  0.0813
13758SOL    HW142516   1.164   2.562   0.086 -0.3073  0.1564  0.2056
13758SOL    HW242517   1.275   2.470   0.130  0.2590 -0.3297 -2.1682
13759SOL     OW42518   1.213   1.441   2.870  0.1680  0.2464  0.0269
13759SOL    HW142519   1.248   1.518   2.915 -0.7690  1.3463 -1.0944
13759SOL    HW242520   1.247   1.367   2.920  3.0136  1.3014 -0.2721
13760SOL     OW42521   6.142   7.026   3.916 -0.6228 -0.0765  0.5412
13760SOL    HW142522   6.074   7.094   3.919 -1.5445 -0.9891  0.4141
13760SOL    HW242523   6.098   6.947   3.947  1.3307  0.0992  4.1069
13761SOL     OW42524   1.481   2.147   0.535  0.1078  0.1049  0.1993
13761SOL    HW142525   1.512   2.230   0.571  1.9238 -2.0394  3.9625
13761SOL    HW242526   1.396   2.133   0.575  0.6747 -0.7386  1.1390
13762SOL     OW42527   0.440   7.145   4.958 -0.0654 -0.2561 -0.4184
13762SOL    HW142528   0.365   7.113   4.907 -0.5357  1.3209 -0.7395
13762SOL    HW242529   0.424   7.112   5.046 -0.4723 -1.0074 -0.7638
13763SOL     OW42530   3.873   4.578   7.370  0.3601  0.3317  0.7051
13763SOL    HW142531   3.824   4.497   7.383  0.1555  0.3918  0.3202
13763SOL    HW242532   3.962   4.550   7.348  0.1972  0.2075  0.2059
13764SOL     OW42533   2.107   3.341   2.572 -0.3990 -0.2391  0.2763
13764SOL    HW142534   2.118   3.377   2.484 -1.3338  0.4180  0.4265
13764SOL    HW242535   2.114   3.246   2.560 -0.1295 -0.1336 -0.4397
13765SOL     OW42536   1.876   7.659   7.295  0.3260  0.7197  0.1615
13765SOL    HW142537   1.919   7.640   7.212  0.9301  0.8460  0.4368
13765SOL    HW242538   1.828   7.580   7.317 -2.5679  1.7864 -1.9314
13766SOL     OW42539   5.085   5.365   0.404  0.0129  0.1707  0.2248
13766SOL    HW142540   5.129   5.449   0.414  1.9540 -0.6996 -0.6754
13766SOL    HW242541   5.149   5.301   0.434 -0.1274 -1.2354 -2.3499
13767SOL     OW42542   7.792   5.634   3.826 -0.0681 -0.3093  0.1777
13767SOL    HW142543   7.795   5.726   3.852 -0.3209 -0.4449  0.6953
13767SOL    HW242544   7.730   5.633   3.753 -1.1802 -0.2817  1.1027
13768SOL     OW42545   7.309   6.536   1.308 -0.0691  0.0821  0.1688
13768SOL    HW142546   7.288   6.499   1.222  2.1379  0.0753 -0.4037
13768SOL    HW242547   7.268   6.476   1.370 -0.3650 -0.7959 -0.8520
13769SOL     OW42548   7.899   7.773   7.654  0.2908  0.3198 -0.2212
13769SOL    HW142549   7.936   7.857   7.626  1.7420 -0.8214 -1.8313
13769SOL    HW242550   7.876   7.787   7.746 -2.8652  3.5640 -1.4111
13770SOL     OW42551   8.282   7.708   3.676  0.9009 -0.0779 -0.0558
13770SOL    HW142552   8.194   7.744   3.664  1.1914  0.3340 -0.9541
13770SOL    HW242553   8.273   7.616   3.651  0.2811 -0.5265  1.7372
13771SOL     OW42554   4.556   4.175   2.178 -0.1594 -0.3894  0.4475
13771SOL    HW142555   4.620   4.148   2.112 -0.7530 -0.3543 -0.1540
13771SOL    HW242556   4.472   4.164   2.135 -0.6350 -1.6941  1.6866
13772SOL     OW42557   2.738   1.119   4.689  0.1504 -0.2522 -0.2477
13772SOL    HW142558   2.807   1.128   4.755 -0.8682  0.3957  0.7394
13772SOL    HW242559   2.659   1.103   4.739 -0.3793 -1.3198 -1.3901
13773SOL     OW42560   4.402   5.297   7.158  0.8630 -0.3342  0.0140
13773SOL    HW142561   4.419   5.278   7.066  1.2825  0.5675 -0.1036
13773SOL    HW242562   4.349   5.377   7.156  0.2735 -0.7058  0.5328
13774SOL     OW42563   1.952   1.461   5.188 -0.7543  0.0699 -0.2916
13774SOL    HW142564   1.977   1.534   5.245  1.1256  1.8615 -3.2311
13774SOL    HW242565   1.869   1.489   5.150 -0.8079 -0.0249 -0.2434
13775SOL     OW42566   0.325   3.478   6.371  0.2034  0.1405  0.0040
13775SOL    HW142567   0.365   3.505   6.288  0.7551  0.1684  0.2759
13775SOL    HW242568   0.237   3.450   6.347  0.3726  0.1140 -0.5970
13776SOL     OW42569   8.136   4.279   5.368 -0.2872  0.3935 -0.0394
13776SOL    HW142570   8.158   4.368   5.396 -2.3513  0.6300  0.9570
13776SOL    HW242571   8.203   4.256   5.304  0.8226  2.3010  0.4080
13777SOL     OW42572   3.297   6.458   1.820  0.0242 -0.1713  0.2049
13777SOL    HW142573   3.215   6.408   1.820 -0.3410  0.4263  0.8271
13777SOL    HW242574   3.285   6.525   1.887  1.0595 -0.1293  0.3592
13778SOL     OW42575   2.829   3.132   4.266  0.2573  0.6425 -0.4577
13778SOL    HW142576   2.851   3.194   4.197 -3.1323  3.0246  0.4695
13778SOL    HW242577   2.781   3.062   4.221  1.5196  0.1729 -1.0770
13779SOL     OW42578   4.782   1.167   1.796  0.1875  0.2846  0.5338
13779SOL    HW142579   4.702   1.115   1.803 -0.4244  1.1315 -0.0352
13779SOL    HW242580   4.833   1.143   1.874 -1.1397  0.5984  1.5196
13780SOL     OW42581   2.656   6.150   2.467  0.9947  0.1431  0.4180
13780SOL    HW142582   2.580   6.118   2.418  1.6692  0.0774 -0.5832
13780SOL    HW242583   2.638   6.125   2.558  0.7441 -1.6304 -0.0992
13781SOL     OW42584   7.948   3.338   2.143 -0.4191  0.7649 -0.2184
13781SOL    HW142585   7.896   3.260   2.159 -1.1012  1.1557 -0.4928
13781SOL    HW242586   8.036   3.305   2.128 -0.4741  0.1390  0.8016
13782SOL     OW42587   7.179   6.233   0.720 -0.1105  0.5009  0.2850
13782SOL    HW142588   7.238   6.284   0.664  0.0140  1.4342  1.2413
13782SOL    HW242589   7.106   6.292   0.738 -0.2317  0.1484  0.9666
13783SOL     OW42590   8.194   6.215   3.757  0.1527 -0.4049  0.4750
13783SOL    HW142591   8.147   6.233   3.838 -0.4913 -0.2594  0.0732
13783SOL    HW242592   8.167   6.285   3.698  0.5322 -0.5746  0.0960
13784SOL     OW42593   1.132   2.967   1.786 -0.6905 -0.4304  0.3368
13784SOL    HW142594   1.076   2.934   1.856 -0.8502 -0.9379 -0.0193
13784SOL    HW242595   1.211   2.998   1.830 -1.9633  1.9236  1.0209
13785SOL     OW42596   5.868   2.703   5.690  0.2353  0.5387  0.2910
13785SOL    HW142597   5.795   2.680   5.748 -0.7138  1.5617 -0.4740
13785SOL    HW242598   5.939   2.729   5.749  0.0049 -0.5029  1.0395
13786SOL     OW42599   4.565   5.690   7.946 -0.2188 -1.3622  0.4437
13786SOL    HW142600   4.629   5.641   7.998  1.9192  0.4563 -0.3421
13786SOL    HW242601   4.618   5.754   7.898 -2.6870  0.4340 -0.0048
13787SOL     OW42602   1.733   8.105   5.989 -0.4372  0.3440  0.6125
13787SOL    HW142603   1.674   8.169   5.948  2.3209  0.4808 -3.4046
13787SOL    HW242604   1.674   8.042   6.030 -3.2909  2.5823  0.1544
13788SOL     OW42605   0.033   1.787   4.708  0.3820  0.2731  0.0352
13788SOL    HW142606   0.118   1.792   4.664  1.0840  0.8326  1.4464
13788SOL    HW242607   0.046   1.834   4.790 -1.5814  1.2519 -0.1915
13789SOL     OW42608   5.721   7.018   2.291  0.0366 -0.5830 -0.2530
13789SOL    HW142609   5.719   7.053   2.380  0.4464 -0.1893 -0.4005
13789SOL    HW242610   5.629   6.997   2.272 -0.1626  0.1148 -0.0533
13790SOL     OW42611   6.199   6.384   6.102 -0.6345  0.1121  1.0942
13790SOL    HW142612   6.203   6.408   6.195 -0.5757  0.8382  0.9032
13790SOL    HW242613   6.134   6.444   6.065 -0.6519 -0.1755  0.6647
13791SOL     OW42614   7.596   1.045   4.913  0.1743 -0.0336  0.5205
13791SOL    HW142615   7.638   1.022   4.830  0.4962  0.2012  0.6167
13791SOL    HW242616   7.646   0.997   4.979 -0.4888 -0.7393  0.5236
13792SOL     OW42617   0.270   7.080   0.507  0.2034  0.2023  0.1048
13792SOL    HW142618   0.176   7.067   0.492  0.2225 -0.7036  0.7508
13792SOL    HW242619   0.302   6.994   0.535  0.7289  1.0955  2.3731
13793SOL     OW42620   7.737   7.978   6.701  0.0802  0.1296 -0.5161
13793SOL    HW142621   7.744   8.065   6.660  3.4896  0.1878 -0.0226
13793SOL    HW242622   7.745   7.996   6.795  1.6901 -0.7372 -0.4639
13794SOL     OW42623   1.619   6.568   0.376 -0.3340  0.1037  0.4493
13794SOL    HW142624   1.642   6.647   0.327  3.1743 -1.7192 -1.0480
13794SOL    HW242625   1.574   6.512   0.313 -0.0821 -0.3163  0.6379
13795SOL     OW42626   1.190   2.764   6.365 -0.2787 -0.1260 -0.0488
13795SOL    HW142627   1.161   2.685   6.319  0.1388 -0.2885 -0.0375
13795SOL    HW242628   1.121   2.781   6.429 -0.5715 -0.2426 -0.3331
13796SOL     OW42629   3.323   0.871   4.976 -0.3098  0.3372  0.1568
13796SOL    HW142630   3.373   0.792   4.954  0.9631  1.2521 -0.2891
13796SOL    HW242631   3.314   0.868   5.071  3.1008  1.5933  0.5896
13797SOL     OW42632   5.546   2.680   0.785 -0.1076 -0.0424  0.2891
13797SOL    HW142633   5.603   2.638   0.850  1.7459 -0.2569 -1.4400
13797SOL    HW242634   5.509   2.755   0.831  0.4753 -0.6947  1.8700
13798SOL     OW42635   4.641   7.253   7.306 -0.2356 -0.5301  0.7530
13798SOL    HW142636   4.577   7.259   7.376  1.3045 -1.1763  2.2562
13798SOL    HW242637   4.656   7.159   7.296 -1.6213 -0.5345 -1.5587
13799SOL     OW42638   2.959   4.549   1.973 -0.4863  0.4273 -0.2741
13799SOL    HW142639   2.995   4.588   2.052  0.7005  1.3537 -1.2502
13799SOL    HW242640   3.020   4.478   1.952 -0.7249  0.2695 -0.4386
13800SOL     OW42641   3.605   2.599   7.454  0.7792  1.0223  0.2136
13800SOL    HW142642   3.595   2.545   7.376 -0.0542  0.2549  0.8431
13800SOL    HW242643   3.607   2.689   7.421  0.7463  0.6854 -0.7130
13801SOL     OW42644   6.378   0.233   7.082 -1.0655  0.6537 -0.3198
13801SOL    HW142645   6.454   0.208   7.029 -1.3321  0.2655 -0.5243
13801SOL    HW242646   6.410   0.230   7.172 -1.4714 -1.9419 -0.2106
13802SOL     OW42647   6.461   1.990   5.292  0.3248  0.2176  0.2863
13802SOL    HW142648   6.485   2.035   5.212  1.0805  0.7050  0.7809
13802SOL    HW242649   6.392   1.929   5.266  0.0405  0.9098 -0.5793
13803SOL     OW42650   1.824   4.823   0.020  0.1520  0.4495  0.0913
13803SOL    HW142651   1.835   4.918   0.025 -0.8297  0.6244 -0.8869
13803SOL    HW242652   1.887   4.795  -0.047  0.5155  0.3922  0.4543
13804SOL     OW42653   1.326   7.766   1.079  0.6649  0.1315 -0.0821
13804SOL    HW142654   1.392   7.768   1.149  1.8790 -3.2914 -1.0576
13804SOL    HW242655   1.371   7.730   1.004 -1.2575  1.6563 -2.0321
13805SOL     OW42656   4.893   3.232   5.248 -0.1088 -0.0736  0.2809
13805SOL    HW142657   4.945   3.300   5.204  1.3157 -0.8470  0.7145
13805SOL    HW242658   4.810   3.275   5.268 -0.2586  0.7148 -1.8797
13806SOL     OW42659   0.225   6.154   7.204 -0.6951 -0.1881 -0.2282
13806SOL    HW142660   0.253   6.063   7.200 -1.2301 -0.3626 -0.0931
13806SOL    HW242661   0.178   6.161   7.288  0.7525  0.6169  0.5351
13807SOL     OW42662   1.589   3.209   2.810 -0.3768 -0.2987  0.2499
13807SOL    HW142663   1.577   3.274   2.879  0.2195 -0.0361  0.1145
13807SOL    HW242664   1.668   3.238   2.764 -1.3660  0.1386 -1.2185
13808SOL     OW42665   6.228   3.617   3.557  1.1379 -0.5044  0.2809
13808SOL    HW142666   6.240   3.531   3.598 -1.0024 -0.0052  2.0801
13808SOL    HW242667   6.222   3.677   3.631 -2.0562  0.5514 -0.7453
13809SOL     OW42668   4.764   5.945   5.130  0.1554 -0.1196 -0.0334
13809SOL    HW142669   4.761   5.984   5.042 -2.3140  2.0788  0.9729
13809SOL    HW242670   4.764   5.851   5.114 -0.8374  0.2467 -2.4118
13810SOL     OW42671   1.795   0.593   0.621 -0.3702  0.1826 -0.3781
13810SOL    HW142672   1.767   0.680   0.647 -0.9204  0.0485 -0.5201
13810SOL    HW242673   1.725   0.534   0.651  0.0556 -0.2262 -0.1687
13811SOL     OW42674   7.847   8.271   0.013 -0.4479 -0.3173  0.6144
13811SOL    HW142675   7.878   8.317  -0.065  1.0316 -0.4271  1.1252
13811SOL    HW242676   7.764   8.231  -0.014 -1.3915  2.0320 -0.0474
13812SOL     OW42677   4.460   3.760   1.214 -0.0337 -0.1672 -0.1212
13812SOL    HW142678   4.504   3.683   1.179 -1.3290 -0.7219 -0.5536
13812SOL    HW242679   4.509   3.834   1.179  1.9980 -0.8081  1.3272
13813SOL     OW42680   5.737   3.938   8.303 -0.1556  0.0277 -0.1648
13813SOL    HW142681   5.799   3.875   8.267  0.8293  1.2520 -0.6591
13813SOL    HW242682   5.707   3.899   8.386  1.4820 -0.4362  0.2157
13814SOL     OW42683   3.929   1.823   1.488  0.0525  0.2163  0.1771
13814SOL    HW142684   3.972   1.819   1.403  1.2585  1.6993  0.7022
13814SOL    HW242685   3.968   1.751   1.538  0.4870  0.3278 -0.0007
13815SOL     OW42686   3.300   2.439   8.289 -0.7043  0.4483 -0.2809
13815SOL    HW142687   3.367   2.496   8.253  0.6503 -0.2139  1.1586
13815SOL    HW242688   3.218   2.472   8.252  0.2400  2.2053 -0.8414
13816SOL     OW42689   2.511   5.256   1.370  0.0970  0.2497 -0.3762
13816SOL    HW142690   2.442   5.322   1.381 -0.4813 -0.5701  0.9859
13816SOL    HW242691   2.549   5.247   1.457 -1.2132 -2.7275 -0.0564
13817SOL     OW42692   0.321   1.861   2.796  0.0519  0.3539  0.2166
13817SOL    HW142693   0.243   1.825   2.836  1.1230 -1.0705  1.0511
13817SOL    HW242694   0.360   1.916   2.865  0.9407 -0.6734  0.5359
13818SOL     OW42695   2.577   8.049   3.099  0.4481  0.1614 -0.3916
13818SOL    HW142696   2.629   8.010   3.028 -0.0481 -1.7817  0.2764
13818SOL    HW242697   2.613   8.009   3.178 -0.6933  0.3808  0.2376
13819SOL     OW42698   8.266   4.610   6.926 -0.2689 -0.2821 -0.4934
13819SOL    HW142699   8.317   4.563   6.860 -1.2352 -3.4720  0.9664
13819SOL    HW242700   8.328   4.627   6.997  0.3671  1.7539 -1.4927
13820SOL     OW42701   5.961   0.524   0.304 -0.8649  0.0995 -0.3372
13820SOL    HW142702   5.929   0.566   0.383 -0.5697 -0.4221  0.0621
13820SOL    HW242703   6.030   0.466   0.334 -0.8365 -0.1923 -0.9606
13821SOL     OW42704   0.627   5.774   2.835  0.1190  0.1642  0.9759
13821SOL    HW142705   0.584   5.721   2.768 -0.3399  1.1712  0.4620
13821SOL    HW242706   0.702   5.722   2.862 -2.5519 -2.6125  3.4325
13822SOL     OW42707   7.626   8.221   4.643  0.2463  0.1438 -0.1531
13822SOL    HW142708   7.627   8.167   4.722  1.7507  0.0815 -0.2143
13822SOL    HW242709   7.706   8.198   4.597  0.9024  2.3844 -0.1984
13823SOL     OW42710   0.049   7.915   3.293 -0.1786  0.0483  0.5985
13823SOL    HW142711   0.004   7.979   3.238  0.2850 -0.2934 -0.1901
13823SOL    HW242712   0.018   7.933   3.382 -1.1108  0.4606  0.1971
13824SOL     OW42713   5.710   6.021   2.454  0.0053  0.4386  0.3452
13824SOL    HW142714   5.798   6.025   2.492  0.8253  0.6063 -1.4902
13824SOL    HW242715   5.723   6.046   2.362 -1.8728 -0.1152 -0.0881
13825SOL     OW42716   6.944   0.590   6.196  0.2145 -0.0525  0.4832
13825SOL    HW142717   6.920   0.500   6.176  1.2361  0.0044 -1.0777
13825SOL    HW242718   6.968   0.588   6.289  0.3155 -1.4136  0.4387
13826SOL     OW42719   4.930   6.977   6.627 -0.6501 -0.5216 -0.1740
13826SOL    HW142720   5.009   7.020   6.597 -0.6549  0.7004  1.4902
13826SOL    HW242721   4.948   6.883   6.619  0.8933 -0.2421  0.0540
13827SOL     OW42722   5.704   3.092   5.815 -0.2308  0.8057  0.2270
13827SOL    HW142723   5.697   3.182   5.781  0.9857  0.6136 -0.5594
13827SOL    HW242724   5.675   3.037   5.742  0.5880  0.4780  0.1475
13828SOL     OW42725   2.305   4.482   6.761  0.0487  0.2776  0.3654
13828SOL    HW142726   2.381   4.498   6.706 -0.7644 -0.9747 -1.1475
13828SOL    HW242727   2.340   4.482   6.851  2.2869 -2.6915 -0.4245
13829SOL     OW42728   1.365   3.674   1.652 -0.9091 -0.2123  0.1611
13829SOL    HW142729   1.366   3.695   1.559 -0.0307 -1.4209 -0.1164
13829SOL    HW242730   1.341   3.581   1.656 -0.2887 -0.3435  1.0851
13830SOL     OW42731   0.246   2.242   5.529  0.1683 -0.3398  0.5976
13830SOL    HW142732   0.159   2.279   5.546  0.0207  0.5339 -1.8389
13830SOL    HW242733   0.233   2.147   5.532 -0.5812 -0.2111  1.5724
13831SOL     OW42734   1.712   4.082   2.139  1.0233 -0.4149  0.0819
13831SOL    HW142735   1.782   4.116   2.083  1.4048  1.1203  1.4448
13831SOL    HW242736   1.733   4.116   2.226 -2.2605  1.4086  0.2321
13832SOL     OW42737   0.595   0.668   4.361  0.1903  0.7023 -0.3500
13832SOL    HW142738   0.552   0.754   4.351  0.2116  0.7327 -0.1784
13832SOL    HW242739   0.528   0.612   4.399  0.5844  0.9915  0.7876
13833SOL     OW42740   6.032   6.879   4.811  0.3413 -0.6081  0.3505
13833SOL    HW142741   5.970   6.949   4.831 -0.6867 -1.2137 -0.6523
13833SOL    HW242742   6.104   6.922   4.764 -1.1052 -0.4629 -1.8021
13834SOL     OW42743   3.307   1.830   4.024 -0.6362  0.0578 -0.1429
13834SOL    HW142744   3.364   1.755   4.007  0.1516  0.1426  1.9396
13834SOL    HW242745   3.220   1.801   3.997 -0.4446 -1.8538  1.1811
13835SOL     OW42746   7.997   6.761   3.923 -0.1609 -0.2747  0.0342
13835SOL    HW142747   8.003   6.683   3.869  0.7851 -0.5208  0.4763
13835SOL    HW242748   8.063   6.820   3.886 -1.2890  0.5569 -0.6779
13836SOL     OW42749   8.089   8.185   6.861  0.2511  0.2562  0.4513
13836SOL    HW142750   8.123   8.204   6.774  3.6293 -1.6015  1.2726
13836SOL    HW242751   8.111   8.262   6.913  0.5392  0.2858  0.2833
13837SOL     OW42752   4.194   7.050   5.551 -0.2468  0.0694 -0.1094
13837SOL    HW142753   4.209   7.007   5.635 -0.9332  0.1949  0.0776
13837SOL    HW242754   4.280   7.050   5.508  0.3797  1.1167  1.1132
13838SOL     OW42755   1.621   3.749   5.800  0.5466 -0.0488 -0.4564
13838SOL    HW142756   1.572   3.770   5.880  0.7489 -2.5772  0.3618
13838SOL    HW242757   1.699   3.805   5.805 -1.0404  2.2441 -0.5662
13839SOL     OW42758   2.276   5.924   2.456  0.0267  0.1283  0.7748
13839SOL    HW142759   2.270   5.914   2.551  2.0613  0.2515  0.9369
13839SOL    HW242760   2.306   6.015   2.444  0.4917 -0.1215  0.0485
13840SOL     OW42761   2.229   5.165   3.539 -0.0313 -0.3231 -0.4366
13840SOL    HW142762   2.256   5.251   3.572  2.5966 -0.6282 -1.6308
13840SOL    HW242763   2.173   5.185   3.464  1.7040  0.4027 -1.5880
13841SOL     OW42764   3.840   3.907   7.018  0.2248  0.0223 -0.6181
13841SOL    HW142765   3.836   3.967   6.945 -1.4302 -0.2916 -0.8016
13841SOL    HW242766   3.808   3.824   6.983 -1.9420  0.2219  0.7878
13842SOL     OW42767   2.036   0.855   3.980  0.6209 -0.2685 -0.1288
13842SOL    HW142768   2.033   0.766   4.015  0.1424 -0.8369 -1.5421
13842SOL    HW242769   2.046   0.842   3.885  0.0712  1.1835 -0.3921
13843SOL     OW42770   5.034   1.004   7.640  0.0693 -0.0506  0.0533
13843SOL    HW142771   5.054   0.971   7.727  0.7985 -0.4637 -0.2706
13843SOL    HW242772   4.948   1.046   7.649  0.2778  0.1667  1.0330
13844SOL     OW42773   0.668   0.544   4.950 -0.3783  0.9073 -0.0040
13844SOL    HW142774   0.604   0.473   4.951 -1.1133  1.5580  0.0788
13844SOL    HW242775   0.680   0.566   5.043  3.3509 -2.1807  0.3399
13845SOL     OW42776   5.888   7.538   1.791 -0.6230  0.1184  0.5217
13845SOL    HW142777   5.841   7.455   1.777  0.9025 -0.6049 -0.4248
13845SOL    HW242778   5.847   7.575   1.870 -0.9520 -1.8090  1.3008
13846SOL     OW42779   6.838   1.549   3.411  0.5660  1.0890  0.9318
13846SOL    HW142780   6.782   1.476   3.438 -0.0500  0.6412 -1.4985
13846SOL    HW242781   6.779   1.625   3.411  0.1954  0.8117 -0.5887
13847SOL     OW42782   0.175   1.107   2.073 -0.1416 -0.0547 -0.2894
13847SOL    HW142783   0.093   1.101   2.024  0.1418  2.0926 -1.0588
13847SOL    HW242784   0.166   1.041   2.142 -0.9222 -2.4829 -2.6277
13848SOL     OW42785   3.828   4.380   5.735  0.2600 -0.0135  0.1329
13848SOL    HW142786   3.797   4.355   5.648  0.7437  0.6114 -0.2208
13848SOL    HW242787   3.751   4.415   5.779 -0.0179 -0.4640  0.0066
13849SOL     OW42788   2.085   4.622   0.240  0.1787  0.7030  0.5454
13849SOL    HW142789   2.046   4.578   0.165  1.1291  0.9440 -0.1033
13849SOL    HW242790   2.014   4.630   0.303 -0.9506  1.5673 -0.8100
13850SOL     OW42791   7.147   5.872   5.762  0.0669  0.0830 -0.2624
13850SOL    HW142792   7.134   5.963   5.787  1.4153  0.0623  0.5686
13850SOL    HW242793   7.218   5.841   5.819 -1.4366 -1.9372  0.5903
13851SOL     OW42794   0.364   7.957   4.712  0.1287  0.2971 -0.7569
13851SOL    HW142795   0.431   7.981   4.775 -0.8228 -1.6564  1.0552
13851SOL    HW242796   0.393   7.997   4.630  2.3223  1.3577  0.4940
13852SOL     OW42797   3.200   1.363   5.036  0.1970 -0.4419 -0.6020
13852SOL    HW142798   3.243   1.438   5.077 -1.4905  0.3878 -0.2967
13852SOL    HW242799   3.265   1.294   5.039  0.9642  0.3161  1.2888
13853SOL     OW42800   4.489   5.662   4.895  0.0183  0.1343  0.1464
13853SOL    HW142801   4.455   5.673   4.807 -0.5124 -1.5506  0.1310
13853SOL    HW242802   4.472   5.746   4.938 -2.2802  0.0135 -0.4966
13854SOL     OW42803   7.892   2.560   1.828 -0.4695  0.1457 -0.8724
13854SOL    HW142804   7.872   2.566   1.735 -2.4050 -1.8708 -0.6178
13854SOL    HW242805   7.835   2.625   1.870 -0.6776  0.0003 -0.9339
13855SOL     OW42806   0.810   3.084   3.464  0.1428  0.2933  0.2119
13855SOL    HW142807   0.751   3.009   3.464  2.0998 -1.2963  0.4217
13855SOL    HW242808   0.780   3.139   3.391 -0.5792 -1.2835 -0.6952
13856SOL     OW42809   5.940   0.924   6.916 -0.4455 -0.6553 -0.4414
13856SOL    HW142810   5.937   1.020   6.920 -1.2875 -0.6372 -1.2997
13856SOL    HW242811   6.019   0.904   6.867  0.2888 -0.4263  0.6469
13857SOL     OW42812   7.218   7.718   5.446 -0.7642  0.0826 -0.4326
13857SOL    HW142813   7.294   7.725   5.504  0.6116 -0.6514 -2.1107
13857SOL    HW242814   7.171   7.800   5.460  0.6537  0.8185  0.1936
13858SOL     OW42815   6.700   5.316   6.042 -0.2431 -0.1752  0.3877
13858SOL    HW142816   6.716   5.411   6.043  1.4303 -0.4570  1.6935
13858SOL    HW242817   6.729   5.288   5.955 -2.1339  0.7180 -0.5572
13859SOL     OW42818   6.756   1.586   8.219  0.2092  0.2488 -0.0592
13859SOL    HW142819   6.699   1.574   8.143  2.0628 -1.6895 -1.2056
13859SOL    HW242820   6.786   1.497   8.241  0.6651  0.9239  2.1737
13860SOL     OW42821   2.702   6.036   7.101  0.3674 -0.2440  0.2684
13860SOL    HW142822   2.701   5.942   7.117 -0.3717 -0.6295 -1.8023
13860SOL    HW242823   2.756   6.073   7.171  0.4428 -2.1775  1.2376
13861SOL     OW42824   2.456   2.620   1.529  0.2684 -0.1020  0.1548
13861SOL    HW142825   2.531   2.655   1.480 -0.6030  0.3347 -0.8999
13861SOL    HW242826   2.440   2.534   1.489 -0.1762  0.0715 -0.0453
13862SOL     OW42827   6.719   5.965   6.390 -0.3076 -0.3188  0.0738
13862SOL    HW142828   6.654   5.952   6.321  0.9201  0.2604 -1.2232
13862SOL    HW242829   6.719   6.060   6.405 -2.4178 -0.6974  2.7301
13863SOL     OW42830   3.385   5.301   3.166  0.2024  0.0579  0.2526
13863SOL    HW142831   3.343   5.377   3.208 -1.3666 -0.4166 -0.4087
13863SOL    HW242832   3.469   5.293   3.210 -0.9141  0.2699  2.5198
13864SOL     OW42833   6.363   4.513   1.014 -0.3260  0.5736 -0.9692
13864SOL    HW142834   6.416   4.440   1.048  2.0895  1.7693 -2.0176
13864SOL    HW242835   6.351   4.571   1.089 -1.9612 -0.6738 -0.2148
13865SOL     OW42836   0.662   0.426   2.295 -0.4844 -0.7767  0.2812
13865SOL    HW142837   0.580   0.474   2.303  0.2892  0.7409 -0.7511
13865SOL    HW242838   0.677   0.420   2.200  1.8074  1.0575  0.4920
13866SOL     OW42839   2.525   7.669   3.071  0.2487 -0.4576  0.0209
13866SOL    HW142840   2.608   7.700   3.107  1.1134  0.1734 -2.4693
13866SOL    HW242841   2.514   7.581   3.109  0.8885  0.3673  2.1591
13867SOL     OW42842   4.515   1.272   6.851 -0.0796 -1.0318 -0.5067
13867SOL    HW142843   4.556   1.194   6.888 -0.8743 -0.7816  0.9563
13867SOL    HW242844   4.474   1.315   6.926  1.7111  1.6542 -0.9878
13868SOL     OW42845   4.652   3.695   4.842  0.0787  0.0443 -0.2958
13868SOL    HW142846   4.576   3.742   4.875  0.8719  0.8204  0.4672
13868SOL    HW242847   4.647   3.705   4.747 -0.8904 -0.1117 -0.2664
13869SOL     OW42848   3.111   1.603   6.673 -0.3963 -0.6824  0.7813
13869SOL    HW142849   3.082   1.694   6.666  2.0151  0.0259 -0.3730
13869SOL    HW242850   3.194   1.607   6.721  1.9788 -1.7508 -2.9638
13870SOL     OW42851   4.129   0.946   6.669  0.3649 -0.2301  0.1980
13870SOL    HW142852   4.071   1.022   6.670 -0.4676 -0.8382  1.8943
13870SOL    HW242853   4.216   0.982   6.684  0.1119  0.4795  0.0048
13871SOL     OW42854   1.544   6.372   3.697 -0.6947 -0.3800  0.0734
13871SOL    HW142855   1.513   6.314   3.628 -0.8226 -0.0402 -0.1581
13871SOL    HW242856   1.625   6.410   3.661  0.0644 -1.3699  0.7297
13872SOL     OW42857   3.847   6.629   5.346  0.3433  0.0902  0.6075
13872SOL    HW142858   3.852   6.541   5.309 -0.7177 -0.1224  0.9601
13872SOL    HW242859   3.938   6.653   5.363  0.6804 -0.6883 -0.0737
13873SOL     OW42860   6.814   5.191   0.394  0.3523  0.5820 -1.0575
13873SOL    HW142861   6.756   5.247   0.445 -0.1514 -1.4805  0.6909
13873SOL    HW242862   6.903   5.218   0.420  0.0990 -0.4163  0.8798
13874SOL     OW42863   3.796   1.226   7.055  0.7271  0.4861 -0.0045
13874SOL    HW142864   3.818   1.172   7.131  0.6644 -0.9732 -1.0051
13874SOL    HW242865   3.701   1.240   7.061  0.4868 -0.8093 -0.5487
13875SOL     OW42866   3.424   5.386   2.915  0.2557 -0.4152 -0.3445
13875SOL    HW142867   3.423   5.357   3.006 -1.3878 -1.7045 -0.7510
13875SOL    HW242868   3.424   5.482   2.921  2.2853 -0.4575  0.9990
13876SOL     OW42869   0.676   8.230   4.335 -0.2015  0.2995 -0.1976
13876SOL    HW142870   0.658   8.287   4.410  0.7820  1.0806 -0.5433
13876SOL    HW242871   0.709   8.149   4.374  0.8415  0.9058  0.2044
13877SOL     OW42872   4.149   2.093   5.432 -0.0526 -0.4782  0.0159
13877SOL    HW142873   4.091   2.136   5.494 -2.1228 -0.7191 -1.6897
13877SOL    HW242874   4.203   2.035   5.486 -1.1006  0.0647  1.6865
13878SOL     OW42875   6.369   4.185   6.377  0.1483 -0.3716 -0.1347
13878SOL    HW142876   6.292   4.130   6.359 -0.8545  1.0871 -0.4473
13878SOL    HW242877   6.444   4.132   6.350 -0.8611 -1.1955 -1.3817
13879SOL     OW42878   3.143   6.054   0.822  0.0447 -0.2616  0.4025
13879SOL    HW142879   3.122   6.107   0.899 -0.0464  0.2896  0.0042
13879SOL    HW242880   3.086   5.978   0.829  0.7513 -0.7186  1.4125
13880SOL     OW42881   2.657   1.030   1.343 -0.3567 -0.7378 -0.5290
13880SOL    HW142882   2.600   0.974   1.290 -1.2117  0.0853 -0.4868
13880SOL    HW242883   2.669   0.981   1.424 -0.7193 -1.0655 -0.6710
13881SOL     OW42884   7.740   0.569   5.400  0.2394  0.5517  0.1220
13881SOL    HW142885   7.759   0.491   5.348  0.9817  1.3027 -0.7520
13881SOL    HW242886   7.770   0.547   5.488 -0.8199 -0.6456  0.2046
13882SOL     OW42887   4.201   7.562   3.555 -0.1584 -0.6975 -0.0624
13882SOL    HW142888   4.118   7.610   3.555 -0.0826 -0.5620  0.5284
13882SOL    HW242889   4.201   7.514   3.638  0.8752  0.1955  0.4601
13883SOL     OW42890   1.922   4.026   3.787 -0.0037  0.3765  0.8274
13883SOL    HW142891   1.907   3.938   3.821 -0.4083 -0.4796 -1.4417
13883SOL    HW242892   2.011   4.048   3.816  1.2590 -2.0094 -1.0287
13884SOL     OW42893   2.663   4.484   1.180 -0.4560 -0.5570 -0.5021
13884SOL    HW142894   2.610   4.467   1.258  1.6870 -1.8281  0.7048
13884SOL    HW242895   2.735   4.421   1.185  0.0735 -0.2070 -3.1736
13885SOL     OW42896   0.670   0.048   7.541  0.5011  0.0231  0.2363
13885SOL    HW142897   0.622   0.104   7.480 -0.7858 -2.1082 -0.7675
13885SOL    HW242898   0.609   0.035   7.614  1.4382  1.2667  1.2634
13886SOL     OW42899   1.851   2.246   4.461  0.2003 -0.5259 -0.2232
13886SOL    HW142900   1.940   2.279   4.453  0.3929 -0.7761  0.8342
13886SOL    HW242901   1.810   2.267   4.377  0.2173  2.7336  0.5030
13887SOL     OW42902   5.998   0.674   0.866  0.3708 -0.2681  0.5212
13887SOL    HW142903   6.002   0.657   0.961 -0.4534 -0.6825  0.4822
13887SOL    HW242904   5.948   0.756   0.859  0.8240  0.0044  0.4701
13888SOL     OW42905   5.049   1.131   3.318 -0.4777 -0.2942  0.4119
13888SOL    HW142906   5.120   1.108   3.376 -1.5667 -0.9711  1.5005
13888SOL    HW242907   4.971   1.131   3.373 -1.7344 -2.2191 -1.2702
13889SOL     OW42908   5.149   2.103   8.203 -0.2005  0.2845 -0.1054
13889SOL    HW142909   5.171   2.177   8.147  2.0209 -0.6273 -0.4851
13889SOL    HW242910   5.106   2.040   8.145  0.0835  0.2684 -0.2941
13890SOL     OW42911   4.587   3.539   1.154  0.2480 -0.2073 -0.3642
13890SOL    HW142912   4.678   3.521   1.128  0.0725 -0.1974 -0.9935
13890SOL    HW242913   4.540   3.457   1.134  0.1766 -0.3185  0.2463
13891SOL     OW42914   6.708   1.530   5.630  0.0389 -0.1232  0.0664
13891SOL    HW142915   6.738   1.497   5.545  0.1735  0.7442 -0.2263
13891SOL    HW242916   6.626   1.575   5.611 -0.2473 -0.4570  0.5009
13892SOL     OW42917   2.622   4.668   7.670  0.2184  0.0500 -0.4724
13892SOL    HW142918   2.618   4.705   7.758  2.2399  0.0012 -0.3329
13892SOL    HW242919   2.554   4.600   7.669 -0.6926  0.9334  0.6174
13893SOL     OW42920   7.326   6.324   4.570  0.5703 -0.4349  0.0208
13893SOL    HW142921   7.329   6.242   4.618  1.2281 -0.9780 -0.9207
13893SOL    HW242922   7.315   6.298   4.478 -1.6186  0.6056 -0.0486
13894SOL     OW42923   2.934   3.673   6.026 -0.1911 -0.6475  0.2156
13894SOL    HW142924   2.926   3.726   6.105  2.1710 -0.4414  0.3450
13894SOL    HW242925   2.910   3.733   5.955 -0.2299 -0.2190  0.5882
13895SOL     OW42926   6.130   2.290   1.896 -0.3763  0.1094  0.4160
13895SOL    HW142927   6.216   2.267   1.931  0.1060  2.1793  0.6472
13895SOL    HW242928   6.147   2.311   1.804 -1.1914 -2.5887 -0.4150
13896SOL     OW42929   1.797   7.698   4.466  0.3327 -0.0387  0.2926
13896SOL    HW142930   1.776   7.784   4.501  0.8983  0.3037 -0.1983
13896SOL    HW242931   1.846   7.716   4.386  0.5722 -0.8167  0.2600
13897SOL     OW42932   7.147   2.131   3.541 -0.5924 -0.1161  0.3416
13897SOL    HW142933   7.122   2.135   3.633 -0.7959 -0.5779  0.3109
13897SOL    HW242934   7.213   2.061   3.537 -1.4329 -0.9096 -0.0434
13898SOL     OW42935   0.475   2.871   2.729 -1.0209  0.4368 -0.4266
13898SOL    HW142936   0.555   2.917   2.704 -0.7511  0.4171  0.3902
13898SOL    HW242937   0.405   2.920   2.686 -0.7719  1.8250  0.6912
13899SOL     OW42938   3.408   3.637   6.970 -0.0696  0.2282 -0.5387
13899SOL    HW142939   3.503   3.627   6.974 -0.1848 -0.5815  0.4494
13899SOL    HW242940   3.395   3.724   6.932  1.0842  0.8473  0.4377
13900SOL     OW42941   0.166   7.574   7.664  0.3613 -0.0028  0.2194
13900SOL    HW142942   0.226   7.511   7.624 -0.5832 -0.5221 -0.3966
13900SOL    HW242943   0.206   7.660   7.645  0.9681 -0.3465 -0.0772
13901SOL     OW42944   0.002   0.347   7.746 -0.2086 -0.6284  0.1756
13901SOL    HW142945   0.053   0.316   7.672  1.8995  1.1612  0.8163
13901SOL    HW242946   0.036   0.299   7.821  0.2815  0.2919  0.5491
13902SOL     OW42947   0.581   1.338   7.133  0.1290  0.0540 -0.4756
13902SOL    HW142948   0.538   1.369   7.212 -1.0415  0.9267 -1.4371
13902SOL    HW242949   0.551   1.247   7.123  0.9562 -0.3396  0.5356
13903SOL     OW42950   7.515   6.474   5.119  0.0594 -1.3239 -0.1517
13903SOL    HW142951   7.566   6.473   5.038 -0.5162 -1.1518 -0.5171
13903SOL    HW242952   7.483   6.384   5.128  0.6409 -1.5005  0.2218
13904SOL     OW42953   6.774   5.285   5.156 -0.5639  0.1279  0.2375
13904SOL    HW142954   6.751   5.244   5.072 -1.8449  0.8748  0.2191
13904SOL    HW242955   6.816   5.368   5.131 -0.7260  0.2364  0.3227
13905SOL     OW42956   1.366   8.197   3.490  0.0940  0.2925  0.0927
13905SOL    HW142957   1.286   8.221   3.536  1.2085  0.7943  1.8247
13905SOL    HW242958   1.411   8.137   3.549  2.3410  2.2358  0.4497
13906SOL     OW42959   2.231   5.512   4.200 -0.3070  0.3265 -0.0802
13906SOL    HW142960   2.209   5.489   4.110  1.2648  0.6209 -0.5552
13906SOL    HW242961   2.226   5.608   4.202  0.5776  0.3751 -0.1040
13907SOL     OW42962   1.198   3.167   2.140 -0.3559  0.0785  0.2048
13907SOL    HW142963   1.221   3.256   2.166 -0.7564 -0.0879  1.1414
13907SOL    HW242964   1.114   3.150   2.182  0.0546 -0.9924  0.6066
13908SOL     OW42965   4.828   1.528   4.139  0.2139 -0.8488  0.0302
13908SOL    HW142966   4.825   1.600   4.201  0.3324 -0.5919 -0.2599
13908SOL    HW242967   4.737   1.500   4.130  0.4776 -2.5674  2.2594
13909SOL     OW42968   1.066   6.233   4.626 -0.4959 -0.5407  0.3208
13909SOL    HW142969   1.053   6.212   4.719 -1.5356 -1.1854  0.0455
13909SOL    HW242970   1.148   6.189   4.603  1.0929  1.7001  1.5443
13910SOL     OW42971   6.298   2.757   1.931 -0.0376 -0.2941  0.3615
13910SOL    HW142972   6.341   2.692   1.986 -1.7537 -0.3808  1.6294
13910SOL    HW242973   6.212   2.769   1.970  0.9859  4.3553  1.4899
13911SOL     OW42974   7.507   0.878   2.421 -0.9007 -0.1463  0.1346
13911SOL    HW142975   7.501   0.878   2.325 -0.5707  0.9351  0.1027
13911SOL    HW242976   7.564   0.952   2.441  0.1338 -1.1839  1.1092
13912SOL     OW42977   6.764   5.646   7.771 -0.3557 -0.5817 -0.5195
13912SOL    HW142978   6.770   5.717   7.836  1.9203 -0.5558 -0.7335
13912SOL    HW242979   6.706   5.681   7.703  2.1319  1.8066 -1.4870
13913SOL     OW42980   3.346   1.155   4.908  0.3850  0.3471  0.2547
13913SOL    HW142981   3.441   1.144   4.906  0.1857 -1.3451 -0.9509
13913SOL    HW242982   3.313   1.070   4.935 -0.8372  0.6834 -0.1618
13914SOL     OW42983   6.337   1.808   0.404 -0.0055 -0.1256 -0.6070
13914SOL    HW142984   6.427   1.838   0.417  0.8609 -2.3124 -1.4054
13914SOL    HW242985   6.294   1.824   0.488  1.1521  0.8369 -0.1840
13915SOL     OW42986   0.306   3.204   6.206  0.6593 -0.2155 -0.0136
13915SOL    HW142987   0.390   3.228   6.246  0.5374 -1.5660  1.0646
13915SOL    HW242988   0.246   3.274   6.233  0.7165 -0.8154  1.7128
13916SOL     OW42989   3.164   7.503   4.607  0.3064 -0.6333  0.8494
13916SOL    HW142990   3.185   7.558   4.683 -1.2944  0.4292  0.5326
13916SOL    HW242991   3.239   7.444   4.600  0.9058 -0.1459  2.7055
13917SOL     OW42992   3.589   8.062   4.867 -0.8162 -0.4391 -0.1224
13917SOL    HW142993   3.575   8.100   4.780  1.0645 -2.0881 -1.1700
13917SOL    HW242994   3.533   7.985   4.869 -1.7368  0.2355  0.5840
13918SOL     OW42995   2.204   0.533   7.203  0.6542 -0.0221  0.4353
13918SOL    HW142996   2.150   0.484   7.264  0.3810  2.2596  2.0806
13918SOL    HW242997   2.284   0.552   7.251  1.2095  0.2075 -0.5551
13919SOL     OW42998   0.055   3.041   2.873  0.4847 -0.0711 -0.1262
13919SOL    HW142999  -0.031   3.014   2.841  0.6339  1.7534 -2.2052
13919SOL    HW243000   0.097   2.960   2.901 -0.8497 -1.3712 -1.7829
13920SOL     OW43001   2.918   6.775   6.090  0.1546  0.3803  0.7834
13920SOL    HW143002   2.970   6.720   6.149 -0.4403  0.9289  1.8314
13920SOL    HW243003   2.833   6.730   6.086 -0.4219  1.3399  1.8527
13921SOL     OW43004   6.409   0.195   7.608 -0.4612  0.4818  0.0172
13921SOL    HW143005   6.403   0.138   7.684 -1.6932 -0.3255 -0.6726
13921SOL    HW243006   6.429   0.137   7.535  2.0413  1.4129 -0.0801
13922SOL     OW43007   7.973   5.173   3.662 -0.3310 -0.3973 -0.2676
13922SOL    HW143008   7.907   5.201   3.725 -2.3981 -1.9947 -1.6597
13922SOL    HW243009   7.965   5.235   3.589 -0.5254 -0.7676 -0.5665
13923SOL     OW43010   1.609   2.222   1.483 -0.1427 -0.0130  0.0993
13923SOL    HW143011   1.531   2.276   1.492 -1.9670 -2.1836 -1.7886
13923SOL    HW243012   1.640   2.239   1.395  0.9688  0.1402  0.5177
13924SOL     OW43013   4.974   1.738   4.621  0.2034  0.5477 -0.2696
13924SOL    HW143014   4.892   1.693   4.604  0.0068  1.1860 -1.0481
13924SOL    HW243015   4.954   1.831   4.607  0.9653  0.7407 -0.1246
13925SOL     OW43016   1.307   7.994   6.127 -0.0683 -0.0941 -0.3084
13925SOL    HW143017   1.391   7.948   6.128 -0.2922 -0.4926  0.5928
13925SOL    HW243018   1.248   7.936   6.175 -1.2622 -0.5560 -2.2984
13926SOL     OW43019   3.648   6.828   0.523 -0.5266 -0.0883  0.0873
13926SOL    HW143020   3.694   6.911   0.521  0.2393 -0.4898  1.1259
13926SOL    HW243021   3.664   6.792   0.610 -0.8223 -1.3401 -0.3506
13927SOL     OW43022   1.324   4.102   0.424 -0.0726  0.3711  0.1794
13927SOL    HW143023   1.416   4.085   0.443  0.0704  0.1677 -0.6667
13927SOL    HW243024   1.283   4.016   0.420 -0.2592  0.4502  0.3614
13928SOL     OW43025   1.465   0.261   7.670  0.7250  0.0616 -0.7989
13928SOL    HW143026   1.513   0.209   7.607 -0.1727 -0.5677 -0.9700
13928SOL    HW243027   1.488   0.223   7.755  1.1428  0.2642 -0.8209
13929SOL     OW43028   1.306   6.650   6.536  0.1906  0.1002 -0.3968
13929SOL    HW143029   1.344   6.731   6.502 -0.2201 -0.7523 -3.0256
13929SOL    HW243030   1.270   6.606   6.459  0.3996 -2.6074  0.9719
13930SOL     OW43031   1.940   3.811   7.795  0.1294  0.4284 -0.4361
13930SOL    HW143032   2.027   3.776   7.773  0.3490  0.4524  0.3803
13930SOL    HW243033   1.952   3.853   7.880 -0.5417  0.9738 -0.6036
13931SOL     OW43034   3.059   5.087   2.924  0.1008  0.3856  0.2398
13931SOL    HW143035   3.040   5.177   2.949  3.8838  1.3428  0.0155
13931SOL    HW243036   3.066   5.090   2.829 -2.6879 -0.8134 -0.0436
13932SOL     OW43037   3.554   3.846   4.428  0.2707  0.3459 -0.1516
13932SOL    HW143038   3.594   3.933   4.427 -0.7995  0.8551 -0.4736
13932SOL    HW243039   3.482   3.853   4.365 -0.7561 -0.3198  0.9310
13933SOL     OW43040   6.292   2.029   7.560  0.4857 -0.1714 -0.8956
13933SOL    HW143041   6.382   2.023   7.591  0.3765 -1.2739 -0.7661
13933SOL    HW243042   6.292   1.980   7.477  0.0014 -0.1987 -0.8824
13934SOL     OW43043   6.847   6.337   7.685  0.3260  0.5671  0.0103
13934SOL    HW143044   6.802   6.279   7.624 -0.5446 -0.1253  1.2773
13934SOL    HW243045   6.812   6.424   7.667  0.1845  0.3886 -0.5677
13935SOL     OW43046   2.216   4.053   8.180 -0.5848  0.3452 -0.1517
13935SOL    HW143047   2.222   4.144   8.149  1.3280 -0.1040 -1.1953
13935SOL    HW243048   2.302   4.036   8.220 -1.4813 -0.5155  1.4648
13936SOL     OW43049   6.795   5.026   6.404  0.1082  0.0639 -0.0968
13936SOL    HW143050   6.801   4.947   6.458  0.8512  0.8158  0.9352
13936SOL    HW243051   6.705   5.055   6.415 -0.7136 -1.6427 -1.9436
13937SOL     OW43052   3.033   6.266   0.947  0.1016  0.1504  0.9877
13937SOL    HW143053   2.993   6.262   1.034 -1.4750 -2.4485  0.2087
13937SOL    HW243054   2.959   6.261   0.887  1.1514  2.2528 -0.5535
13938SOL     OW43055   7.391   4.188   3.456 -0.6258  0.4502 -0.5659
13938SOL    HW143056   7.462   4.235   3.500 -1.3899 -0.9752  2.2911
13938SOL    HW243057   7.312   4.234   3.484 -1.0013  0.6400 -1.9248
13939SOL     OW43058   3.372   1.457   2.594 -0.1351  0.1262  0.1017
13939SOL    HW143059   3.434   1.524   2.622 -1.1789  1.0550  0.2356
13939SOL    HW243060   3.288   1.502   2.592 -0.2773 -0.1869 -3.4659
13940SOL     OW43061   6.813   1.461   1.441 -0.0574  0.3343  0.1638
13940SOL    HW143062   6.845   1.550   1.455  1.5513  0.1442 -2.1330
13940SOL    HW243063   6.814   1.422   1.528 -0.4964  2.4519  1.1625
13941SOL     OW43064   3.408   7.529   2.492  0.4249 -0.3441  0.5882
13941SOL    HW143065   3.362   7.450   2.518  1.9007 -1.1042  0.9655
13941SOL    HW243066   3.389   7.592   2.561  0.6205 -0.9234  1.1762
13942SOL     OW43067   5.892   4.318   5.344  0.8149  0.0912  0.4243
13942SOL    HW143068   5.897   4.388   5.280 -1.2950  0.4531  0.6076
13942SOL    HW243069   5.857   4.243   5.295 -0.9213  0.4049  1.1330
13943SOL     OW43070   6.350   0.235   5.696  0.1516  0.6446 -0.1353
13943SOL    HW143071   6.339   0.152   5.742 -1.2203  1.6828  1.4892
13943SOL    HW243072   6.434   0.268   5.727  0.0717  0.4954  0.2486
13944SOL     OW43073   7.499   5.456   6.950  0.2383 -0.2014 -0.0577
13944SOL    HW143074   7.572   5.506   6.915  0.8837 -1.9929 -1.3867
13944SOL    HW243075   7.523   5.365   6.933 -0.6693 -0.9884  2.7236
13945SOL     OW43076   4.566   2.062   0.698 -0.2394 -0.5574  0.1806
13945SOL    HW143077   4.585   1.969   0.696 -1.6538 -0.8490  0.0224
13945SOL    HW243078   4.560   2.088   0.606 -1.4156 -0.6467  0.2239
13946SOL     OW43079   4.772   6.644   4.931  0.2394  0.3234 -0.5809
13946SOL    HW143080   4.723   6.714   4.889  1.5803  1.9356  0.5051
13946SOL    HW243081   4.824   6.687   4.999  0.6206 -1.7954  0.5220
13947SOL     OW43082   0.014   6.996   3.619 -0.0997 -0.3388  0.4539
13947SOL    HW143083   0.071   7.074   3.617  0.0750 -0.4683  0.2898
13947SOL    HW243084  -0.065   7.024   3.573  0.2733 -0.4885 -0.3022
13948SOL     OW43085   0.246   4.232   3.220 -0.3469  0.6142 -0.0410
13948SOL    HW143086   0.327   4.261   3.178  0.9618 -1.3379  1.0441
13948SOL    HW243087   0.269   4.224   3.313 -2.3710  2.0178  0.5956
13949SOL     OW43088   5.330   6.847   1.764 -0.5605  0.6699  0.0543
13949SOL    HW143089   5.277   6.802   1.699 -1.0408  1.0152  0.1969
13949SOL    HW243090   5.289   6.824   1.848  0.1319  0.1196  0.2448
13950SOL     OW43091   4.529   3.185   2.116  0.3364 -0.1798  0.7949
13950SOL    HW143092   4.614   3.157   2.150 -0.1115 -1.3516  0.9588
13950SOL    HW243093   4.550   3.257   2.055  1.5555 -1.3734 -0.2170
13951SOL     OW43094   3.983   1.966   1.818  0.1583  0.6147 -0.1210
13951SOL    HW143095   3.953   2.000   1.734  0.6761  1.7328  0.1341
13951SOL    HW243096   4.078   1.976   1.816  0.1253  1.1812  0.8157
13952SOL     OW43097   2.683   0.215   0.299 -0.0570 -0.3961 -0.1019
13952SOL    HW143098   2.679   0.310   0.311 -0.9965 -0.4441 -0.0153
13952SOL    HW243099   2.619   0.180   0.361 -1.2581 -0.9600 -1.6326
13953SOL     OW43100   0.211   3.825   1.615 -0.2343 -0.6588 -0.5649
13953SOL    HW143101   0.287   3.775   1.644 -0.8698 -2.1470 -1.4216
13953SOL    HW243102   0.236   3.862   1.531 -0.6699 -1.6757 -1.1501
13954SOL     OW43103   1.052   8.084   6.006 -0.1388  0.2564 -0.2884
13954SOL    HW143104   1.119   8.030   6.048 -1.4937 -0.6796  0.7258
13954SOL    HW243105   1.045   8.162   6.062 -1.1144 -0.4485  0.5790
13955SOL     OW43106   7.746   5.239   5.443 -0.7704 -0.3106  0.1339
13955SOL    HW143107   7.784   5.186   5.513 -1.1369  0.1507  0.6849
13955SOL    HW243108   7.812   5.237   5.373 -0.4328 -0.8251  0.4620
13956SOL     OW43109   7.901   1.033   3.544 -0.7924 -0.1079 -0.2921
13956SOL    HW143110   7.932   1.083   3.468 -1.0689  0.8999  0.2581
13956SOL    HW243111   7.952   0.951   3.540 -1.4243 -0.4413 -2.0443
13957SOL     OW43112   5.664   6.388   2.527 -0.1145  0.6096 -0.2708
13957SOL    HW143113   5.674   6.423   2.616  0.2281  0.2052 -0.1485
13957SOL    HW243114   5.710   6.452   2.472  1.5985 -0.2783  0.0928
13958SOL     OW43115   8.056   2.773   1.515  0.8483  0.0419 -0.4862
13958SOL    HW143116   7.972   2.765   1.469  0.0192 -3.0281  1.4605
13958SOL    HW243117   8.053   2.860   1.555 -0.6707  0.6164 -1.7789
13959SOL     OW43118   7.496   0.624   4.605  0.1099 -0.4174  1.1237
13959SOL    HW143119   7.433   0.678   4.652  0.0763  1.7859 -1.3518
13959SOL    HW243120   7.446   0.549   4.575 -1.3056  1.1118 -0.4542
13960SOL     OW43121   2.581   0.831   4.730  0.5091  0.1666 -0.6841
13960SOL    HW143122   2.586   0.905   4.791 -1.1016  1.1994 -1.7671
13960SOL    HW243123   2.546   0.759   4.783  0.3771  0.6751 -0.0661
13961SOL     OW43124   5.375   3.830   3.237  0.3738 -0.6655  0.0506
13961SOL    HW143125   5.412   3.915   3.214 -0.8684 -0.6264 -1.9664
13961SOL    HW243126   5.290   3.850   3.277 -0.4917 -0.9635 -1.5802
13962SOL     OW43127   2.764   8.053   7.900  0.1139 -0.3617 -0.6362
13962SOL    HW143128   2.735   8.052   7.991  0.4378 -0.5341 -0.5361
13962SOL    HW243129   2.762   7.962   7.873  1.3897 -0.4669 -0.3713
13963SOL     OW43130   4.244   3.028   7.356  0.4930 -0.1828 -0.3866
13963SOL    HW143131   4.265   2.935   7.362  0.3812 -0.1774  0.0935
13963SOL    HW243132   4.240   3.046   7.262  1.1710 -0.5120 -0.4790
13964SOL     OW43133   1.453   4.455   7.357 -0.2245 -0.9113  0.5657
13964SOL    HW143134   1.401   4.409   7.291 -0.7335 -0.1461  0.4271
13964SOL    HW243135   1.389   4.478   7.425  0.2670 -1.5466  1.2477
13965SOL     OW43136   5.852   4.742   7.152  0.6049 -0.3850 -0.0406
13965SOL    HW143137   5.876   4.718   7.063  0.5890 -0.1386 -0.1098
13965SOL    HW243138   5.904   4.820   7.172  0.0413  0.0084 -0.1054
13966SOL     OW43139   6.175   1.190   4.220 -0.4604  0.4352 -0.5719
13966SOL    HW143140   6.205   1.280   4.232 -0.8125  0.4116  0.5437
13966SOL    HW243141   6.104   1.197   4.156 -1.4862  1.1536  0.6223
13967SOL     OW43142   5.794   3.801   3.929  0.1482  0.4592 -0.0257
13967SOL    HW143143   5.779   3.889   3.895 -1.3399 -0.1537 -0.9605
13967SOL    HW243144   5.855   3.761   3.867 -0.9356  0.0619 -0.8445
13968SOL     OW43145   3.411   7.219   6.012 -0.2177  0.0342  0.5199
13968SOL    HW143146   3.361   7.169   5.948  0.3326  0.3622 -0.1727
13968SOL    HW243147   3.380   7.187   6.097 -2.2483  0.8898  0.1156
13969SOL     OW43148   7.897   2.093   5.038 -0.1635 -0.4330  0.1969
13969SOL    HW143149   7.837   2.132   4.974  0.3628  0.7338  0.3946
13969SOL    HW243150   7.983   2.101   4.998 -0.0137 -1.1528  0.3681
13970SOL     OW43151   2.044   2.936   7.324 -0.6414 -0.1348 -0.4405
13970SOL    HW143152   2.045   2.977   7.410  0.5792  0.2410 -0.6368
13970SOL    HW243153   1.957   2.896   7.318 -1.4226  1.4136  0.2133
13971SOL     OW43154   7.365   2.482   7.594 -0.3033  0.7440  0.3192
13971SOL    HW143155   7.383   2.430   7.673 -2.9503 -2.0713 -0.8190
13971SOL    HW243156   7.450   2.516   7.568  1.6995 -3.4990  0.8799
13972SOL     OW43157   4.866   0.319   1.754 -0.0066  0.1086 -0.1221
13972SOL    HW143158   4.909   0.383   1.697 -0.0374 -0.7367 -1.1090
13972SOL    HW243159   4.934   0.256   1.777  0.0098  0.4479  0.7945
13973SOL     OW43160   0.360   4.281   5.223 -0.6282  0.2856 -0.0767
13973SOL    HW143161   0.291   4.226   5.261  1.0845 -1.4932  0.5914
13973SOL    HW243162   0.427   4.218   5.195  1.6962  2.0602  1.3103
13974SOL     OW43163   3.402   4.789   1.236 -0.7516 -0.0112 -0.0979
13974SOL    HW143164   3.338   4.723   1.260 -0.1433 -0.5040  0.1988
13974SOL    HW243165   3.463   4.743   1.178  0.6531 -0.1965  1.4601
13975SOL     OW43166   6.956   2.155   6.163 -0.4734 -0.2866  0.2431
13975SOL    HW143167   6.910   2.232   6.131 -1.3778  0.1049  2.4000
13975SOL    HW243168   7.006   2.123   6.088 -0.8735  1.8102 -0.9296
13976SOL     OW43169   1.414   7.479   7.200  0.2502  0.3929  0.2063
13976SOL    HW143170   1.483   7.531   7.161  1.1013 -1.1805 -0.4447
13976SOL    HW243171   1.416   7.397   7.151 -2.1609  0.3727  0.0899
13977SOL     OW43172   2.306   7.466   7.758  0.4506  0.2907  0.5784
13977SOL    HW143173   2.354   7.547   7.739  1.4042 -0.1289  1.1855
13977SOL    HW243174   2.214   7.494   7.764  0.6308  1.1353 -0.3614
13978SOL     OW43175   1.330   0.443   2.563 -0.3198  0.8227  0.3811
13978SOL    HW143176   1.303   0.400   2.644 -0.6278 -0.4236 -0.3717
13978SOL    HW243177   1.364   0.528   2.591 -2.6913  1.4091  1.5758
13979SOL     OW43178   2.402   3.860   6.422 -0.2246 -0.2323 -0.4247
13979SOL    HW143179   2.426   3.816   6.504  0.1675  0.0669 -0.3736
13979SOL    HW243180   2.308   3.874   6.428 -0.0833  0.4805  0.3269
13980SOL     OW43181   7.855   4.887   5.776  0.0461 -0.1686 -0.7266
13980SOL    HW143182   7.826   4.849   5.859  0.2652 -1.0137 -1.0333
13980SOL    HW243183   7.819   4.976   5.777  0.3853 -0.0293  0.4551
13981SOL     OW43184   1.120   0.469   5.425  0.1183  0.0581  0.6246
13981SOL    HW143185   1.122   0.563   5.408  0.5601 -0.1733 -0.6333
13981SOL    HW243186   1.077   0.461   5.510  0.8256  1.4516  1.1299
13982SOL     OW43187   2.517   0.060   1.119  0.3872 -0.0795 -0.0139
13982SOL    HW143188   2.508  -0.012   1.182  0.0222  1.4518  1.7197
13982SOL    HW243189   2.610   0.059   1.095  0.2690 -1.5019 -0.4937
13983SOL     OW43190   0.503   3.197   3.129  0.2427  0.2517  0.3779
13983SOL    HW143191   0.417   3.196   3.086 -1.1593  0.9015  3.0378
13983SOL    HW243192   0.550   3.122   3.091 -1.3259  0.1377 -1.4254
13984SOL     OW43193   2.081   2.100   7.784  0.1995  0.1975  0.4490
13984SOL    HW143194   1.996   2.079   7.744 -0.8312  1.7539  1.8069
13984SOL    HW243195   2.101   2.024   7.839  1.1266 -1.4984 -2.0952
13985SOL     OW43196   1.799   3.574   7.806 -0.1071  1.0187  0.0451
13985SOL    HW143197   1.791   3.576   7.711 -0.3870  0.9512  0.0673
13985SOL    HW243198   1.842   3.657   7.828  1.0705  0.4997 -0.2373
13986SOL     OW43199   3.039   6.157   5.706 -0.4847 -0.5491  0.5065
13986SOL    HW143200   2.958   6.145   5.656 -0.1481 -0.3298 -0.0881
13986SOL    HW243201   3.086   6.226   5.660 -0.1073 -0.4429  1.0465
13987SOL     OW43202   4.552   0.346   5.943 -0.3755 -0.3608  1.0257
13987SOL    HW143203   4.466   0.371   5.909  0.1370  0.6103  0.4407
13987SOL    HW243204   4.615   0.387   5.884  0.5039 -0.8434  1.6074
13988SOL     OW43205   0.279   8.239   3.601  0.4389  0.3506 -0.1067
13988SOL    HW143206   0.342   8.256   3.531  1.3399  1.6503  0.9998
13988SOL    HW243207   0.333   8.215   3.676 -0.5436 -1.4490  0.0491
13989SOL     OW43208   3.598   0.237   8.064  0.6632 -0.6043  0.0188
13989SOL    HW143209   3.558   0.322   8.046  0.2653 -0.9650 -0.8610
13989SOL    HW243210   3.524   0.178   8.079  0.9066 -0.9617 -0.1749
13990SOL     OW43211   7.149   1.376   2.214  0.4303  0.3004 -0.0778
13990SOL    HW143212   7.128   1.393   2.122 -1.3297 -0.0772  0.2239
13990SOL    HW243213   7.089   1.306   2.239  2.0465 -0.7623  0.9089
13991SOL     OW43214   2.102   3.042   1.468  0.0569 -0.0559  0.1938
13991SOL    HW143215   2.174   2.982   1.450 -0.4543 -0.9353  1.0143
13991SOL    HW243216   2.126   3.123   1.422  0.6681 -0.9356 -1.0816
13992SOL     OW43217   1.366   4.500   6.835  0.0854  0.1471 -0.1340
13992SOL    HW143218   1.345   4.588   6.803  1.0911 -0.0592 -1.3791
13992SOL    HW243219   1.345   4.442   6.762 -1.1774 -0.7265  0.9057
13993SOL     OW43220   0.452   6.834   1.232 -0.0552  0.2286  0.0538
13993SOL    HW143221   0.374   6.784   1.208  0.0940 -0.1588  0.3647
13993SOL    HW243222   0.524   6.772   1.221  0.0807  0.2209  0.8923
13994SOL     OW43223   3.508   0.516   4.367  0.5747  0.0041 -0.4503
13994SOL    HW143224   3.539   0.497   4.278  0.6826  0.3721 -0.4921
13994SOL    HW243225   3.586   0.507   4.421 -0.0561 -3.0827  0.0334
13995SOL     OW43226   5.667   4.709   0.515  0.1257 -0.3481  0.2865
13995SOL    HW143227   5.623   4.688   0.433  0.0510 -1.2003  0.5407
13995SOL    HW243228   5.606   4.766   0.562 -0.2846 -0.7312  0.2127
13996SOL     OW43229   2.899   2.037   6.820  0.2274  0.4824  0.1521
13996SOL    HW143230   2.911   2.126   6.854 -1.6522  1.2413 -1.0762
13996SOL    HW243231   2.853   1.991   6.889 -1.5396  1.3689 -0.3961
13997SOL     OW43232   4.390   1.199   2.820  0.3435 -0.7128  0.5530
13997SOL    HW143233   4.298   1.195   2.846  0.4790 -4.1544  0.6880
13997SOL    HW243234   4.397   1.139   2.746  2.2724  0.3639 -0.1693
13998SOL     OW43235   2.477   2.427   5.548 -0.3674  0.0753  0.4188
13998SOL    HW143236   2.396   2.442   5.499 -1.0093 -0.4299  1.3324
13998SOL    HW243237   2.477   2.495   5.615 -0.0067  0.0947  0.4024
13999SOL     OW43238   0.163   8.253   0.049  0.0900 -0.0318  0.0626
13999SOL    HW143239   0.243   8.201   0.056 -0.2148 -0.5154 -0.0546
13999SOL    HW243240   0.181   8.331   0.102  1.0166  0.3446 -0.7822
14000SOL     OW43241   0.479   4.755   0.311  0.2666  0.0015  0.3153
14000SOL    HW143242   0.482   4.835   0.364 -2.7375 -0.0236  0.6338
14000SOL    HW243243   0.439   4.783   0.229 -0.6946 -1.1323  0.3844
14001SOL     OW43244   3.326   5.771   2.462  0.9500  0.6000  0.3659
14001SOL    HW143245   3.376   5.709   2.515  3.2782  0.6837 -1.6595
14001SOL    HW243246   3.311   5.845   2.520  0.0802 -0.8906  2.1067
14002SOL     OW43247   7.702   4.577   2.083  0.0620 -0.1400 -0.4625
14002SOL    HW143248   7.754   4.615   2.154  0.2700 -0.1586 -0.6046
14002SOL    HW243249   7.761   4.515   2.040 -0.0048  0.0126 -0.7727
14003SOL     OW43250   3.415   4.259   0.209 -0.2637 -0.1868 -0.0555
14003SOL    HW143251   3.399   4.194   0.278  4.0714 -0.5742  0.6786
14003SOL    HW243252   3.425   4.207   0.129 -1.6648 -0.0121 -0.3559
14004SOL     OW43253   5.127   5.839   7.357 -0.1670 -0.1065  0.3179
14004SOL    HW143254   5.083   5.769   7.309 -0.9635  0.4352  0.2581
14004SOL    HW243255   5.206   5.857   7.305 -1.7647  1.4924 -1.6314
14005SOL     OW43256   4.136   0.656   3.203 -0.2707  0.3572 -0.2412
14005SOL    HW143257   4.100   0.578   3.245  1.3315  0.1234  0.7567
14005SOL    HW243258   4.064   0.691   3.150 -1.3191 -1.1973  0.1338
14006SOL     OW43259   4.373   6.983   5.082  0.6294 -0.2959  0.6704
14006SOL    HW143260   4.438   6.914   5.067 -0.2567 -0.8788 -0.5530
14006SOL    HW243261   4.387   7.046   5.012 -0.8539 -0.9948 -0.2914
14007SOL     OW43262   6.968   7.286   0.151  0.5263  0.1655 -0.3728
14007SOL    HW143263   6.904   7.344   0.108  0.7024 -0.2680 -1.2201
14007SOL    HW243264   7.051   7.333   0.144  1.0069 -0.9831 -2.6523
14008SOL     OW43265   1.241   2.567   3.496  0.1895  0.4682  0.2589
14008SOL    HW143266   1.331   2.596   3.510  1.4851 -3.8297  1.7974
14008SOL    HW243267   1.207   2.552   3.585 -1.5068  0.5368 -0.3640
14009SOL     OW43268   2.668   4.453   6.897  0.6701  0.5599 -0.4704
14009SOL    HW143269   2.633   4.510   6.966 -0.5352  0.5665 -1.0583
14009SOL    HW243270   2.748   4.416   6.934  0.5463  1.3004  0.5674
14010SOL     OW43271   5.818   2.589   3.993  0.2400 -0.1758  0.0105
14010SOL    HW143272   5.747   2.604   4.055 -0.4549 -1.4543 -0.4384
14010SOL    HW243273   5.826   2.671   3.945 -1.6349 -0.3200 -0.6159
14011SOL     OW43274   7.658   6.055   7.628 -0.5394  0.2287 -0.3052
14011SOL    HW143275   7.716   6.128   7.652 -0.2135 -0.4582  1.0728
14011SOL    HW243276   7.640   6.012   7.711 -0.1069 -1.7226 -1.1989
14012SOL     OW43277   1.688   0.018   7.216  0.1882  0.3489 -0.2056
14012SOL    HW143278   1.640  -0.041   7.157  0.9909  1.6945 -2.2625
14012SOL    HW243279   1.775  -0.022   7.222  0.5020  0.9028 -0.9936
14013SOL     OW43280   0.022   4.239   1.822 -0.3343  0.0776  0.3996
14013SOL    HW143281  -0.074   4.241   1.822 -0.3128  1.5394  0.1888
14013SOL    HW243282   0.045   4.201   1.907 -1.0954 -0.2498  0.4622
14014SOL     OW43283   2.462   4.860   1.055  0.0537  0.0230  0.2365
14014SOL    HW143284   2.461   4.949   1.091  0.3000  0.6591 -1.2988
14014SOL    HW243285   2.375   4.849   1.015 -0.4825 -0.9433  1.6358
14015SOL     OW43286   4.996   3.055   6.129 -0.2366 -0.1684  0.1308
14015SOL    HW143287   4.998   2.962   6.105 -0.8848 -0.2792  0.4779
14015SOL    HW243288   5.086   3.085   6.117 -0.1044 -0.7462 -0.3642
14016SOL     OW43289   3.778   7.603   0.573 -0.1671 -0.4056  0.8216
14016SOL    HW143290   3.847   7.544   0.604 -0.6345 -0.5134  1.7012
14016SOL    HW243291   3.749   7.565   0.491  1.6676  0.3264 -0.1901
14017SOL     OW43292   3.928   0.103   6.511  0.2903 -0.0634  0.2023
14017SOL    HW143293   3.896   0.140   6.429  0.0358  1.8032  1.1107
14017SOL    HW243294   4.005   0.156   6.532  0.6643 -0.8777  0.9130
14018SOL     OW43295   7.283   3.281   2.048 -0.0687  0.0502 -0.2947
14018SOL    HW143296   7.197   3.239   2.057  0.2356  0.0035  2.7296
14018SOL    HW243297   7.334   3.220   1.995 -0.5904 -2.0113  1.4915
14019SOL     OW43298   0.848   7.937   6.458  0.0967  0.2738  1.2420
14019SOL    HW143299   0.806   7.920   6.542 -1.9609  0.1002  0.2124
14019SOL    HW243300   0.848   7.852   6.414  2.0598  0.1576  1.4521
14020SOL     OW43301   5.692   7.487   6.627 -0.1991 -0.5183 -0.0148
14020SOL    HW143302   5.670   7.431   6.701  0.8007 -0.8374  0.0439
14020SOL    HW243303   5.620   7.551   6.623  0.2996  0.1833  1.9145
14021SOL     OW43304   6.239   0.786   7.528  0.2064 -0.0669  0.6665
14021SOL    HW143305   6.201   0.698   7.520  1.0954 -0.7920  3.8387
14021SOL    HW243306   6.333   0.772   7.526  0.3542  0.9311  0.4321
14022SOL     OW43307   5.577   3.180   2.096 -0.1348  0.3714 -0.4295
14022SOL    HW143308   5.626   3.248   2.142 -1.2295  1.4762 -0.8717
14022SOL    HW243309   5.514   3.148   2.160 -1.1642  1.3950 -0.9145
14023SOL     OW43310   1.502   3.183   8.258 -0.4611  0.4039  0.3432
14023SOL    HW143311   1.485   3.095   8.291 -0.1881  0.1858 -0.0961
14023SOL    HW243312   1.424   3.233   8.280  0.6744  0.8948  3.5685
14024SOL     OW43313   0.729   4.648   3.553 -0.2826 -0.7028  0.3047
14024SOL    HW143314   0.635   4.629   3.549 -0.2909 -1.1451  2.3660
14024SOL    HW243315   0.734   4.743   3.551 -0.7610 -0.6830 -0.0853
14025SOL     OW43316   7.778   3.893   0.422 -0.4445 -0.3512 -0.3985
14025SOL    HW143317   7.810   3.933   0.342 -0.1760 -1.0172 -0.6248
14025SOL    HW243318   7.851   3.842   0.455 -0.1808  0.8107  0.8787
14026SOL     OW43319   6.981   5.128   0.062  0.7000  0.1826  0.3407
14026SOL    HW143320   7.043   5.186   0.106  1.2332 -0.6008  0.6242
14026SOL    HW243321   7.034   5.053   0.033  0.0526 -0.0756 -0.1886
14027SOL     OW43322   6.965   1.916   0.550  0.7549 -0.4322 -0.5458
14027SOL    HW143323   6.952   1.825   0.523 -2.6639  0.3026 -1.6430
14027SOL    HW243324   6.926   1.967   0.479 -0.1378  1.7966  1.5003
14028SOL     OW43325   3.924   7.867   6.324 -0.0399 -0.3272 -0.7265
14028SOL    HW143326   3.838   7.834   6.297  0.6664 -1.0164 -2.1724
14028SOL    HW243327   3.970   7.791   6.358 -0.6244  0.3794  1.7507
14029SOL     OW43328   2.101   2.137   1.567  0.2810  0.3149  0.2063
14029SOL    HW143329   2.040   2.074   1.605  2.6098 -1.0696  1.8237
14029SOL    HW243330   2.071   2.222   1.600  1.3792 -0.6999  4.1790
14030SOL     OW43331   1.614   3.180   6.322  0.0187 -0.3965 -0.3494
14030SOL    HW143332   1.698   3.220   6.342  0.1477 -1.2394  0.8808
14030SOL    HW243333   1.614   3.169   6.227  1.2362 -0.2700 -0.3729
14031SOL     OW43334   6.477   6.316   0.448 -0.2531  0.3291  0.1794
14031SOL    HW143335   6.404   6.256   0.433  0.5581 -0.8076  0.7169
14031SOL    HW243336   6.539   6.266   0.501  1.1888  1.0789 -0.7619
14032SOL     OW43337   7.056   3.747   7.539 -0.0498 -0.3216  0.3910
14032SOL    HW143338   6.986   3.685   7.520  0.4204 -0.6900 -0.1709
14032SOL    HW243339   7.050   3.813   7.470 -0.0018 -0.2207  0.4827
14033SOL     OW43340   4.982   7.339   0.357 -1.0815 -0.5222 -0.2828
14033SOL    HW143341   4.959   7.432   0.353 -0.3675 -0.3262  0.1945
14033SOL    HW243342   5.078   7.338   0.356 -1.0880 -1.3001 -1.2882
14034SOL     OW43343   5.296   0.600   4.183 -0.3633 -0.4866 -0.2387
14034SOL    HW143344   5.354   0.597   4.107 -1.8877  0.3692 -1.4756
14034SOL    HW243345   5.331   0.535   4.244 -0.5178 -2.8883 -2.6723
14035SOL     OW43346   3.911   0.775   0.746  0.1622  0.5922 -0.4166
14035SOL    HW143347   3.844   0.724   0.700  1.5961 -1.2677 -0.5261
14035SOL    HW243348   3.868   0.805   0.825 -0.6363 -1.1293 -0.1717
14036SOL     OW43349   1.158   6.043   6.336  0.2340  0.0720  0.2308
14036SOL    HW143350   1.156   5.976   6.268 -2.4827 -1.5651  1.8068
14036SOL    HW243351   1.226   6.014   6.396  0.5017 -0.1606 -0.1793
14037SOL     OW43352   7.038   1.634   1.562 -0.0013  0.1112 -0.2460
14037SOL    HW143353   7.099   1.671   1.626  0.8035 -2.1266  0.3363
14037SOL    HW243354   7.021   1.705   1.500  0.2230  1.9213  1.7148
14038SOL     OW43355   1.954   6.650   6.524  0.3870 -0.5499 -0.6095
14038SOL    HW143356   1.982   6.559   6.517  0.3188 -0.5986 -0.2355
14038SOL    HW243357   2.022   6.692   6.576 -0.1668 -0.6385  0.1870
14039SOL     OW43358   1.426   7.628   7.442  0.1828 -0.4535  0.7512
14039SOL    HW143359   1.453   7.583   7.362 -1.8186 -1.9267  0.8616
14039SOL    HW243360   1.477   7.709   7.442  1.7528 -1.3957 -0.9257
14040SOL     OW43361   4.166   0.479   1.985  0.3947  0.3245  0.5875
14040SOL    HW143362   4.236   0.521   1.935  0.4194  2.3008  2.2014
14040SOL    HW243363   4.182   0.386   1.974  0.9111  0.6949 -2.3332
14041SOL     OW43364   7.741   5.200   7.694 -0.2129 -0.0335  0.1442
14041SOL    HW143365   7.656   5.233   7.669 -0.4178 -0.7776 -0.1687
14041SOL    HW243366   7.804   5.252   7.643 -0.3389  2.0391  2.0239
14042SOL     OW43367   0.770   5.493   6.996  0.2821 -0.2989 -0.2112
14042SOL    HW143368   0.803   5.491   6.906  1.8656 -0.1743  0.3524
14042SOL    HW243369   0.766   5.586   7.017 -0.9490 -0.2955 -0.4611
14043SOL     OW43370   3.049   1.085   2.899 -0.3640 -0.0383 -0.4683
14043SOL    HW143371   2.988   1.015   2.922 -0.7438  0.9061  1.5519
14043SOL    HW243372   3.080   1.119   2.983  1.6582  0.6310 -1.4471
14044SOL     OW43373   3.649   3.081   7.571  0.2700  0.1037 -0.3842
14044SOL    HW143374   3.717   3.079   7.639 -1.4350 -0.5705  1.3454
14044SOL    HW243375   3.637   3.174   7.552  1.3080  0.2563 -0.3460
14045SOL     OW43376   6.380   7.598   0.433  0.1069 -0.0066 -0.4154
14045SOL    HW143377   6.308   7.558   0.384 -0.2917 -0.9848  0.9255
14045SOL    HW243378   6.350   7.596   0.524  2.1731 -1.2246  0.2791
14046SOL     OW43379   1.786   5.374   1.615 -0.1448  0.3138 -0.3583
14046SOL    HW143380   1.743   5.457   1.594 -2.2449 -0.6163  0.1475
14046SOL    HW243381   1.879   5.392   1.604 -0.6575  2.3285 -1.6698
14047SOL     OW43382   2.837   7.439   3.681 -0.3260  0.3346  0.0411
14047SOL    HW143383   2.869   7.355   3.649 -0.4430 -0.1536  1.2025
14047SOL    HW243384   2.745   7.424   3.702 -0.1815  0.5778  0.8631
14048SOL     OW43385   8.108   3.211   6.625 -0.2251 -0.4109 -0.2620
14048SOL    HW143386   8.100   3.116   6.630 -1.9050 -0.2043  3.3149
14048SOL    HW243387   8.102   3.239   6.717  0.6390  3.1006 -1.2280
14049SOL     OW43388   3.983   4.914   6.933 -0.0819 -0.5389  0.5565
14049SOL    HW143389   4.028   4.998   6.920 -0.0601 -0.7325 -0.6499
14049SOL    HW243390   3.940   4.923   7.019  1.0862  0.1723  1.0762
14050SOL     OW43391   6.170   1.096   5.455 -0.3127  0.1763 -0.2835
14050SOL    HW143392   6.123   1.057   5.381 -1.6676 -0.5796  0.9349
14050SOL    HW243393   6.258   1.059   5.450 -0.3077  0.3509 -1.6667
14051SOL     OW43394   3.639   6.560   1.826  0.3680 -0.4281 -0.1610
14051SOL    HW143395   3.620   6.626   1.760  0.1446 -1.3020 -0.9852
14051SOL    HW243396   3.606   6.597   1.908 -0.9086 -0.0643 -0.8342
14052SOL     OW43397   0.787   3.969   3.350  0.9089  0.4400 -0.1239
14052SOL    HW143398   0.847   3.894   3.342  1.8336  1.1243  0.2466
14052SOL    HW243399   0.762   3.970   3.442 -0.4401 -0.4175 -0.4751
14053SOL     OW43400   1.761   4.038   5.293  0.4658 -0.4880 -0.7731
14053SOL    HW143401   1.708   4.052   5.215  0.1040 -0.8995 -0.6014
14053SOL    HW243402   1.753   4.121   5.342 -1.0470 -0.9945 -0.1340
14054SOL     OW43403   2.455   7.223   1.571 -0.3189 -0.1226 -0.1704
14054SOL    HW143404   2.370   7.230   1.529  0.4763  2.7421 -1.5057
14054SOL    HW243405   2.492   7.141   1.539 -1.8177 -0.4578 -1.0474
14055SOL     OW43406   1.598   4.074   0.524  0.1541  0.1644  0.0250
14055SOL    HW143407   1.687   4.104   0.505  0.5882  0.2463  2.0396
14055SOL    HW243408   1.597   4.062   0.619 -1.5034 -1.4219 -0.1720
14056SOL     OW43409   2.543   1.057   0.219 -0.8308  0.1860 -0.8771
14056SOL    HW143410   2.583   0.989   0.272  1.5455  1.1495 -1.3685
14056SOL    HW243411   2.465   1.016   0.182 -0.3786 -1.7125  0.2054
14057SOL     OW43412   7.915   2.492   0.095 -0.4663  0.0964  0.1484
14057SOL    HW143413   7.992   2.474   0.041  0.0246  2.5165 -0.0366
14057SOL    HW243414   7.920   2.427   0.166  1.3915 -0.2008 -0.2165
14058SOL     OW43415   3.426   2.911   5.335  1.2364  0.1513 -0.1487
14058SOL    HW143416   3.337   2.940   5.314  2.1413  1.5372 -2.2270
14058SOL    HW243417   3.434   2.924   5.430 -0.5849  0.5077 -0.0241
14059SOL     OW43418   0.577   7.326   1.641  0.5581 -0.3052  0.9685
14059SOL    HW143419   0.596   7.377   1.719 -0.6908  0.0869  1.0182
14059SOL    HW243420   0.519   7.382   1.589 -0.6592 -1.5821  0.9275
14060SOL     OW43421   0.193   4.006   0.411  0.0888 -0.1404 -0.1504
14060SOL    HW143422   0.102   4.012   0.385  0.0147  0.9017  0.3509
14060SOL    HW243423   0.236   3.959   0.339 -1.0169 -1.5024  0.0598
14061SOL     OW43424   4.954   6.825   6.363 -0.2877  0.2975 -0.1737
14061SOL    HW143425   5.022   6.773   6.405 -0.3784  1.4185  1.3716
14061SOL    HW243426   5.001   6.882   6.302  0.0353  0.0862 -0.1213
14062SOL     OW43427   0.599   1.961   1.656  0.0018 -0.3401 -0.2948
14062SOL    HW143428   0.654   1.924   1.588 -0.1821  0.2748 -0.7834
14062SOL    HW243429   0.574   1.886   1.711 -0.2750 -0.9196 -1.2057
14063SOL     OW43430   4.575   7.745   6.365 -0.7116 -0.1512  0.4717
14063SOL    HW143431   4.586   7.670   6.423 -0.2158  0.1714  0.8010
14063SOL    HW243432   4.527   7.810   6.417  0.0817  0.2914  0.6728
14064SOL     OW43433   5.159   6.366   6.745  0.0264  0.9284  0.6808
14064SOL    HW143434   5.128   6.408   6.665 -1.7882  0.8979  1.3318
14064SOL    HW243435   5.200   6.284   6.716  0.5070  1.5067 -0.3007
14065SOL     OW43436   6.981   1.958   6.535 -0.5032  0.5604 -0.7284
14065SOL    HW143437   7.021   2.038   6.501  2.6949 -1.0394 -0.9370
14065SOL    HW243438   6.921   1.930   6.466  0.9802  0.9095 -2.1765
14066SOL     OW43439   2.922   6.787   4.403  0.2880  0.2572 -1.3245
14066SOL    HW143440   2.981   6.862   4.414 -0.8831  0.9604  0.4918
14066SOL    HW243441   2.965   6.717   4.452 -0.1875  0.6709 -0.2932
14067SOL     OW43442   6.317   4.675   0.112  0.0818  0.2187 -0.2152
14067SOL    HW143443   6.402   4.696   0.150 -0.2141 -4.2927  3.3674
14067SOL    HW243444   6.337   4.628   0.031  1.0010 -0.0391  0.1625
14068SOL     OW43445   1.296   1.771   6.389 -0.3090 -0.6865  0.0797
14068SOL    HW143446   1.248   1.830   6.448 -0.0198  0.5126 -0.8531
14068SOL    HW243447   1.234   1.754   6.318  0.1202 -0.3079 -0.3917
14069SOL     OW43448   2.856   4.991   6.818  0.3952  0.0808  0.5861
14069SOL    HW143449   2.775   4.941   6.829  0.8573 -0.7470  0.2237
14069SOL    HW243450   2.896   4.956   6.739 -0.3317  2.4957 -0.8898
14070SOL     OW43451   5.057   5.721   6.487  0.5657  0.0072 -0.2298
14070SOL    HW143452   4.982   5.776   6.509  1.9404  2.1225 -0.7107
14070SOL    HW243453   5.024   5.660   6.421 -0.5753  1.3266 -0.8907
14071SOL     OW43454   1.446   5.963   3.889 -0.0191 -0.8696 -0.0338
14071SOL    HW143455   1.445   5.954   3.793 -0.5180  2.0728 -0.3460
14071SOL    HW243456   1.359   5.936   3.917 -0.7043  0.5743 -0.6933
14072SOL     OW43457   6.902   2.296   3.309  0.5419 -0.1808 -0.0524
14072SOL    HW143458   6.973   2.231   3.316  0.0673 -0.9733 -2.2026
14072SOL    HW243459   6.940   2.367   3.258  0.6219  0.6350  1.1278
14073SOL     OW43460   4.690   7.691   2.023  0.2841 -0.3707 -0.0708
14073SOL    HW143461   4.621   7.745   2.060 -1.5929 -1.3233 -2.0816
14073SOL    HW243462   4.667   7.682   1.930  2.5368 -1.5753 -0.5627
14074SOL     OW43463   5.075   4.681   1.473  0.5180 -0.2060  0.0309
14074SOL    HW143464   4.998   4.689   1.529  0.5800  1.2384 -0.0673
14074SOL    HW243465   5.085   4.768   1.433  1.5348 -0.7005 -0.8180
14075SOL     OW43466   3.171   1.576   7.509  0.2725  0.3818 -0.0857
14075SOL    HW143467   3.210   1.611   7.589  0.0577 -0.0880  0.2236
14075SOL    HW243468   3.143   1.488   7.532  0.5236  0.1196 -0.7819
14076SOL     OW43469   6.667   1.830   4.990  0.1983 -0.3307  0.4749
14076SOL    HW143470   6.623   1.754   5.028  2.4079 -1.8016  0.1757
14076SOL    HW243471   6.760   1.808   4.992  0.7395  1.5721 -1.3782
14077SOL     OW43472   2.281   2.814   3.099 -0.1924 -0.3350 -0.0681
14077SOL    HW143473   2.263   2.729   3.139  1.2910 -0.6928 -0.1425
14077SOL    HW243474   2.339   2.795   3.025  1.2936  0.8739  0.7462
14078SOL     OW43475   8.023   8.294   6.239 -0.3003 -0.3324 -0.2454
14078SOL    HW143476   8.069   8.326   6.162 -0.9005 -0.4419 -0.6536
14078SOL    HW243477   7.931   8.292   6.213 -0.6872  1.0160  0.9439
14079SOL     OW43478   1.288   6.050   4.612  0.1648 -0.5594  0.0453
14079SOL    HW143479   1.252   6.005   4.688  1.8868 -1.0753  0.5769
14079SOL    HW243480   1.282   5.987   4.541 -0.0711 -0.6036  0.1045
14080SOL     OW43481   8.163   5.282   6.530 -0.4755  0.0631 -0.0998
14080SOL    HW143482   8.150   5.191   6.504  0.7222 -0.3790  0.7645
14080SOL    HW243483   8.226   5.277   6.602 -0.0739  1.6046 -0.3231
14081SOL     OW43484   5.291   1.021   6.219 -0.4450  0.1996  0.4016
14081SOL    HW143485   5.270   0.927   6.218 -1.0586  0.3408 -1.4678
14081SOL    HW243486   5.331   1.038   6.134 -0.6713  1.7197  0.5817
14082SOL     OW43487   0.031   2.726   2.575 -0.5839 -0.5214 -0.0659
14082SOL    HW143488   0.073   2.641   2.584  1.4455  0.4259 -0.4213
14082SOL    HW243489   0.009   2.732   2.482 -1.5608 -1.0330  0.1274
14083SOL     OW43490   5.658   1.720   5.371 -0.1219 -0.7730  0.9490
14083SOL    HW143491   5.579   1.671   5.345  0.5471 -1.2458 -0.1919
14083SOL    HW243492   5.731   1.666   5.341  0.6505  1.3281 -1.0807
14084SOL     OW43493   0.502   6.601   7.361  0.4485  0.0849 -0.5353
14084SOL    HW143494   0.580   6.572   7.314  1.0817  0.0991  0.4929
14084SOL    HW243495   0.429   6.558   7.316  1.1397 -0.8096 -0.8087
14085SOL     OW43496   5.838   1.572   4.275  0.6224 -0.0839  0.2182
14085SOL    HW143497   5.893   1.588   4.197  1.4802  0.9179  1.0137
14085SOL    HW243498   5.749   1.591   4.245  1.1017  1.7722 -0.1461
14086SOL     OW43499   6.383   5.923   5.212 -0.0331  0.3222  0.1201
14086SOL    HW143500   6.315   5.866   5.248  0.2358 -0.1315 -0.0751
14086SOL    HW243501   6.341   5.965   5.137 -0.6339  1.3726  1.0252
14087SOL     OW43502   2.432   2.344   5.835  0.1375 -0.4312  0.0015
14087SOL    HW143503   2.464   2.260   5.868 -0.4417 -0.8918 -0.5804
14087SOL    HW243504   2.476   2.355   5.751  0.6128  0.1023  0.3234
14088SOL     OW43505   7.125   8.265   4.066 -0.2763  0.2954  0.3623
14088SOL    HW143506   7.196   8.232   4.010  0.3279  0.8189  0.8137
14088SOL    HW243507   7.165   8.338   4.114 -0.3643 -1.0550  2.5457
14089SOL     OW43508   6.395   6.854   3.502  0.3435 -0.2240  0.3772
14089SOL    HW143509   6.384   6.920   3.570  1.1407  0.4351 -0.1357
14089SOL    HW243510   6.481   6.816   3.520  0.0896 -0.7994  0.3867
14090SOL     OW43511   7.567   2.247   6.710  0.3743  0.1553 -0.5181
14090SOL    HW143512   7.488   2.200   6.737  1.5073 -0.5668  1.6645
14090SOL    HW243513   7.576   2.228   6.617 -2.5143  0.9853 -1.0285
14091SOL     OW43514   3.899   7.323   0.968 -0.0367  0.3493 -0.1527
14091SOL    HW143515   3.884   7.347   0.876  0.0467 -2.0655 -0.8364
14091SOL    HW243516   3.816   7.286   0.996  0.7247 -1.3315 -0.0711
14092SOL     OW43517   2.272   8.100   4.187  0.1940  0.2138 -0.5228
14092SOL    HW143518   2.354   8.096   4.138  0.5320 -1.5677  0.1665
14092SOL    HW243519   2.204   8.083   4.121  0.5816 -1.2546 -0.5534
14093SOL     OW43520   1.762   3.639   0.766  0.7089  0.5738 -0.0127
14093SOL    HW143521   1.700   3.594   0.823  2.4227  0.0824  1.5247
14093SOL    HW243522   1.719   3.643   0.680 -0.4080 -1.9487  0.4064
14094SOL     OW43523   7.953   7.406   4.796 -0.2876  0.0214  0.1042
14094SOL    HW143524   8.047   7.411   4.784 -0.3423  0.9700  0.0584
14094SOL    HW243525   7.938   7.317   4.829  0.6295 -0.0961  0.2148
14095SOL     OW43526   6.834   4.834   1.571 -0.2381  0.3312 -0.6020
14095SOL    HW143527   6.893   4.786   1.630 -1.9434  0.5103  1.2793
14095SOL    HW243528   6.808   4.770   1.505 -0.5487 -0.6634  0.4750
14096SOL     OW43529   3.482   7.374   4.303  0.6635  0.2228  0.1921
14096SOL    HW143530   3.569   7.348   4.332  0.1495 -0.7174  0.9308
14096SOL    HW243531   3.497   7.438   4.234  1.9565 -0.9289 -0.6025
14097SOL     OW43532   3.394   1.603   1.201 -0.0965 -0.1627 -0.2618
14097SOL    HW143533   3.385   1.540   1.272  2.5061 -0.5446 -0.2381
14097SOL    HW243534   3.349   1.563   1.127 -1.2640 -0.5660  0.6569
14098SOL     OW43535   8.171   0.368   6.597 -0.3744  0.0661  0.2956
14098SOL    HW143536   8.126   0.309   6.658 -0.8456 -0.3347 -0.4255
14098SOL    HW243537   8.151   0.331   6.510  2.4424 -0.8924  0.0116
14099SOL     OW43538   8.159   3.214   7.141  0.3590 -0.3017  0.1028
14099SOL    HW143539   8.239   3.162   7.139  0.1724 -0.7062  1.7861
14099SOL    HW243540   8.089   3.150   7.151  0.0752  0.1933  1.5091
14100SOL     OW43541   7.869   7.260   1.364  0.2300 -0.2247 -0.4919
14100SOL    HW143542   7.915   7.342   1.350 -0.3180 -0.1117 -1.6637
14100SOL    HW243543   7.938   7.196   1.379  0.7057  0.2223 -0.7614
14101SOL     OW43544   5.892   2.200   4.260 -0.4225 -0.0484  0.3639
14101SOL    HW143545   5.912   2.110   4.235 -1.7924  0.1316 -1.4252
14101SOL    HW243546   5.802   2.197   4.291 -0.6595  0.8206 -0.2346
14102SOL     OW43547   4.924   4.794   6.450  0.0933  0.2452  0.3360
14102SOL    HW143548   4.964   4.724   6.400  2.8421  1.3122  0.9663
14102SOL    HW243549   4.977   4.801   6.530 -0.1549  2.9280  0.3402
14103SOL     OW43550   2.895   4.329   6.047  0.0875  0.0474 -0.7679
14103SOL    HW143551   2.810   4.286   6.043  0.1035  0.0900 -1.7099
14103SOL    HW243552   2.957   4.257   6.062  0.1054 -0.2672 -2.2754
14104SOL     OW43553   0.407   6.491   7.774  0.3078 -0.5288  0.0706
14104SOL    HW143554   0.387   6.570   7.725 -1.0610 -0.0548  1.3168
14104SOL    HW243555   0.385   6.419   7.715 -2.1849  0.0260  0.2445
14105SOL     OW43556   5.529   3.806   6.258  0.0571 -0.8231  0.0574
14105SOL    HW143557   5.599   3.843   6.313  0.3341 -1.9741  0.4841
14105SOL    HW243558   5.449   3.839   6.298  0.2547 -1.7151  1.2232
14106SOL     OW43559   7.313   2.741   5.874  0.3623 -0.0936  0.3086
14106SOL    HW143560   7.346   2.655   5.847 -1.2956 -0.9870  1.0635
14106SOL    HW243561   7.219   2.729   5.884  0.2098  1.6242  1.1714
14107SOL     OW43562   7.839   4.850   1.873  0.0062 -0.9357 -0.3471
14107SOL    HW143563   7.829   4.863   1.967 -1.3719 -0.8944 -0.4857
14107SOL    HW243564   7.861   4.758   1.863 -1.8782 -1.4426 -0.0912
14108SOL     OW43565   4.610   2.558   6.264 -0.5668  0.3831 -0.3172
14108SOL    HW143566   4.656   2.631   6.304  2.6142 -0.9731 -1.3711
14108SOL    HW243567   4.667   2.483   6.277 -2.2661 -1.2804 -2.0540
14109SOL     OW43568   5.140   7.068   5.767 -0.5206  0.2834 -0.4122
14109SOL    HW143569   5.097   7.037   5.688 -0.7471  0.9027 -0.5388
14109SOL    HW243570   5.069   7.075   5.831 -0.8461  2.4509 -0.9634
14110SOL     OW43571   5.104   0.852   2.308  0.8538 -0.0727 -0.1139
14110SOL    HW143572   5.170   0.905   2.262 -0.1396  0.0889 -1.3926
14110SOL    HW243573   5.032   0.913   2.324  1.0261 -0.2371  1.3271
14111SOL     OW43574   5.312   7.927   7.640  0.1000 -0.0249  0.3056
14111SOL    HW143575   5.293   8.001   7.583 -0.7106 -0.1626  0.3926
14111SOL    HW243576   5.292   7.958   7.728  0.6426 -0.0524  0.4397
14112SOL     OW43577   7.027   1.498   0.138 -0.5197  0.7426 -0.5151
14112SOL    HW143578   7.100   1.441   0.163 -0.6743  0.6334 -0.3174
14112SOL    HW243579   6.948   1.446   0.155 -0.6104  0.4876 -1.6701
14113SOL     OW43580   0.499   6.635   5.121 -0.0578  0.7704  0.6842
14113SOL    HW143581   0.545   6.552   5.109 -0.4864  0.3834  1.6401
14113SOL    HW243582   0.559   6.701   5.086  0.1409  0.0269 -0.3853
14114SOL     OW43583   2.470   7.341   1.082 -0.3796  0.1672 -0.0020
14114SOL    HW143584   2.503   7.322   1.170 -0.4237 -0.8829 -0.2005
14114SOL    HW243585   2.479   7.436   1.073 -2.5753  0.6481  2.0437
14115SOL     OW43586   1.279   4.826   1.221  0.1149  0.4251  0.2334
14115SOL    HW143587   1.280   4.872   1.138  2.7321 -1.0587 -0.6185
14115SOL    HW243588   1.283   4.733   1.197 -1.1587 -0.0989  1.9754
14116SOL     OW43589   6.599   3.102   5.646  0.2383 -0.0707  0.4827
14116SOL    HW143590   6.552   3.151   5.579  1.2613 -0.8893 -0.8560
14116SOL    HW243591   6.537   3.096   5.719 -1.3708 -0.3142 -0.8793
14117SOL     OW43592   5.252   5.652   0.730  0.2203  0.3902 -0.5257
14117SOL    HW143593   5.206   5.602   0.797 -1.0947  1.2297 -0.7719
14117SOL    HW243594   5.288   5.728   0.777  0.3845  0.3173 -0.5349
14118SOL     OW43595   6.322   0.643   6.575  0.1884 -0.2918  0.0708
14118SOL    HW143596   6.413   0.621   6.594  0.1843  0.0620  0.4959
14118SOL    HW243597   6.328   0.713   6.510  0.2547  1.1413  1.5838
14119SOL     OW43598   1.300   3.349   1.874 -0.0232 -1.0033 -0.2578
14119SOL    HW143599   1.217   3.380   1.912  0.5020 -1.8404  1.6003
14119SOL    HW243600   1.298   3.255   1.887  2.0174 -0.8407  1.4267
14120SOL     OW43601   4.952   5.528   0.698 -0.0950 -0.0991  0.1000
14120SOL    HW143602   4.980   5.554   0.786 -1.6829 -0.4980  0.7434
14120SOL    HW243603   4.856   5.527   0.703 -0.2431  1.2430 -2.0444
14121SOL     OW43604   6.379   6.825   4.209  0.1002  0.4879  0.0885
14121SOL    HW143605   6.461   6.786   4.240  1.3046  1.9840 -1.0908
14121SOL    HW243606   6.311   6.765   4.238  1.5455 -0.3777  1.7971
14122SOL     OW43607   6.445   2.560   1.254  0.2416  0.0488 -0.0494
14122SOL    HW143608   6.396   2.636   1.223  0.9842  0.0655 -1.2318
14122SOL    HW243609   6.481   2.520   1.174  0.1539 -1.3446  0.5838
14123SOL     OW43610   2.062   4.738   5.355  0.0658  0.6529  0.5182
14123SOL    HW143611   2.090   4.674   5.420 -0.8091 -1.4036 -1.0688
14123SOL    HW243612   2.132   4.803   5.352  1.9173 -1.3162  0.6956
14124SOL     OW43613   7.183   2.316   5.190  0.2577 -0.3668 -0.1915
14124SOL    HW143614   7.264   2.351   5.226 -0.7322 -0.9620  2.7348
14124SOL    HW243615   7.125   2.392   5.183  0.6597 -0.1411 -1.1983
14125SOL     OW43616   1.651   2.090   3.272 -0.2684  0.1898  1.0860
14125SOL    HW143617   1.697   2.156   3.324 -0.8656 -0.2392  2.1651
14125SOL    HW243618   1.709   2.073   3.198  0.3253  1.2276  1.3074
14126SOL     OW43619   4.024   6.259   3.272  0.1340  0.1426 -0.3099
14126SOL    HW143620   4.057   6.182   3.225 -0.4017  0.6636 -1.5666
14126SOL    HW243621   3.939   6.231   3.306 -1.0441  0.8059 -2.5775
14127SOL     OW43622   2.812   0.599   0.958  0.2132 -0.5210 -0.3631
14127SOL    HW143623   2.805   0.683   0.913  1.5831 -0.8737 -1.2681
14127SOL    HW243624   2.887   0.556   0.918 -0.5375 -2.2405  0.0112
14128SOL     OW43625   1.405   1.715   5.663 -0.2006  0.0079 -0.3830
14128SOL    HW143626   1.452   1.794   5.689 -0.4673 -0.1112  0.4872
14128SOL    HW243627   1.414   1.656   5.738 -2.0450  0.1324 -0.0411
14129SOL     OW43628   4.126   3.564   2.982  0.0516  0.1676 -0.1970
14129SOL    HW143629   4.102   3.652   3.013  2.3436  1.0444 -0.7966
14129SOL    HW243630   4.080   3.555   2.899 -2.2093 -0.2429  1.0492
14130SOL     OW43631   0.838   7.974   5.294 -0.0699 -0.3843  0.2770
14130SOL    HW143632   0.897   8.008   5.362 -0.2464 -1.5784  1.0351
14130SOL    HW243633   0.760   8.030   5.300  0.4276  0.3337  0.1824
14131SOL     OW43634   6.577   4.808   8.125 -0.2479  0.4329  0.0339
14131SOL    HW143635   6.618   4.782   8.208 -1.8717  1.4586  1.1852
14131SOL    HW243636   6.540   4.726   8.091  0.9879 -0.1160 -0.0069
14132SOL     OW43637   0.351   7.535   6.215 -0.2379  0.0520  0.0936
14132SOL    HW143638   0.421   7.592   6.185 -0.7206 -0.2820 -1.7591
14132SOL    HW243639   0.307   7.585   6.284  0.7025  0.9951  0.0183
14133SOL     OW43640   1.387   1.764   1.891 -0.4246 -0.0002 -0.3903
14133SOL    HW143641   1.315   1.787   1.950 -0.1869  1.2114 -0.5600
14133SOL    HW243642   1.433   1.693   1.935 -2.2653 -1.4341 -0.6954
14134SOL     OW43643   4.257   7.250   0.949 -0.2414  0.1988  0.2749
14134SOL    HW143644   4.194   7.178   0.951 -0.6063  0.1816 -4.3979
14134SOL    HW243645   4.337   7.214   0.986 -0.4258 -2.6847 -1.9346
14135SOL     OW43646   3.916   6.166   2.401  0.3546  0.1141 -0.5478
14135SOL    HW143647   3.892   6.201   2.487  0.6983 -1.8228  0.3665
14135SOL    HW243648   3.881   6.077   2.400 -0.0233  0.2484 -2.6016
14136SOL     OW43649   5.717   5.892   0.418  0.3055  0.2761 -0.5619
14136SOL    HW143650   5.798   5.934   0.445  0.2109 -1.0005  1.8601
14136SOL    HW243651   5.685   5.848   0.497 -1.7897 -0.7722 -1.9339
14137SOL     OW43652   4.617   0.692   7.743 -0.4653 -0.8354  0.2741
14137SOL    HW143653   4.586   0.644   7.666 -0.6371 -1.4612  0.7329
14137SOL    HW243654   4.626   0.783   7.712 -0.2023 -1.1412 -0.5724
14138SOL     OW43655   1.033   6.887   3.537 -0.2708 -0.1229  0.2618
14138SOL    HW143656   1.033   6.972   3.493  1.5855  0.5789  1.5456
14138SOL    HW243657   0.980   6.901   3.616  1.8219  0.4921  1.5981
14139SOL     OW43658   0.957   3.289   1.194  0.0309 -0.2326  0.1316
14139SOL    HW143659   1.023   3.264   1.130  0.9411 -0.8513  1.2850
14139SOL    HW243660   0.958   3.218   1.259 -0.1341  0.8661  1.3669
14140SOL     OW43661   2.291   8.166   3.362 -0.0334 -0.0335 -0.0094
14140SOL    HW143662   2.323   8.152   3.273  0.8655  0.0787  0.2902
14140SOL    HW243663   2.351   8.115   3.417 -0.7606 -0.3438  0.5078
14141SOL     OW43664   5.202   4.382   7.969  0.2825  0.2077 -0.4309
14141SOL    HW143665   5.171   4.472   7.977 -0.6678 -0.1746  0.2235
14141SOL    HW243666   5.259   4.369   8.044  1.9928  0.8785 -1.5798
14142SOL     OW43667   7.919   3.710   6.113 -0.1827  0.2455 -0.0342
14142SOL    HW143668   7.937   3.802   6.097  0.4986 -0.1579 -1.6380
14142SOL    HW243669   8.005   3.668   6.114 -0.5166 -0.4466  0.2305
14143SOL     OW43670   0.103   4.438   2.367 -0.1802 -0.4037  0.0030
14143SOL    HW143671   0.134   4.528   2.375  0.1667 -0.4958 -0.2998
14143SOL    HW243672   0.028   4.443   2.308  0.6106 -0.4789 -1.0435
14144SOL     OW43673   1.029   5.228   2.973 -0.5276 -0.2792 -0.3880
14144SOL    HW143674   1.070   5.282   2.906 -1.4369  1.2361  0.2533
14144SOL    HW243675   0.937   5.221   2.945 -1.0247  0.7663  0.9329
14145SOL     OW43676   0.666   6.286   7.486  0.2088  0.2933  0.2676
14145SOL    HW143677   0.718   6.364   7.506 -0.6970  0.8849  0.3145
14145SOL    HW243678   0.672   6.233   7.566  0.2747  0.6224  0.4818
14146SOL     OW43679   7.308   1.281   1.200  0.2539  0.2358 -0.1294
14146SOL    HW143680   7.328   1.374   1.209  0.5600  0.4209 -2.3748
14146SOL    HW243681   7.393   1.239   1.185 -0.1543 -0.0409 -1.7611
14147SOL     OW43682   3.310   1.948   4.793 -0.1238 -0.4338  0.6423
14147SOL    HW143683   3.315   1.872   4.852  0.0114 -0.3325  0.7641
14147SOL    HW243684   3.270   1.914   4.713 -2.9011  0.0282  1.7880
14148SOL     OW43685   4.804   0.507   4.240 -0.0870 -0.5000  0.2191
14148SOL    HW143686   4.754   0.521   4.320 -2.5828  1.9600 -1.6394
14148SOL    HW243687   4.881   0.563   4.250 -0.2436 -0.4280  1.0550
14149SOL     OW43688   7.260   2.173   7.996  0.1986 -0.0180 -0.1435
14149SOL    HW143689   7.327   2.145   8.059 -0.3318 -0.3185  0.2884
14149SOL    HW243690   7.260   2.104   7.930 -0.8443 -0.8541  0.7231
14150SOL     OW43691   0.517   1.448   1.251 -0.0349 -0.3583  0.8537
14150SOL    HW143692   0.585   1.501   1.292 -0.4470  0.7457  0.1290
14150SOL    HW243693   0.492   1.385   1.319  0.2927  0.5272  1.8154
14151SOL     OW43694   5.222   0.781   5.448 -0.6087 -0.2286  0.2929
14151SOL    HW143695   5.283   0.724   5.495 -0.6437 -0.2783  0.2778
14151SOL    HW243696   5.250   0.870   5.470 -1.2228 -0.2494  1.1818
14152SOL     OW43697   5.914   1.397   3.112 -0.0784 -0.1649 -0.0803
14152SOL    HW143698   5.983   1.347   3.069 -0.3002 -0.1324 -0.4696
14152SOL    HW243699   5.896   1.469   3.052 -0.0046  0.1843  0.3164
14153SOL     OW43700   0.325   1.168   4.222  0.0435 -0.1840 -0.0254
14153SOL    HW143701   0.315   1.151   4.316  1.6032 -1.0469 -0.0028
14153SOL    HW243702   0.304   1.084   4.180 -1.0168  0.3013 -0.4830
14154SOL     OW43703   7.999   6.391   0.404  0.0248 -0.1274  0.5344
14154SOL    HW143704   7.985   6.367   0.496 -1.1575 -0.1125  0.3627
14154SOL    HW243705   8.077   6.341   0.378 -2.2073 -3.6734  0.2542
14155SOL     OW43706   8.269   7.199   4.073 -0.5867  0.0960  0.1995
14155SOL    HW143707   8.343   7.138   4.067  0.0857  0.9029  0.2387
14155SOL    HW243708   8.230   7.197   3.986 -0.9873 -0.9049  0.3881
14156SOL     OW43709   3.234   1.852   5.445 -0.2767 -0.2974 -1.1614
14156SOL    HW143710   3.285   1.788   5.495 -1.1340  0.0049  0.1340
14156SOL    HW243711   3.179   1.798   5.388 -1.1922 -0.7595  0.1195
14157SOL     OW43712   4.737   6.887   7.682 -0.4219  0.1728  0.3341
14157SOL    HW143713   4.816   6.840   7.709  0.1386  1.3312  0.7506
14157SOL    HW243714   4.769   6.971   7.649 -1.4403  0.4624  0.0564
14158SOL     OW43715   4.920   0.979   5.618  0.4354 -0.0957  0.0617
14158SOL    HW143716   4.930   0.891   5.655  0.0105 -0.0681  0.2407
14158SOL    HW243717   4.969   1.035   5.678  0.1749 -0.1232  0.3019
14159SOL     OW43718   8.087   4.276   5.634  0.0318  0.3911  0.4975
14159SOL    HW143719   8.093   4.267   5.539  1.0721 -0.1278  0.5995
14159SOL    HW243720   7.994   4.285   5.651  0.0124  2.9928 -0.7765
14160SOL     OW43721   1.177   5.725   7.967 -0.0398 -0.0785 -0.1214
14160SOL    HW143722   1.096   5.711   8.017  0.5601 -0.0562  0.8674
14160SOL    HW243723   1.152   5.709   7.876 -1.2460  0.2824  0.1355
14161SOL     OW43724   0.946   4.736   6.689 -0.8666 -0.1301 -0.3002
14161SOL    HW143725   1.032   4.774   6.704 -1.3942  0.9397  0.0598
14161SOL    HW243726   0.902   4.741   6.774 -1.8446  0.7815 -0.8519
14162SOL     OW43727   0.360   3.978   6.923  0.0913 -0.2527 -0.3958
14162SOL    HW143728   0.408   3.896   6.913 -0.3715 -0.7684  1.2924
14162SOL    HW243729   0.376   4.026   6.842  1.6863 -1.3232 -0.7394
14163SOL     OW43730   2.788   5.530   0.451 -0.1012 -0.0698 -0.0921
14163SOL    HW143731   2.840   5.461   0.409 -0.2390 -0.8398  0.9836
14163SOL    HW243732   2.849   5.573   0.510  0.1811  1.2399 -1.3155
14164SOL     OW43733   3.559   1.685   3.452 -0.2317  0.5691 -0.2974
14164SOL    HW143734   3.654   1.697   3.461 -0.5134  2.3298  0.6608
14164SOL    HW243735   3.524   1.774   3.453 -2.0043 -0.1152  0.5699
14165SOL     OW43736   6.584   6.753   0.297 -0.5409 -0.1744 -0.3082
14165SOL    HW143737   6.561   6.763   0.389  4.0658 -0.1866  0.9695
14165SOL    HW243738   6.532   6.678   0.267 -0.8765 -1.2119  2.7407
14166SOL     OW43739   5.132   7.219   2.193  0.2306 -0.2515 -0.1638
14166SOL    HW143740   5.147   7.132   2.229 -1.5119 -0.8724 -0.9157
14166SOL    HW243741   5.112   7.273   2.270  0.7442 -0.6274  0.2398
14167SOL     OW43742   3.531   2.306   2.683  0.3914  0.0528  0.7484
14167SOL    HW143743   3.589   2.380   2.666  0.3227  0.2360  1.2933
14167SOL    HW243744   3.588   2.240   2.724  0.1842  0.3018  1.4497
14168SOL     OW43745   4.583   2.205   0.418 -0.4030 -0.0230 -0.0142
14168SOL    HW143746   4.652   2.271   0.410 -0.7034  0.4014  0.8565
14168SOL    HW243747   4.515   2.247   0.470 -1.2921 -0.4677 -0.8096
14169SOL     OW43748   6.061   4.715   1.862  0.0488  0.0518 -0.6398
14169SOL    HW143749   5.991   4.771   1.828 -0.4401  0.8971  1.6173
14169SOL    HW243750   6.086   4.659   1.789 -0.8218  1.8904 -2.3824
14170SOL     OW43751   4.488   0.949   4.836 -0.0163 -0.4959 -0.2056
14170SOL    HW143752   4.537   1.011   4.781  0.6956 -0.3194  0.5988
14170SOL    HW243753   4.551   0.924   4.904 -1.1929  0.1234  1.1492
14171SOL     OW43754   4.460   0.034   0.650 -0.4938  0.0917 -0.7114
14171SOL    HW143755   4.388  -0.007   0.698 -0.0098 -0.6355 -0.5888
14171SOL    HW243756   4.444   0.128   0.657 -0.3411  0.0041  1.0193
14172SOL     OW43757   3.079   6.797   1.654 -0.3536  0.1873  0.1015
14172SOL    HW143758   3.078   6.735   1.582 -0.5475 -0.7822  0.9257
14172SOL    HW243759   3.083   6.742   1.733  3.4877  1.2688  0.7409
14173SOL     OW43760   8.136   4.903   0.230 -0.6208 -0.5439 -0.1629
14173SOL    HW143761   8.200   4.939   0.168 -1.0054 -1.8345 -1.3068
14173SOL    HW243762   8.058   4.957   0.217 -1.4219 -2.1798 -2.3633
14174SOL     OW43763   2.386   4.019   0.301  0.2552  0.0601 -0.0168
14174SOL    HW143764   2.329   3.947   0.329 -0.7665  1.0128  0.3856
14174SOL    HW243765   2.326   4.090   0.279  1.2336  0.6119 -0.9379
14175SOL     OW43766   1.988   4.895   3.623  0.4141  0.1018  0.2352
14175SOL    HW143767   2.012   4.806   3.596  0.3663  0.7851 -2.2017
14175SOL    HW243768   1.898   4.887   3.655  1.3540 -1.1995  2.6265
14176SOL     OW43769   3.258   7.401   0.636  0.2328 -0.1644  0.6274
14176SOL    HW143770   3.176   7.412   0.683  0.7646  1.4889  1.1915
14176SOL    HW243771   3.236   7.344   0.562 -1.4061  0.2348  0.7920
14177SOL     OW43772   2.538   4.244   7.272 -0.2350 -0.6032 -0.5334
14177SOL    HW143773   2.446   4.218   7.283 -0.5185  0.2052 -0.9578
14177SOL    HW243774   2.572   4.184   7.206 -0.6957 -0.3587 -0.9989
14178SOL     OW43775   3.388   4.609   3.207  0.3360 -0.7896  0.7324
14178SOL    HW143776   3.388   4.701   3.234 -0.4490 -0.5113 -0.2024
14178SOL    HW243777   3.296   4.589   3.190  0.6512 -1.3712 -0.3356
14179SOL     OW43778   3.725   3.333   6.115  0.7844 -0.2231  0.3212
14179SOL    HW143779   3.752   3.373   6.032  0.6349 -1.7369 -0.4871
14179SOL    HW243780   3.802   3.284   6.143  0.0091 -1.8179 -0.2656
14180SOL     OW43781   0.287   0.464   5.471 -0.2119 -0.0294  0.2553
14180SOL    HW143782   0.208   0.472   5.417 -0.5220  0.8022  0.8283
14180SOL    HW243783   0.269   0.389   5.528 -0.4367 -0.0677  0.1340
14181SOL     OW43784   6.851   1.433   0.875 -0.2389 -0.0931 -0.4883
14181SOL    HW143785   6.841   1.494   0.802  0.0761  1.1185  0.4609
14181SOL    HW243786   6.910   1.365   0.842 -0.2976  0.3112 -1.4380
14182SOL     OW43787   2.223   1.132   6.917  0.3520  0.1273  0.5445
14182SOL    HW143788   2.227   1.132   7.013  0.4325 -0.5037  0.5386
14182SOL    HW243789   2.266   1.051   6.891 -0.0280  0.1054 -0.0112
14183SOL     OW43790   3.755   1.484   6.323  0.2696  0.1350 -0.7242
14183SOL    HW143791   3.671   1.451   6.291  0.5491 -1.8605  0.5202
14183SOL    HW243792   3.821   1.433   6.276  0.7558  0.4118 -0.3533
14184SOL     OW43793   1.972   2.194   7.091 -0.1770  0.2316  0.1937
14184SOL    HW143794   1.928   2.149   7.162 -0.6507  0.7780  0.2529
14184SOL    HW243795   1.992   2.281   7.126  1.3868 -0.1686  0.3278
14185SOL     OW43796   1.971   7.336   6.087 -0.3468  0.4196 -0.7838
14185SOL    HW143797   1.881   7.367   6.079 -0.7965 -1.2289 -2.3566
14185SOL    HW243798   1.968   7.245   6.060  1.4273 -0.3085  1.2982
14186SOL     OW43799   3.355   7.599   5.688  0.2640 -0.6000 -0.5312
14186SOL    HW143800   3.434   7.603   5.635 -0.4128  0.3387 -1.5045
14186SOL    HW243801   3.318   7.688   5.682 -0.5652 -0.8762  0.3529
14187SOL     OW43802   2.665   1.626   2.467  0.1254 -0.5537 -0.0633
14187SOL    HW143803   2.698   1.628   2.377  2.9617  2.6305  0.9934
14187SOL    HW243804   2.724   1.566   2.512 -0.0616 -0.5740  0.1517
14188SOL     OW43805   5.412   2.661   4.605 -0.7488 -0.2498  0.0674
14188SOL    HW143806   5.431   2.579   4.650 -0.6791  0.2412  0.9485
14188SOL    HW243807   5.342   2.639   4.544  0.0914 -1.2289 -0.5499
14189SOL     OW43808   7.816   1.151   5.465  0.1742  0.4398  0.2615
14189SOL    HW143809   7.864   1.083   5.418  0.2965  0.1913  0.7374
14189SOL    HW243810   7.795   1.111   5.550 -1.2250  0.3991 -0.0931
14190SOL     OW43811   3.285   1.860   6.875 -0.0101  0.4394  0.5254
14190SOL    HW143812   3.356   1.879   6.813  1.8885 -1.2726  2.1005
14190SOL    HW243813   3.206   1.855   6.821  1.3884  0.2946 -1.5547
14191SOL     OW43814   5.925   4.878   8.124  0.0490  0.6179  0.1639
14191SOL    HW143815   5.983   4.857   8.197 -0.0827 -1.5649 -0.3266
14191SOL    HW243816   5.840   4.894   8.165  0.0074 -0.4575  0.5197
14192SOL     OW43817   4.723   5.325   0.721  0.0867 -0.1192  0.3259
14192SOL    HW143818   4.652   5.299   0.661 -1.5766  0.0023  2.1812
14192SOL    HW243819   4.769   5.243   0.741 -0.1943 -0.3747 -0.0726
14193SOL     OW43820   4.675   0.645   6.729  0.4831  0.2023 -0.1407
14193SOL    HW143821   4.590   0.621   6.767  1.1880 -0.5055  1.0334
14193SOL    HW243822   4.668   0.739   6.714  0.3293  0.5988  2.2249
14194SOL     OW43823   1.450   3.370   2.977 -0.4949  0.5293 -1.0150
14194SOL    HW143824   1.395   3.351   2.902 -2.7171  0.3704  0.5942
14194SOL    HW243825   1.388   3.392   3.047  1.4129 -1.1888  1.2926
14195SOL     OW43826   0.082   5.921   7.433  0.0351 -0.4424 -0.7631
14195SOL    HW143827   0.124   5.974   7.365  1.8847 -0.6863  0.1467
14195SOL    HW243828  -0.007   5.955   7.438  1.0697  2.3967 -0.4276
14196SOL     OW43829   2.024   5.917   5.672  0.1824 -0.0113  0.5756
14196SOL    HW143830   2.028   5.995   5.618  1.4542 -0.3219  0.2248
14196SOL    HW243831   1.956   5.862   5.631  0.3758  0.2300 -0.0555
14197SOL     OW43832   3.298   0.658   1.546 -0.0197 -0.4023  0.0836
14197SOL    HW143833   3.216   0.610   1.550  0.5031 -1.3002  0.0635
14197SOL    HW243834   3.332   0.656   1.635 -1.9601  3.4316  1.0317
14198SOL     OW43835   4.690   4.085   4.137 -0.0003  0.7603 -0.1498
14198SOL    HW143836   4.771   4.068   4.185  0.0895 -0.1321 -0.6026
14198SOL    HW243837   4.719   4.127   4.056 -0.1560  2.3038  0.5919
14199SOL     OW43838   3.973   5.761   6.881  0.3097  0.3950 -0.4550
14199SOL    HW143839   3.967   5.791   6.791  0.1161  2.1602  0.1161
14199SOL    HW243840   3.889   5.786   6.921  0.7355  0.4517  0.4312
14200SOL     OW43841   0.643   3.437   7.014 -0.1280  0.0819 -0.1249
14200SOL    HW143842   0.693   3.411   7.090 -1.9050  0.9673  1.3845
14200SOL    HW243843   0.657   3.531   7.007 -2.6014  0.5829  1.1290
14201SOL     OW43844   1.630   0.150   2.447 -0.4277  0.7296 -0.4944
14201SOL    HW143845   1.642   0.110   2.361 -0.5054  0.8144 -0.5435
14201SOL    HW243846   1.654   0.242   2.435  1.2308  0.3729 -0.0369
14202SOL     OW43847   3.908   6.298   8.224 -1.0805 -0.2662  0.1997
14202SOL    HW143848   3.870   6.385   8.224  1.9456  1.1230  0.7993
14202SOL    HW243849   3.837   6.240   8.195 -3.0876  2.3732 -0.3071
14203SOL     OW43850   1.365   2.887   2.326  0.2367 -0.3258 -0.2860
14203SOL    HW143851   1.282   2.892   2.372  0.2361  0.0567 -0.3202
14203SOL    HW243852   1.347   2.836   2.248 -0.6732  2.1398 -1.7554
14204SOL     OW43853   4.958   2.756   4.160 -0.0806 -0.0232  0.4303
14204SOL    HW143854   5.047   2.722   4.163  0.6377  1.4063 -2.2648
14204SOL    HW243855   4.965   2.845   4.196 -0.0685  0.6711 -1.2317
14205SOL     OW43856   2.654   5.674   4.567  0.1503  0.4575 -0.3111
14205SOL    HW143857   2.649   5.766   4.593 -2.4062  0.6548 -1.3545
14205SOL    HW243858   2.683   5.629   4.646  1.7860  2.1992  0.1123
14206SOL     OW43859   1.458   3.681   5.580  0.1418  0.0675 -0.2981
14206SOL    HW143860   1.484   3.741   5.510  1.1695  0.7099  0.6099
14206SOL    HW243861   1.527   3.690   5.646 -0.2984 -1.2609  0.3588
14207SOL     OW43862   2.129   0.707   2.609 -0.4843  0.5347 -0.1712
14207SOL    HW143863   2.134   0.797   2.643 -1.3930  0.2935  0.6027
14207SOL    HW243864   2.137   0.652   2.687 -0.8465 -0.0472 -0.5496
14208SOL     OW43865   0.232   4.243   3.515 -0.0013 -0.0716 -0.3568
14208SOL    HW143866   0.137   4.229   3.522  0.1769 -0.5174  1.4256
14208SOL    HW243867   0.248   4.324   3.562  0.5472 -0.1814 -0.3557
14209SOL     OW43868   1.489   1.884   3.408 -0.0848 -0.4613 -0.0048
14209SOL    HW143869   1.538   1.955   3.367 -0.5369  0.3503  0.8536
14209SOL    HW243870   1.477   1.912   3.498  1.2794 -2.4166  0.8378
14210SOL     OW43871   5.485   2.968   6.229  0.1916 -0.2128  0.1790
14210SOL    HW143872   5.431   2.890   6.244  2.0388 -1.4076  0.8152
14210SOL    HW243873   5.552   2.939   6.167  1.2112  0.7223  0.8217
14211SOL     OW43874   7.764   0.890   6.182 -0.5404  0.0371 -0.2611
14211SOL    HW143875   7.768   0.971   6.231  1.3901 -0.6822  0.8160
14211SOL    HW243876   7.687   0.844   6.217 -0.4119  0.4684  0.5771
14212SOL     OW43877   0.517   4.679   2.474 -0.6579 -1.1331  0.4188
14212SOL    HW143878   0.543   4.715   2.389  0.5885  1.1901  1.7148
14212SOL    HW243879   0.597   4.637   2.508 -0.2269  0.7132  1.7790
14213SOL     OW43880   1.727   3.783   4.454 -0.5125  0.0230  0.2348
14213SOL    HW143881   1.707   3.690   4.467 -0.6240  0.1026  0.6135
14213SOL    HW243882   1.667   3.829   4.511 -0.1994  0.3179  0.3279
14214SOL     OW43883   0.894   2.332   7.381 -0.0996 -0.0483 -0.0424
14214SOL    HW143884   0.936   2.314   7.465 -0.9446  1.1447  0.6470
14214SOL    HW243885   0.967   2.355   7.323  0.3398  0.6999  0.7990
14215SOL     OW43886   2.780   1.948   7.060 -0.5000 -0.7477 -0.4383
14215SOL    HW143887   2.731   1.933   7.141  0.1709 -0.7083 -0.0280
14215SOL    HW243888   2.864   1.983   7.088 -0.2562 -0.7532 -1.1511
14216SOL     OW43889   8.032   3.738   7.959 -0.8066 -0.1225 -0.1485
14216SOL    HW143890   8.066   3.681   8.027 -2.9302 -0.0731  0.9849
14216SOL    HW243891   8.080   3.713   7.880  1.1143 -0.7075  1.1881
14217SOL     OW43892   6.184   7.613   5.786 -0.5347  0.3079  0.1370
14217SOL    HW143893   6.262   7.594   5.734 -0.7286  1.0581 -0.4387
14217SOL    HW243894   6.175   7.538   5.845 -0.8667 -1.0142 -1.5663
14218SOL     OW43895   1.995   5.961   4.792  0.5022 -0.6045  0.1308
14218SOL    HW143896   2.075   5.915   4.818  0.2095 -0.7941  0.7236
14218SOL    HW243897   1.957   5.990   4.875 -0.4147 -1.1385 -0.0943
14219SOL     OW43898   5.473   3.302   0.846 -0.4132  0.4001  0.0276
14219SOL    HW143899   5.569   3.302   0.852 -0.4321  0.2143  0.3326
14219SOL    HW243900   5.453   3.380   0.795 -0.1433  0.9007  0.6778
14220SOL     OW43901   6.443   5.588   2.565 -0.3030 -0.3734  0.2894
14220SOL    HW143902   6.401   5.515   2.520  0.6426  0.6616 -2.3260
14220SOL    HW243903   6.442   5.660   2.502  0.6697  1.2607  2.0699
14221SOL     OW43904   1.278   5.102   2.620 -0.2794  0.0121 -0.0424
14221SOL    HW143905   1.293   5.041   2.693 -1.9759  0.0014  0.3185
14221SOL    HW243906   1.295   5.188   2.657 -3.0281  0.1754  0.9571
14222SOL     OW43907   5.822   3.408   6.833 -0.1821  0.1660  0.6016
14222SOL    HW143908   5.733   3.440   6.847 -0.6608 -0.6942 -0.4049
14222SOL    HW243909   5.878   3.480   6.861 -1.1667  0.2667  2.3343
14223SOL     OW43910   3.084   2.798   6.027  0.2372  0.0449  0.5514
14223SOL    HW143911   3.030   2.746   5.968  0.5671 -1.7576  1.7953
14223SOL    HW243912   3.164   2.746   6.039  0.7131  0.9815  1.5465
14224SOL     OW43913   6.765   5.911   3.503 -0.6834  0.1450  0.3238
14224SOL    HW143914   6.775   6.000   3.470 -1.7984 -0.0759 -0.6288
14224SOL    HW243915   6.675   5.907   3.535 -0.3357 -0.3514  1.2856
14225SOL     OW43916   6.206   7.508   4.465 -0.0376 -0.5793 -0.7974
14225SOL    HW143917   6.171   7.572   4.527 -0.8342 -0.0409 -1.7876
14225SOL    HW243918   6.301   7.511   4.477 -0.0396  1.0803 -1.1140
14226SOL     OW43919   3.612   7.677   7.858  0.0008 -0.0758 -0.4984
14226SOL    HW143920   3.611   7.599   7.803 -1.2934  0.4258 -1.2070
14226SOL    HW243921   3.521   7.705   7.862  0.4819  1.5499 -0.4868
14227SOL     OW43922   7.996   1.568   0.085  0.1509 -0.1994 -0.1013
14227SOL    HW143923   7.951   1.499   0.134 -0.6249 -0.9903 -1.8881
14227SOL    HW243924   8.049   1.521   0.022  0.2575  0.8286 -0.7816
14228SOL     OW43925   2.290   4.830   5.906 -0.3768  0.6326  0.1108
14228SOL    HW143926   2.329   4.824   5.819 -2.1431 -0.0755 -0.6723
14228SOL    HW243927   2.201   4.861   5.889 -0.7165  0.5258  1.6684
14229SOL     OW43928   3.900   4.902   0.137 -0.1818  0.2032 -0.0866
14229SOL    HW143929   3.869   4.817   0.105 -1.6966  0.8838 -0.4830
14229SOL    HW243930   3.993   4.904   0.114 -0.6303 -0.4262 -2.0706
14230SOL     OW43931   5.385   2.429   6.671 -0.3042 -0.0295  0.2410
14230SOL    HW143932   5.295   2.451   6.697  0.7183  1.3445  2.7476
14230SOL    HW243933   5.425   2.395   6.751  1.1175 -1.6922 -1.1359
14231SOL     OW43934   0.046   8.026   3.535  0.2496 -0.2931 -0.7759
14231SOL    HW143935   0.131   8.070   3.540  1.0493 -1.4926 -2.8278
14231SOL    HW243936   0.038   7.979   3.618  0.0977  2.3712  0.7801
14232SOL     OW43937   4.550   6.488   1.916  0.2579 -0.0857  0.8230
14232SOL    HW143938   4.571   6.421   1.851 -0.8079  0.2007  0.1687
14232SOL    HW243939   4.519   6.562   1.864 -2.0961 -0.4137  1.7312
14233SOL     OW43940   0.208   6.436   2.974  0.0680  0.0933  0.8795
14233SOL    HW143941   0.137   6.480   2.929  0.7033 -0.8706 -1.1573
14233SOL    HW243942   0.171   6.352   3.003  0.3095 -0.3478 -0.0575
14234SOL     OW43943   0.092   2.702   7.383  0.1479  0.1811 -0.1322
14234SOL    HW143944   0.165   2.761   7.400  0.3749  0.1773 -1.0631
14234SOL    HW243945   0.102   2.678   7.291 -0.7207 -0.2434 -0.1161
14235SOL     OW43946   2.505   3.402   1.360  0.0695  0.3237 -0.1120
14235SOL    HW143947   2.519   3.308   1.346 -0.5120  0.0278  1.2358
14235SOL    HW243948   2.579   3.444   1.317  1.5972 -0.8816  1.2963
14236SOL     OW43949   4.176   7.513   2.083 -0.0372  0.4840  0.3997
14236SOL    HW143950   4.106   7.577   2.094 -1.3113 -0.8263  0.1182
14236SOL    HW243951   4.248   7.547   2.136 -0.6014  2.2686  0.0302
14237SOL     OW43952   6.513   6.331   6.109 -0.5712  0.1541  0.6431
14237SOL    HW143953   6.464   6.280   6.043 -0.0807 -0.1801  0.5361
14237SOL    HW243954   6.450   6.344   6.180 -0.8818 -0.0967  0.4182
14238SOL     OW43955   2.933   0.678   7.718 -0.6245 -0.4042 -0.0147
14238SOL    HW143956   3.010   0.637   7.678  1.0933  1.5518  1.1318
14238SOL    HW243957   2.956   0.771   7.722 -2.0842 -0.1202  2.4823
14239SOL     OW43958   0.947   7.511   0.031  0.4820 -0.6102  0.4918
14239SOL    HW143959   1.030   7.468   0.053  0.9997  0.3975  0.4888
14239SOL    HW243960   0.925   7.476  -0.055  2.1882  1.0370 -0.6349
14240SOL     OW43961   4.550   0.292   7.096 -0.0338  0.2181  0.2486
14240SOL    HW143962   4.602   0.241   7.158  0.7699  3.1023  2.0006
14240SOL    HW243963   4.466   0.246   7.093 -0.4737  0.5824  4.2935
14241SOL     OW43964   0.794   6.664   0.336  0.1281 -0.0606  0.2697
14241SOL    HW143965   0.889   6.651   0.339  0.5641  2.5721 -0.6095
14241SOL    HW243966   0.758   6.576   0.321  2.4575 -0.9897 -0.0931
14242SOL     OW43967   4.327   7.666   1.824 -0.5835  0.7689  0.2014
14242SOL    HW143968   4.375   7.687   1.904  1.7782 -1.2989 -0.6014
14242SOL    HW243969   4.273   7.590   1.847 -1.8088  1.7174  0.4939
14243SOL     OW43970   2.058   2.227   5.174  0.0273  0.3515 -0.6244
14243SOL    HW143971   2.006   2.188   5.245 -0.3009  1.1112 -0.4417
14243SOL    HW243972   2.039   2.321   5.180  3.3831  1.0023  1.0709
14244SOL     OW43973   3.769   0.682   2.743  0.3629  0.0465 -0.7840
14244SOL    HW143974   3.674   0.683   2.732 -0.0439  2.1690  2.3309
14244SOL    HW243975   3.795   0.774   2.738  1.6239 -0.0342  2.6708
14245SOL     OW43976   4.998   2.271   1.307  0.1739 -0.3928 -0.0057
14245SOL    HW143977   5.036   2.187   1.335  1.1630 -0.3772 -1.2939
14245SOL    HW243978   5.054   2.301   1.236 -0.3327  1.2441  0.2550
14246SOL     OW43979   7.267   0.211   5.308  0.0945 -1.0292 -0.3766
14246SOL    HW143980   7.287   0.190   5.217  0.9612 -1.2005 -0.1522
14246SOL    HW243981   7.341   0.264   5.338 -0.1317 -1.0627  0.2528
14247SOL     OW43982   1.978   7.100   5.939 -0.4040 -0.4771 -0.4499
14247SOL    HW143983   1.955   7.172   5.880 -0.5571 -1.4683 -1.6197
14247SOL    HW243984   2.050   7.055   5.895  0.6941 -0.1545  0.9964
14248SOL     OW43985   2.727   6.980   7.374  0.1712 -0.4722 -0.0483
14248SOL    HW143986   2.797   7.009   7.316 -0.0595 -0.3203 -0.2510
14248SOL    HW243987   2.705   6.892   7.344 -0.7084  0.0255 -0.9058
14249SOL     OW43988   1.406   2.976   4.749  0.9261  0.3151 -0.0487
14249SOL    HW143989   1.329   2.919   4.738  1.6596 -0.4240 -1.4676
14249SOL    HW243990   1.433   2.962   4.840 -0.6197  0.6000  0.4768
14250SOL     OW43991   3.834   7.082   0.230  0.4925 -0.5088 -0.6089
14250SOL    HW143992   3.792   7.051   0.310  2.5365  0.0801  0.7308
14250SOL    HW243993   3.764   7.123   0.180 -0.3667  1.2648  1.9684
14251SOL     OW43994   3.475   0.425   1.390 -0.4501 -0.0970 -0.0077
14251SOL    HW143995   3.567   0.452   1.397 -0.7254  0.4777  1.4741
14251SOL    HW243996   3.425   0.503   1.413 -1.3142 -0.4940 -0.5064
14252SOL     OW43997   5.763   4.232   0.652 -0.2659  0.1216  0.1276
14252SOL    HW143998   5.775   4.327   0.649 -0.6709  0.1566 -0.5796
14252SOL    HW243999   5.731   4.215   0.741 -1.0398  0.7586 -0.0157
14253SOL     OW44000   6.617   2.146   2.200 -0.0881  0.2640 -0.0563
14253SOL    HW144001   6.658   2.145   2.287  1.1618 -0.6718 -0.6345
14253SOL    HW244002   6.599   2.053   2.182 -1.3730  0.5639 -0.3194
14254SOL     OW44003   2.179   3.439   2.934  0.2011 -0.2954  0.0197
14254SOL    HW144004   2.167   3.490   3.015 -1.0075 -1.5291  0.6416
14254SOL    HW244005   2.131   3.358   2.950 -0.9488 -0.1069 -2.3634
14255SOL     OW44006   5.187   6.104   0.341 -0.5066 -0.6945  0.2613
14255SOL    HW144007   5.154   6.140   0.259 -0.2558  0.6241  0.7329
14255SOL    HW244008   5.277   6.080   0.322 -0.5592 -0.7199  0.0464
14256SOL     OW44009   0.381   5.296   4.658  0.6514  0.0072 -0.1504
14256SOL    HW144010   0.395   5.228   4.592  1.0724  1.3363 -1.4477
14256SOL    HW244011   0.457   5.289   4.716  1.2324  0.0729 -0.9002
14257SOL     OW44012   7.845   0.086   5.184  0.5741  0.2443 -0.1351
14257SOL    HW144013   7.766   0.035   5.199  0.6988  0.0519 -0.1385
14257SOL    HW244014   7.816   0.162   5.133  0.6235 -0.5137 -1.3118
14258SOL     OW44015   2.044   1.367   6.972 -1.1857  0.7717 -0.4559
14258SOL    HW144016   2.108   1.345   6.904  0.2904  1.7122  0.6130
14258SOL    HW244017   2.061   1.305   7.042 -1.4796  0.9956 -0.1847
14259SOL     OW44018   5.043   4.038   3.963  0.1846 -0.0534 -0.8862
14259SOL    HW144019   5.055   4.113   3.905 -2.2364  1.1243  0.0692
14259SOL    HW244020   4.991   4.071   4.036  0.5398 -2.2584  0.4437
14260SOL     OW44021   3.484   6.466   2.471  0.6846  0.2812 -0.0572
14260SOL    HW144022   3.472   6.561   2.475  0.0164  0.1566  1.3761
14260SOL    HW244023   3.414   6.436   2.412  1.5198  0.7619 -1.3159
14261SOL     OW44024   4.388   4.975   7.575  0.0083 -0.1166 -0.3073
14261SOL    HW144025   4.387   5.051   7.516  0.2367  0.3828  0.3210
14261SOL    HW244026   4.380   4.899   7.517 -0.4467  0.4010 -0.9239
14262SOL     OW44027   1.993   4.937   1.227  0.1346  0.2700 -0.0438
14262SOL    HW144028   1.908   4.975   1.249 -0.2545 -0.7833  0.2737
14262SOL    HW244029   2.039   4.931   1.311  1.4448  3.0152 -0.4951
14263SOL     OW44030   1.379   4.241   7.198 -0.6321 -0.2884 -0.7023
14263SOL    HW144031   1.384   4.167   7.258  0.2726  0.6550  0.4121
14263SOL    HW244032   1.328   4.208   7.124  1.5143 -2.6765 -1.1773
14264SOL     OW44033   1.169   7.808   8.122  0.2293 -0.1898 -0.4873
14264SOL    HW144034   1.211   7.879   8.073  0.6422 -0.2554 -0.2261
14264SOL    HW244035   1.204   7.816   8.210 -0.1823 -0.3496 -0.3103
14265SOL     OW44036   1.295   7.451   5.638 -0.2442 -0.1261 -0.7215
14265SOL    HW144037   1.327   7.535   5.670 -0.1366  0.1416 -1.5387
14265SOL    HW244038   1.368   7.391   5.652 -1.0233 -0.5638  1.7880
14266SOL     OW44039   4.588   4.068   7.777  0.0110  0.3029 -0.9935
14266SOL    HW144040   4.624   3.982   7.797 -1.5160 -0.4655 -1.4958
14266SOL    HW244041   4.494   4.055   7.776 -0.3433  2.4160  0.8891
14267SOL     OW44042   1.250   1.952   4.727 -0.3916  0.0803 -0.0416
14267SOL    HW144043   1.314   1.897   4.683 -0.0931 -0.2266  0.7752
14267SOL    HW244044   1.233   1.908   4.810 -1.9879 -0.0689 -0.4349
14268SOL     OW44045   3.072   5.772   3.295  0.7921  0.0235 -0.0652
14268SOL    HW144046   3.076   5.739   3.385 -1.4335 -1.3798 -0.4346
14268SOL    HW244047   2.988   5.817   3.291 -0.0487 -1.6634 -2.0011
14269SOL     OW44048   7.920   6.330   0.657 -0.3534  0.0097 -0.1013
14269SOL    HW144049   7.965   6.260   0.704 -0.5497 -0.2301 -0.2724
14269SOL    HW244050   7.935   6.408   0.711  2.3101  0.4254 -1.3657
14270SOL     OW44051   6.735   5.261   0.043 -0.3169  0.1758 -0.0326
14270SOL    HW144052   6.750   5.236  -0.048  0.2495  0.9885 -0.1659
14270SOL    HW244053   6.820   5.252   0.085 -0.2482  1.2526  0.0644
14271SOL     OW44054   7.614   4.960   2.373 -0.4124  0.4485  0.0596
14271SOL    HW144055   7.651   4.876   2.401 -0.7771  0.0455 -0.6532
14271SOL    HW244056   7.672   5.026   2.412 -1.0092 -0.0865  1.9006
14272SOL     OW44057   4.614   5.286   8.267  0.3517  0.1537 -0.2882
14272SOL    HW144058   4.642   5.351   8.331  1.7164  0.6915 -1.3941
14272SOL    HW244059   4.536   5.323   8.227  1.9679  1.8728 -1.9770
14273SOL     OW44060   0.559   5.385   4.878 -0.4907 -0.1666 -0.1020
14273SOL    HW144061   0.616   5.462   4.874 -0.5886 -0.1171 -0.6404
14273SOL    HW244062   0.487   5.412   4.936 -0.9270  0.4220 -0.9059
14274SOL     OW44063   4.384   1.906   4.055  0.4109 -0.0347  0.1500
14274SOL    HW144064   4.306   1.881   4.104  0.6911  0.3622  0.8065
14274SOL    HW244065   4.356   1.907   3.963 -0.4713  0.5335  0.4194
14275SOL     OW44066   2.040   2.920   4.064 -0.2973  0.2709  0.0600
14275SOL    HW144067   2.080   2.877   4.139 -0.1952  1.3703  0.6444
14275SOL    HW244068   2.094   2.893   3.989  1.4164  1.5463  0.7984
14276SOL     OW44069   2.147   2.959   6.242 -0.3881  0.8232 -0.2393
14276SOL    HW144070   2.202   2.883   6.221 -0.9034  1.0238 -2.4260
14276SOL    HW244071   2.059   2.934   6.212 -1.2297  1.0679  1.9050
14277SOL     OW44072   0.358   4.927   1.381  0.3645  0.3378 -0.0097
14277SOL    HW144073   0.317   4.992   1.438  2.6952  1.4889  0.4319
14277SOL    HW244074   0.437   4.971   1.349  1.3985 -1.9076 -0.6066
14278SOL     OW44075   7.792   2.250   5.632 -0.2094  0.1168 -0.0791
14278SOL    HW144076   7.802   2.329   5.579 -3.3332  1.3651  1.1146
14278SOL    HW244077   7.850   2.264   5.707  0.6776  0.4119 -0.8065
14279SOL     OW44078   5.875   2.839   3.563  0.4624  0.2054 -0.5408
14279SOL    HW144079   5.946   2.826   3.625  1.2980  2.3058 -1.0168
14279SOL    HW244080   5.890   2.926   3.527 -1.4791  0.0576 -1.7918
14280SOL     OW44081   3.706   2.763   8.168 -0.2947 -0.0646 -0.7293
14280SOL    HW144082   3.731   2.811   8.247 -1.6460  0.7842 -0.8036
14280SOL    HW244083   3.736   2.674   8.184 -0.8271  0.0273  0.9026
14281SOL     OW44084   0.742   3.919   4.293 -0.1012 -0.1235  0.1955
14281SOL    HW144085   0.755   3.938   4.200  1.4270 -0.5698  0.3109
14281SOL    HW244086   0.829   3.930   4.332 -0.9919  1.4503  1.8259
14282SOL     OW44087   8.006   3.669   2.633  0.3389  0.3409  0.0988
14282SOL    HW144088   8.012   3.642   2.541  0.5030 -0.5874  0.3708
14282SOL    HW244089   8.051   3.753   2.637  2.9387 -1.0051 -0.1250
14283SOL     OW44090   1.680   6.738   2.739 -0.4111 -0.4321 -0.0931
14283SOL    HW144091   1.701   6.754   2.831 -0.2348 -1.2452  0.0147
14283SOL    HW244092   1.597   6.783   2.725 -0.5600 -0.5031  0.5292
14284SOL     OW44093   8.065   5.836   3.865 -0.3201  0.4822 -0.3094
14284SOL    HW144094   8.082   5.875   3.951  0.2167  0.4910 -0.4201
14284SOL    HW244095   8.115   5.754   3.866 -0.3411  0.4670 -0.6025
14285SOL     OW44096   4.650   1.259   0.956 -0.2274  0.5466 -0.6722
14285SOL    HW144097   4.611   1.338   0.992  2.1148  1.0640  0.8954
14285SOL    HW244098   4.663   1.278   0.863 -0.7237  1.5580 -0.5388
14286SOL     OW44099   7.355   0.008   8.164  0.7026 -0.3210  0.3049
14286SOL    HW144100   7.323   0.012   8.254 -1.6988  0.9950 -0.5474
14286SOL    HW244101   7.301  -0.060   8.123 -0.0917  0.9636 -0.8156
14287SOL     OW44102   3.298   2.353   5.853 -0.7481 -0.4686  0.2251
14287SOL    HW144103   3.314   2.340   5.759 -3.3167 -1.5076 -0.1346
14287SOL    HW244104   3.302   2.265   5.890 -0.0882 -0.0985  1.0342
14288SOL     OW44105   4.605   2.475   0.604  0.5219  0.4027 -0.8014
14288SOL    HW144106   4.660   2.445   0.532  2.0228  0.6244  0.2469
14288SOL    HW244107   4.666   2.499   0.673 -0.8610  1.3572  0.1108
14289SOL     OW44108   1.915   0.101   5.896  0.6441  1.1283 -0.4692
14289SOL    HW144109   1.876   0.182   5.928  0.7805  0.5747  1.1534
14289SOL    HW244110   1.843   0.054   5.855  0.3882  1.7076 -0.6851
14290SOL     OW44111   8.165   4.619   2.936 -0.9292  0.1009 -0.0910
14290SOL    HW144112   8.128   4.641   3.022 -0.0662 -0.7344  0.4981
14290SOL    HW244113   8.205   4.533   2.948  1.7776  1.2462 -0.5478
14291SOL     OW44114   6.653   4.356   1.603  0.4736 -0.2367  0.4096
14291SOL    HW144115   6.691   4.270   1.621 -0.5737 -0.6585  0.6505
14291SOL    HW244116   6.645   4.397   1.688 -0.5696 -0.5632  0.4729
14292SOL     OW44117   2.503   1.356   3.294 -0.3378 -0.3317  0.0623
14292SOL    HW144118   2.419   1.344   3.250  0.3879 -1.1174 -1.1685
14292SOL    HW244119   2.553   1.412   3.235  0.8985 -1.9531 -0.4790
14293SOL     OW44120   5.135   0.376   6.696  0.2847 -0.0526  0.5668
14293SOL    HW144121   5.067   0.429   6.737 -0.7826 -1.4990  0.6965
14293SOL    HW244122   5.091   0.333   6.623  1.3598 -0.0940 -0.0805
14294SOL     OW44123   6.043   1.627   3.611 -1.0443 -0.3305  0.1551
14294SOL    HW144124   5.966   1.678   3.585 -0.9018 -0.5570 -0.7375
14294SOL    HW244125   6.114   1.692   3.614 -1.0273 -0.3295 -0.1922
14295SOL     OW44126   6.621   0.523   5.803 -0.3916 -0.0394 -0.8185
14295SOL    HW144127   6.594   0.546   5.714 -1.4618 -1.0520 -0.7814
14295SOL    HW244128   6.712   0.551   5.809 -0.3909  0.2791 -2.1466
14296SOL     OW44129   4.917   8.258   6.356  0.2436  0.0822 -0.6561
14296SOL    HW144130   4.920   8.185   6.417 -1.0956  0.4510 -0.1171
14296SOL    HW244131   5.007   8.269   6.327  0.6744 -0.9456  0.2466
14297SOL     OW44132   3.795   7.803   1.033 -0.8045  0.6587  0.6223
14297SOL    HW144133   3.804   7.729   0.973 -1.2474  1.3481 -0.3110
14297SOL    HW244134   3.772   7.763   1.117  1.0411 -0.3975  0.6449
14298SOL     OW44135   0.884   7.140   4.360  0.4880  0.0140 -0.5008
14298SOL    HW144136   0.823   7.197   4.405  1.3463  0.1871  0.4619
14298SOL    HW244137   0.967   7.151   4.406  1.1249 -0.6074 -1.4563
14299SOL     OW44138   3.489   5.114   7.253  0.0841 -0.2302  0.3911
14299SOL    HW144139   3.433   5.074   7.321 -0.7946  0.4722  0.0946
14299SOL    HW244140   3.467   5.207   7.256  0.5174 -0.1003 -0.4187
14300SOL     OW44141   0.911   7.377   5.380 -0.1446  0.7205  0.1588
14300SOL    HW144142   0.827   7.421   5.377 -0.1501  0.6580 -1.3338
14300SOL    HW244143   0.948   7.399   5.465 -1.8696  0.3578  1.0128
14301SOL     OW44144   3.448   7.639   5.018 -0.1497 -0.0512  0.5395
14301SOL    HW144145   3.484   7.720   4.983 -0.4214  1.0201  2.6535
14301SOL    HW244146   3.425   7.587   4.941 -0.8521  2.2679 -0.8491
14302SOL     OW44147   7.902   2.980   1.811 -0.1337 -0.0410  0.0563
14302SOL    HW144148   7.838   2.909   1.808  0.4779 -0.5487 -1.8742
14302SOL    HW244149   7.867   3.042   1.874 -1.7445 -1.0548  0.1805
14303SOL     OW44150   2.921   6.723   7.307 -0.0664  0.7467  0.1284
14303SOL    HW144151   3.009   6.761   7.300  0.4667 -0.5604 -0.4449
14303SOL    HW244152   2.888   6.723   7.217  0.7783 -2.0693 -0.2092
14304SOL     OW44153   3.914   8.129   5.758  0.1668  0.6136  0.1218
14304SOL    HW144154   3.939   8.054   5.704 -2.3972  0.3685 -0.7960
14304SOL    HW244155   3.921   8.097   5.848  0.0136 -0.4521 -0.2352
14305SOL     OW44156   6.360   2.520   7.996  0.3240  0.1571  0.6075
14305SOL    HW144157   6.400   2.537   8.082  1.2710 -0.3220  0.2665
14305SOL    HW244158   6.296   2.590   7.985  1.7743  1.5003  0.7231
14306SOL     OW44159   7.740   5.327   0.470 -0.1758 -0.2647 -0.3372
14306SOL    HW144160   7.806   5.358   0.532  0.7544  0.1564 -1.5183
14306SOL    HW244161   7.656   5.345   0.513  0.4532  0.1714  0.7228
14307SOL     OW44162   3.228   1.476   2.861 -0.6366 -0.0657  0.3280
14307SOL    HW144163   3.137   1.448   2.865 -0.2916 -1.8027 -2.7212
14307SOL    HW244164   3.229   1.541   2.790  0.4661  0.0078  0.4128
14308SOL     OW44165   0.143   6.308   6.535 -0.0575 -0.3080  0.2745
14308SOL    HW144166   0.217   6.321   6.595 -0.0228 -0.3172  0.2338
14308SOL    HW244167   0.104   6.395   6.527  0.0221 -0.2791  0.2003
14309SOL     OW44168   3.188   2.372   4.869  0.1024 -0.3672  0.3829
14309SOL    HW144169   3.230   2.444   4.917 -1.0887 -0.1209  1.0773
14309SOL    HW244170   3.197   2.296   4.926  0.3960 -0.5168  0.1360
14310SOL     OW44171   2.133   4.605   4.320  0.0119  0.4429 -0.0424
14310SOL    HW144172   2.198   4.600   4.391 -0.1205  1.3924  0.1507
14310SOL    HW244173   2.104   4.515   4.308  1.4267 -0.0136 -0.1774
14311SOL     OW44174   7.981   4.661   5.633 -0.3374 -0.1686 -0.0680
14311SOL    HW144175   7.914   4.644   5.566 -0.3435 -1.7474  0.3154
14311SOL    HW244176   7.951   4.741   5.676 -2.5696 -1.4191  0.7871
14312SOL     OW44177   5.747   5.083   4.258 -0.2259 -0.2209  0.2714
14312SOL    HW144178   5.811   5.150   4.284 -0.3455 -0.3098  0.8143
14312SOL    HW244179   5.756   5.015   4.325 -0.2647 -0.6415 -0.1509
14313SOL     OW44180   8.154   6.108   2.928 -0.0517  0.3783 -0.1531
14313SOL    HW144181   8.156   6.061   2.844 -0.3684  1.1558 -0.5993
14313SOL    HW244182   8.112   6.048   2.988 -0.3848  0.0543 -0.7042
14314SOL     OW44183   4.485   1.096   2.569 -0.1967  0.0446 -0.3792
14314SOL    HW144184   4.502   1.125   2.480  0.4846  0.5426 -0.0945
14314SOL    HW244185   4.569   1.063   2.600 -0.5690 -0.6805 -0.1183
14315SOL     OW44186   5.286   7.707   4.520 -0.0580  0.5274  0.2746
14315SOL    HW144187   5.370   7.740   4.487  0.2710  0.4207  0.9986
14315SOL    HW244188   5.252   7.779   4.573 -0.6864  0.7817 -0.4670
14316SOL     OW44189   7.701   0.433   3.680 -0.9266 -0.2583  0.0461
14316SOL    HW144190   7.793   0.450   3.702 -1.0196 -0.1976  0.3835
14316SOL    HW244191   7.661   0.407   3.763 -0.8255 -1.9822 -0.4187
14317SOL     OW44192   0.455   7.209   8.136 -0.0361 -0.0649 -0.0805
14317SOL    HW144193   0.454   7.183   8.044  0.9315 -2.2463  0.4864
14317SOL    HW244194   0.543   7.244   8.149 -0.5791  1.3790 -0.2762
14318SOL     OW44195   0.540   7.978   0.855  0.5946  0.0835 -0.5410
14318SOL    HW144196   0.613   8.022   0.811  0.4864 -0.7930 -1.6212
14318SOL    HW244197   0.463   8.028   0.828  0.7213  0.6499  0.1255
14319SOL     OW44198   0.214   4.664   2.482 -0.4762 -0.0470 -0.4830
14319SOL    HW144199   0.301   4.629   2.462 -0.6624  0.2909 -1.9590
14319SOL    HW244200   0.223   4.759   2.470 -0.8440  0.0644  0.1290
14320SOL     OW44201   1.909   7.285   6.620 -0.4300 -0.1842  0.0261
14320SOL    HW144202   1.991   7.329   6.639 -0.4467  0.0697 -0.4737
14320SOL    HW244203   1.887   7.312   6.531  0.0174 -1.8954 -0.6357
14321SOL     OW44204   5.422   7.070   1.589 -0.2440  0.7725 -0.0562
14321SOL    HW144205   5.394   7.161   1.600  0.3566  0.7363  1.9422
14321SOL    HW244206   5.388   7.025   1.666 -0.3097 -0.6509 -0.9062
14322SOL     OW44207   2.958   6.652   3.339  0.2416 -0.0202 -0.2231
14322SOL    HW144208   2.968   6.615   3.426  0.0411  0.5858  0.0619
14322SOL    HW244209   3.044   6.640   3.298  0.5100  0.2133  0.2641
14323SOL     OW44210   4.135   7.580   7.911  0.1019  0.0465  0.5556
14323SOL    HW144211   4.096   7.580   7.998  0.7838  0.0383  0.8614
14323SOL    HW244212   4.061   7.565   7.852 -0.2664 -0.5696  1.1678
14324SOL     OW44213   0.843   3.698   5.881  0.4979 -0.2853  0.4005
14324SOL    HW144214   0.754   3.667   5.866  0.0329  1.5623 -0.8727
14324SOL    HW244215   0.899   3.640   5.829 -0.1911 -0.0495 -0.6069
14325SOL     OW44216   3.836   6.990   6.834 -0.1615  0.1552  0.0767
14325SOL    HW144217   3.816   6.912   6.886 -1.4014  2.4037  3.1324
14325SOL    HW244218   3.919   7.021   6.870  0.5184  0.0559 -1.3885
14326SOL     OW44219   6.434   3.782   5.619  0.0840 -0.8716 -0.7396
14326SOL    HW144220   6.411   3.748   5.705 -0.0764 -0.0866 -0.4717
14326SOL    HW244221   6.525   3.756   5.606  0.5925  0.3129  0.3152
14327SOL     OW44222   4.399   7.547   4.862 -0.5182 -0.2272 -0.0429
14327SOL    HW144223   4.467   7.607   4.893 -1.4135  0.4694  0.6113
14327SOL    HW244224   4.324   7.603   4.841 -1.5026 -1.1407  0.9324
14328SOL     OW44225   6.885   4.003   6.917 -0.4812  0.4014  0.5322
14328SOL    HW144226   6.933   3.959   6.847 -0.9895 -0.0205  0.4497
14328SOL    HW244227   6.952   4.025   6.982 -0.1900 -0.2535  0.4580
14329SOL     OW44228   4.828   3.207   6.726  0.3173 -0.0536 -0.0860
14329SOL    HW144229   4.745   3.167   6.699  0.2917 -0.6622  0.8632
14329SOL    HW244230   4.860   3.252   6.648 -1.0803  0.4848 -0.3648
14330SOL     OW44231   5.848   7.137   0.347 -0.1571  0.7103  0.6963
14330SOL    HW144232   5.830   7.055   0.393  1.1838 -0.1210 -0.2383
14330SOL    HW244233   5.870   7.199   0.416 -0.1762  0.0210  1.3272
14331SOL     OW44234   3.728   5.119   3.311 -0.3136 -0.5191  0.4734
14331SOL    HW144235   3.705   5.206   3.342 -1.9969 -0.0746 -1.8735
14331SOL    HW244236   3.823   5.121   3.301 -0.1658  0.5189  1.9371
14332SOL     OW44237   7.857   8.062   4.993 -0.0039 -0.3875  0.1393
14332SOL    HW144238   7.880   8.147   4.956 -0.7474 -0.0095  0.5340
14332SOL    HW244239   7.889   8.066   5.084  1.3349 -1.1112 -0.2964
14333SOL     OW44240   1.300   1.304   4.561  0.4893  0.8667 -0.3256
14333SOL    HW144241   1.368   1.257   4.513  0.6267  1.2645 -0.5263
14333SOL    HW244242   1.219   1.259   4.538  0.6117  0.7670 -0.5696
14334SOL     OW44243   3.696   1.113   5.642 -0.0932 -0.5349  0.2608
14334SOL    HW144244   3.761   1.070   5.586  0.2983 -0.9360  1.0094
14334SOL    HW244245   3.705   1.069   5.726  1.3402  1.9834  1.4876
14335SOL     OW44246   6.679   4.764   6.506 -0.2014  0.5234 -0.1075
14335SOL    HW144247   6.721   4.713   6.436 -1.2886  1.0675 -1.1710
14335SOL    HW244248   6.587   4.766   6.481 -0.7539 -0.0690  1.8537
14336SOL     OW44249   7.281   6.775   4.433  0.1224 -0.5434 -0.1744
14336SOL    HW144250   7.194   6.816   4.433  0.2213 -0.3397 -1.3061
14336SOL    HW244251   7.285   6.726   4.351  0.4321 -1.9345  0.6499
14337SOL     OW44252   5.690   2.105   3.839 -0.1876  0.4397  0.0794
14337SOL    HW144253   5.660   2.178   3.894 -0.7800  0.5878 -0.4393
14337SOL    HW244254   5.784   2.099   3.856 -0.0524  1.6246 -0.2265
14338SOL     OW44255   1.475   0.207   1.866  0.4178 -0.3488  0.4039
14338SOL    HW144256   1.529   0.281   1.840 -0.6979  0.3519  0.0361
14338SOL    HW244257   1.385   0.240   1.862 -0.0226 -1.3670  1.3878
14339SOL     OW44258   7.759   5.053   0.397 -0.1014 -0.4131 -0.0828
14339SOL    HW144259   7.680   5.103   0.417 -1.1648 -1.7440 -0.9002
14339SOL    HW244260   7.727   4.973   0.355  1.6703 -1.0287 -0.2913
14340SOL     OW44261   6.726   0.447   4.879  0.0441 -0.5091  0.4075
14340SOL    HW144262   6.752   0.534   4.850 -3.7760  0.8308  0.6608
14340SOL    HW244263   6.703   0.401   4.798 -0.0193 -0.5320  0.4389
14341SOL     OW44264   1.748   0.289   5.986  0.3796 -0.4093 -0.4635
14341SOL    HW144265   1.786   0.354   6.046  0.4551 -0.8805 -0.0058
14341SOL    HW244266   1.697   0.342   5.924 -0.7223 -0.0168  0.7538
14342SOL     OW44267   2.808   4.872   6.248 -0.4535  0.8940  0.1210
14342SOL    HW144268   2.896   4.838   6.264  0.3531  2.3389 -1.1343
14342SOL    HW244269   2.750   4.806   6.285  1.1576  0.0388  1.1863
14343SOL     OW44270   3.695   1.496   3.690  0.3600 -0.3468 -0.4035
14343SOL    HW144271   3.758   1.555   3.647  1.0433 -0.3239  0.6292
14343SOL    HW244272   3.609   1.530   3.663  0.7234  1.7980  1.0640
14344SOL     OW44273   2.056   4.674   4.967 -0.2707  0.5823  0.4548
14344SOL    HW144274   2.000   4.746   4.938  0.5276 -0.2426 -3.4126
14344SOL    HW244275   2.133   4.717   5.005 -0.8331  1.7485  0.2833
14345SOL     OW44276   1.226   5.058   3.560  0.2655 -0.0630  0.1366
14345SOL    HW144277   1.193   5.050   3.470 -0.4281  2.4116  0.1431
14345SOL    HW244278   1.149   5.046   3.615  0.7899 -2.1697  0.4648
14346SOL     OW44279   3.935   0.628   4.026  0.4141 -0.0002 -0.4555
14346SOL    HW144280   3.924   0.582   3.943 -0.9901  0.5758 -0.5917
14346SOL    HW244281   3.847   0.634   4.062  0.7823  1.3385  0.2363
14347SOL     OW44282   0.961   2.945   1.237 -0.5637  0.4063  0.2700
14347SOL    HW144283   0.914   2.862   1.238 -1.2185  0.7772  0.7320
14347SOL    HW244284   0.927   2.993   1.312 -2.0496  2.1055 -1.4328
14348SOL     OW44285   6.693   0.314   6.416  0.3318  0.1686 -0.1636
14348SOL    HW144286   6.760   0.307   6.484  1.3426  0.6484 -1.0868
14348SOL    HW244287   6.717   0.394   6.368  0.3968 -0.8752 -1.8868
14349SOL     OW44288   6.304   2.494   0.646  0.1575  0.6224  0.1574
14349SOL    HW144289   6.236   2.534   0.591  1.3012  0.9371 -1.0553
14349SOL    HW244290   6.348   2.568   0.688  0.6637  0.5014 -0.1564
14350SOL     OW44291   3.954   4.726   2.147 -0.2699 -0.0187  0.4083
14350SOL    HW144292   4.023   4.758   2.089 -0.5546  0.0918  0.1326
14350SOL    HW244293   3.872   4.746   2.102 -0.4598 -0.9214  0.3362
14351SOL     OW44294   8.000   8.161   0.716 -0.4381 -0.0441  0.1609
14351SOL    HW144295   7.979   8.245   0.675  1.5079  0.4160  0.0719
14351SOL    HW244296   7.995   8.179   0.810 -1.0763 -0.1141  0.1452
14352SOL     OW44297   5.877   8.199   2.225  0.4183 -0.3172 -0.5280
14352SOL    HW144298   5.842   8.110   2.230  0.4397 -0.2014  2.6152
14352SOL    HW244299   5.805   8.251   2.190 -0.1372 -1.2885 -0.8514
14353SOL     OW44300   2.262   1.178   5.254  0.4663  0.2429 -0.7596
14353SOL    HW144301   2.277   1.209   5.165  2.4234 -0.3804 -0.6764
14353SOL    HW244302   2.349   1.168   5.291 -0.3369  1.1705  1.4813
14354SOL     OW44303   0.221   4.362   5.542  0.1885 -0.2592 -0.9666
14354SOL    HW144304   0.184   4.405   5.465  0.8066 -0.6058 -1.4612
14354SOL    HW244305   0.194   4.271   5.534 -0.8812 -0.0290 -0.0661
14355SOL     OW44306   2.480   3.053   1.652  0.3227  0.2241 -0.0964
14355SOL    HW144307   2.429   3.005   1.587 -0.1086 -2.0107  1.8432
14355SOL    HW244308   2.571   3.037   1.627  0.1523 -0.4018 -0.3371
14356SOL     OW44309   3.479   1.978   6.665  0.0253  0.6638  0.4753
14356SOL    HW144310   3.491   1.923   6.587  1.6179 -0.2807  1.3585
14356SOL    HW244311   3.432   2.055   6.633  1.1413  0.5515 -1.5295
14357SOL     OW44312   5.335   0.350   5.924  0.0417  0.3119 -0.0064
14357SOL    HW144313   5.255   0.308   5.893  0.9469 -1.6773  0.3037
14357SOL    HW244314   5.315   0.378   6.013 -0.5095  0.4316 -0.1632
14358SOL     OW44315   8.291   7.795   0.585  0.6937 -0.5895  0.7955
14358SOL    HW144316   8.203   7.827   0.564  0.4342 -0.9970  1.2345
14358SOL    HW244317   8.323   7.758   0.503  0.2885 -0.8163  0.7373
14359SOL     OW44318   1.741   0.471   3.148 -0.8813  0.5076 -0.3846
14359SOL    HW144319   1.686   0.532   3.098  0.5830  0.6236 -1.9024
14359SOL    HW244320   1.734   0.388   3.100 -0.0072  0.4321 -0.3809
14360SOL     OW44321   4.209   3.871   1.876  0.1489  0.1855  0.5311
14360SOL    HW144322   4.258   3.814   1.935  2.2797  2.1094  0.7062
14360SOL    HW244323   4.199   3.820   1.796 -0.7061 -1.5548  1.6940
14361SOL     OW44324   3.372   1.055   7.103  0.9573 -0.8949  0.2525
14361SOL    HW144325   3.331   1.112   7.168  1.2681 -0.7676  0.3392
14361SOL    HW244326   3.462   1.047   7.132  1.2121 -0.4777 -0.3980
14362SOL     OW44327   7.416   0.455   4.270 -0.2114  0.2978  0.0777
14362SOL    HW144328   7.341   0.481   4.323  0.3123  0.1561  0.9012
14362SOL    HW244329   7.412   0.511   4.193 -0.9167  0.5864  0.3197
14363SOL     OW44330   3.982   5.004   2.262 -0.0395 -0.5264  0.2206
14363SOL    HW144331   3.920   5.012   2.189  0.9878 -2.2112 -0.8719
14363SOL    HW244332   3.946   5.061   2.330 -1.3436  0.6063 -1.3678
14364SOL     OW44333   5.369   6.432   1.299 -0.3872 -0.7744  0.5375
14364SOL    HW144334   5.410   6.355   1.260  0.0055 -1.1863  1.7357
14364SOL    HW244335   5.426   6.455   1.372 -0.3310  0.8624 -0.0126
14365SOL     OW44336   3.215   7.543   3.591  0.1825 -0.1922  0.1147
14365SOL    HW144337   3.233   7.452   3.612 -0.5570 -0.1162  1.0966
14365SOL    HW244338   3.142   7.567   3.649  0.5599  1.0940  0.0591
14366SOL     OW44339   4.205   4.924   6.241 -0.3542  0.0911 -0.3100
14366SOL    HW144340   4.112   4.908   6.225 -0.4021  0.2692 -0.2169
14366SOL    HW244341   4.239   4.952   6.156 -0.0740 -1.3568 -0.6908
14367SOL     OW44342   6.804   0.699   7.664  0.4250  0.0320  0.1717
14367SOL    HW144343   6.868   0.757   7.621  1.3862 -0.8450  0.4031
14367SOL    HW244344   6.719   0.740   7.646  0.9779  0.7633 -0.8539
14368SOL     OW44345   3.315   2.474   7.006 -0.0508 -0.1937  0.2547
14368SOL    HW144346   3.254   2.545   7.025  1.4343  1.1141  0.2154
14368SOL    HW244347   3.282   2.436   6.925 -0.2755  1.1078 -0.2768
14369SOL     OW44348   5.722   0.663   4.611 -0.5209  0.1473  0.1334
14369SOL    HW144349   5.720   0.756   4.587 -1.7440  0.0286 -0.3117
14369SOL    HW244350   5.754   0.661   4.701 -3.3113  1.2675  1.2038
14370SOL     OW44351   7.752   0.054   1.955  0.3565 -0.1793  0.3699
14370SOL    HW144352   7.715  -0.030   1.982 -0.3148 -0.1607 -0.4607
14370SOL    HW244353   7.730   0.114   2.026  0.3322 -0.5736  0.6979
14371SOL     OW44354   5.669   0.063   1.958  0.3845 -0.3617  0.1730
14371SOL    HW144355   5.593   0.028   2.005 -0.0693  0.2674 -0.0768
14371SOL    HW244356   5.631   0.103   1.879  0.8588  0.8942  0.5686
14372SOL     OW44357   0.097   4.369   8.047 -0.2106 -0.4702  0.3279
14372SOL    HW144358   0.071   4.461   8.049 -0.3964 -0.5475  1.7208
14372SOL    HW244359   0.050   4.333   7.971  0.8170  0.8463 -0.9699
14373SOL     OW44360   8.125   1.287   0.284 -0.0213 -0.1888  0.2253
14373SOL    HW144361   8.121   1.297   0.379  0.7895  1.1291  0.1379
14373SOL    HW244362   8.158   1.371   0.253  0.0001 -0.7149 -1.2012
14374SOL     OW44363   0.086   0.060   6.471 -0.1113  0.5844 -0.3289
14374SOL    HW144364   0.088   0.139   6.418  2.0248  0.9034  0.1672
14374SOL    HW244365   0.179   0.040   6.487 -0.5924 -2.1762 -0.6905
14375SOL     OW44366   0.514   4.120   0.400 -0.4915 -0.2218 -0.0773
14375SOL    HW144367   0.590   4.169   0.432 -0.5898  0.0039 -0.1864
14375SOL    HW244368   0.536   4.028   0.416 -0.0791 -0.1744 -0.3671
14376SOL     OW44369   7.969   1.760   5.015  0.2615  0.2435 -0.1670
14376SOL    HW144370   8.004   1.739   4.929 -0.9568  0.6480 -0.7829
14376SOL    HW244371   7.966   1.855   5.017  0.1207  0.2319  0.2512
14377SOL     OW44372   7.999   8.137   1.007  0.3888  0.4384 -0.1782
14377SOL    HW144373   7.952   8.055   1.021  0.4341  0.3590 -0.4805
14377SOL    HW244374   8.024   8.166   1.095  1.6698 -0.6328 -0.1706
14378SOL     OW44375   5.608   2.925   6.817  0.2413 -0.8321  0.7178
14378SOL    HW144376   5.564   3.002   6.781  0.1593 -0.4761  1.5765
14378SOL    HW244377   5.610   2.863   6.744  0.3609  0.0027  0.0016
14379SOL     OW44378   0.915   7.678   1.997  0.2160 -0.3035  0.3745
14379SOL    HW144379   0.954   7.758   2.032 -0.4332  0.5164 -0.7489
14379SOL    HW244380   0.941   7.610   2.058  2.1099  0.4924  0.4722
14380SOL     OW44381   3.609   1.051   5.192 -0.2550  0.1434  0.0051
14380SOL    HW144382   3.541   0.989   5.219  0.2511 -1.1764 -1.6464
14380SOL    HW244383   3.687   1.022   5.238  0.8582 -2.7399 -3.4768
14381SOL     OW44384   7.535   4.786   2.057 -0.1687 -0.2882  0.1341
14381SOL    HW144385   7.567   4.703   2.094  0.7158  0.2026  0.4817
14381SOL    HW244386   7.441   4.772   2.044 -0.1825 -1.0469  1.0053
14382SOL     OW44387   0.209   3.203   4.936  0.0243 -0.4428 -0.3363
14382SOL    HW144388   0.289   3.193   4.884  0.2422 -0.0715 -0.0719
14382SOL    HW244389   0.144   3.234   4.873 -0.4219 -2.5913 -0.9808
14383SOL     OW44390   7.206   7.440   0.195  0.3316  0.1848 -0.0367
14383SOL    HW144391   7.219   7.404   0.282  1.1997 -0.0348 -0.2497
14383SOL    HW244392   7.247   7.376   0.136  2.3648  1.7273 -0.3895
14384SOL     OW44393   6.965   4.707   6.254  0.3480 -0.1804  0.2045
14384SOL    HW144394   6.910   4.678   6.181 -2.4101  1.0457  1.7179
14384SOL    HW244395   6.934   4.795   6.273  2.6623  0.4145  1.3185
14385SOL     OW44396   2.289   8.215   1.811 -0.1736  0.5528  0.5165
14385SOL    HW144397   2.202   8.184   1.838  0.0636  0.9773  1.7908
14385SOL    HW244398   2.344   8.201   1.887  1.0010 -0.1531 -0.4545
14386SOL     OW44399   0.023   6.333   1.204 -0.1541 -0.2641  0.1826
14386SOL    HW144400   0.055   6.422   1.218 -1.9543  0.0347  2.6984
14386SOL    HW244401  -0.042   6.341   1.134  1.1138  0.0533 -0.9724
14387SOL     OW44402   1.810   4.108   2.880 -0.2542  0.3002  0.1856
14387SOL    HW144403   1.852   4.161   2.812 -0.0385  1.1663  0.9920
14387SOL    HW244404   1.726   4.153   2.897  0.6720  1.3786  2.0832
14388SOL     OW44405   6.790   6.338   4.648  0.5101  0.0815  0.4947
14388SOL    HW144406   6.873   6.323   4.602  0.4589 -3.0306  1.3287
14388SOL    HW244407   6.726   6.351   4.578  1.3366  0.4148 -0.2037
14389SOL     OW44408   7.048   3.740   1.205 -0.5346 -0.0056  0.1509
14389SOL    HW144409   6.961   3.709   1.231  0.0222 -1.0159  0.8579
14389SOL    HW244410   7.031   3.817   1.152 -1.8519  0.0547  0.6362
14390SOL     OW44411   1.402   6.849   4.329 -0.4266 -0.1232 -0.2186
14390SOL    HW144412   1.332   6.789   4.355 -0.5574  0.1127 -0.0249
14390SOL    HW244413   1.357   6.920   4.284 -0.4896  0.8281  1.2987
14391SOL     OW44414   5.582   0.140   1.712 -0.0953 -0.5948 -0.0458
14391SOL    HW144415   5.630   0.210   1.668 -0.2651  0.8830  2.0054
14391SOL    HW244416   5.566   0.074   1.644 -0.8032  1.8003 -2.2716
14392SOL     OW44417   7.989   1.532   5.439  0.3743 -0.2036  0.1284
14392SOL    HW144418   8.002   1.468   5.509  2.6873 -1.9427 -1.8379
14392SOL    HW244419   7.923   1.493   5.382  0.9509 -0.3415 -0.4567
14393SOL     OW44420   2.062   4.606   6.891  0.4001  0.2505  0.1126
14393SOL    HW144421   2.137   4.576   6.840  0.7563 -0.4161  1.0171
14393SOL    HW244422   2.072   4.563   6.976 -0.4453  0.9733  0.5855
14394SOL     OW44423   2.346   3.720   7.452  0.4489 -0.1132  0.2278
14394SOL    HW144424   2.250   3.724   7.450  0.2945 -2.5829  0.4699
14394SOL    HW244425   2.365   3.626   7.451  2.8432  0.3283  1.9645
14395SOL     OW44426   7.413   3.603   2.491 -0.4094  0.1400 -0.0224
14395SOL    HW144427   7.403   3.561   2.577 -3.2720 -1.3771 -1.0149
14395SOL    HW244428   7.484   3.554   2.450 -0.1188 -0.2169  0.8757
14396SOL     OW44429   2.204   1.094   5.707 -0.1524  0.3841 -0.7244
14396SOL    HW144430   2.239   1.081   5.796 -0.6266 -1.7629 -0.8385
14396SOL    HW244431   2.282   1.097   5.651  0.0352 -0.3953 -0.5012
14397SOL     OW44432   0.669   0.828   3.542 -0.4376 -0.0607  0.1241
14397SOL    HW144433   0.627   0.840   3.627  0.4124  2.4209  0.2535
14397SOL    HW244434   0.755   0.792   3.562 -0.2770  0.4264  0.3243
14398SOL     OW44435   1.478   1.743   0.060  0.4288 -0.0950  0.1262
14398SOL    HW144436   1.435   1.661   0.085  2.0921 -1.7281 -2.2436
14398SOL    HW244437   1.563   1.739   0.104  1.0001 -0.2365 -0.9758
14399SOL     OW44438   5.308   5.950   5.679  0.0524  0.8118 -0.2824
14399SOL    HW144439   5.230   5.982   5.723  0.5484  0.0593  1.1455
14399SOL    HW244440   5.276   5.920   5.594 -1.2638  0.2045  0.4145
14400SOL     OW44441   7.019   1.183   3.106 -0.4638  0.3660 -0.7158
14400SOL    HW144442   7.094   1.187   3.166 -0.4628  0.6999 -0.7390
14400SOL    HW244443   7.027   1.098   3.063 -0.9713 -0.2744  0.4275
14401SOL     OW44444   1.410   0.675   7.996  0.0811 -0.4567  0.1434
14401SOL    HW144445   1.360   0.661   7.915  0.4526 -0.2976 -0.1137
14401SOL    HW244446   1.377   0.758   8.030 -0.6985 -0.9522  0.6191
14402SOL     OW44447   7.865   2.346   0.807 -0.1813  0.0819 -0.2282
14402SOL    HW144448   7.781   2.385   0.781  0.4893  1.5699 -0.2467
14402SOL    HW244449   7.858   2.335   0.902 -0.4227  0.1645 -0.2348
14403SOL     OW44450   2.460   6.194   0.467  0.8216  0.2617  0.6471
14403SOL    HW144451   2.528   6.199   0.400  1.4219  0.8782  1.2914
14403SOL    HW244452   2.429   6.103   0.463  2.2564 -0.2582  0.9090
14404SOL     OW44453   1.528   7.515   0.117  0.3657 -0.7266 -0.0567
14404SOL    HW144454   1.449   7.549   0.159 -0.3785 -1.0463 -1.1734
14404SOL    HW244455   1.496   7.473   0.037  1.7864  0.2333 -1.1620
14405SOL     OW44456   0.200   6.786   5.154  0.2108 -0.3920 -0.6183
14405SOL    HW144457   0.245   6.859   5.198 -0.8235  0.6927 -1.3406
14405SOL    HW244458   0.114   6.783   5.195  0.8925 -2.4447  0.7353
14406SOL     OW44459   8.180   5.761   2.208 -0.6558 -0.2894  0.1813
14406SOL    HW144460   8.237   5.835   2.191 -0.3483 -0.6200 -0.2231
14406SOL    HW244461   8.178   5.713   2.126 -2.3289  0.2767 -0.1331
14407SOL     OW44462   5.719   4.922   2.245 -0.0330  0.1625 -0.5552
14407SOL    HW144463   5.788   4.868   2.207 -0.8421 -0.7916 -0.6709
14407SOL    HW244464   5.754   4.949   2.330 -0.3546 -2.0190  0.2839
14408SOL     OW44465   4.720   0.214   4.444 -0.5993 -0.4938 -0.5250
14408SOL    HW144466   4.784   0.187   4.379  0.2779  0.7023 -0.1838
14408SOL    HW244467   4.758   0.186   4.528  0.4562  1.9737 -0.1438
14409SOL     OW44468   4.810   6.730   7.967  0.0728 -0.1808  0.4073
14409SOL    HW144469   4.867   6.728   7.889  0.6772 -0.5875  0.8557
14409SOL    HW244470   4.779   6.820   7.971 -1.1261 -0.5058 -1.1436
14410SOL     OW44471   6.696   4.422   6.636  0.0144 -0.9813 -0.0510
14410SOL    HW144472   6.780   4.468   6.647  1.4511 -3.3038 -1.0278
14410SOL    HW244473   6.702   4.346   6.693 -1.5946 -0.9738  0.1534
14411SOL     OW44474   3.502   8.160   1.261 -0.1788 -0.3483  0.6982
14411SOL    HW144475   3.444   8.176   1.335  0.0591 -0.7194  0.9672
14411SOL    HW244476   3.506   8.243   1.214  0.0181  0.0088  1.3468
14412SOL     OW44477   6.471   7.584   4.474 -0.1388 -0.7767  0.8991
14412SOL    HW144478   6.550   7.539   4.445 -0.3367 -0.9749  0.6588
14412SOL    HW244479   6.500   7.672   4.499  0.0123 -0.5489 -0.0527
14413SOL     OW44480   5.962   0.046   5.814 -0.1814 -0.1287  0.0865
14413SOL    HW144481   6.054   0.063   5.833 -0.4720  2.7483 -0.8586
14413SOL    HW244482   5.915   0.076   5.891 -0.4533 -0.1065 -0.0855
14414SOL     OW44483   7.013   7.389   5.303 -0.3943  0.4114 -0.3671
14414SOL    HW144484   6.995   7.313   5.359 -0.6996  0.4660 -0.3894
14414SOL    HW244485   7.040   7.458   5.364  1.9345 -0.3159 -0.5289
14415SOL     OW44486   2.716   4.763   1.127  0.4410  0.7568  0.7201
14415SOL    HW144487   2.711   4.674   1.161 -1.1331  0.0024 -1.3901
14415SOL    HW244488   2.628   4.798   1.141  0.5925  1.4094  0.0238
14416SOL     OW44489   6.594   0.516   2.361  0.3667 -0.0747 -0.5267
14416SOL    HW144490   6.545   0.446   2.318 -1.0455  1.0536 -0.7688
14416SOL    HW244491   6.535   0.548   2.430  1.3315  0.3267  0.1301
14417SOL     OW44492   2.684   6.584   6.149 -0.5094 -0.2674 -0.7962
14417SOL    HW144493   2.730   6.518   6.098  0.1331  0.0645 -0.6585
14417SOL    HW244494   2.601   6.597   6.102  0.5142  0.7954 -2.3726
14418SOL     OW44495   3.976   0.260   6.833 -0.4018  0.2701  0.0997
14418SOL    HW144496   3.984   0.213   6.916  2.1962 -1.8503 -1.2257
14418SOL    HW244497   4.066   0.260   6.798 -1.3596  1.5132 -2.4623
14419SOL     OW44498   5.947   7.432   1.042 -0.2534 -0.1853  0.1984
14419SOL    HW144499   6.024   7.431   1.099  1.5878  0.1492 -2.1952
14419SOL    HW244500   5.943   7.522   1.010 -0.1218 -0.8142 -1.6466
14420SOL     OW44501   2.402   2.132   5.587  0.7178 -0.1666  0.2017
14420SOL    HW144502   2.414   2.222   5.558  1.3247 -0.9572 -2.0289
14420SOL    HW244503   2.341   2.094   5.525 -0.2403 -1.0635  1.6537
14421SOL     OW44504   3.900   8.174   1.318  0.2065 -0.0383  0.5220
14421SOL    HW144505   3.961   8.105   1.295  0.9786  0.6433  0.5198
14421SOL    HW244506   3.886   8.163   1.412  0.6182  0.0227  0.5930
14422SOL     OW44507   5.134   1.421   5.976  0.5364 -0.5403  0.3907
14422SOL    HW144508   5.190   1.373   5.915 -0.8336 -1.6615 -0.0036
14422SOL    HW244509   5.074   1.470   5.919  0.3773 -0.2356  0.8240
14423SOL     OW44510   7.259   2.499   0.272 -0.8890 -0.1258 -0.1161
14423SOL    HW144511   7.297   2.415   0.247  0.1361  0.2526  0.1214
14423SOL    HW244512   7.324   2.564   0.245 -0.5936  0.4266  1.8108
14424SOL     OW44513   8.203   7.710   7.708 -0.1191  0.1347  0.1325
14424SOL    HW144514   8.275   7.724   7.646  1.3728 -1.0497  1.5384
14424SOL    HW244515   8.133   7.672   7.655  0.3609  1.1094 -1.2284
14425SOL     OW44516   6.147   0.961   0.222 -0.3828 -0.7469 -0.4668
14425SOL    HW144517   6.135   0.958   0.317 -1.1636 -0.5392 -0.5578
14425SOL    HW244518   6.077   1.017   0.190  0.4261 -0.0669 -1.0840
14426SOL     OW44519   0.921   3.768   7.980  0.2195  0.2597 -0.5332
14426SOL    HW144520   0.886   3.679   7.982 -1.6596  0.9720 -1.0984
14426SOL    HW244521   0.849   3.822   7.949  1.3913  1.9747 -0.3569
14427SOL     OW44522   5.552   8.138   5.293  0.1409 -0.0245  0.2291
14427SOL    HW144523   5.545   8.199   5.366  1.1632  0.2526  0.1104
14427SOL    HW244524   5.606   8.066   5.327  0.2371 -0.1143 -0.1070
14428SOL     OW44525   1.685   2.988   7.906  0.5389  0.0830  0.8204
14428SOL    HW144526   1.745   2.920   7.875 -0.6706  0.3195 -2.2477
14428SOL    HW244527   1.598   2.959   7.875  0.0277  3.0106 -0.6630
14429SOL     OW44528   3.804   3.677   1.290  0.0391  0.0974  0.5404
14429SOL    HW144529   3.859   3.739   1.242  0.6909  0.2001  1.4198
14429SOL    HW244530   3.720   3.721   1.297 -0.3951 -0.3522 -1.4368
14430SOL     OW44531   3.804   7.784   8.012 -0.5785 -1.0443  0.0046
14430SOL    HW144532   3.718   7.770   7.972 -1.4685  1.7393  0.8344
14430SOL    HW244533   3.792   7.760   8.104 -1.1891  1.6423  0.6724
14431SOL     OW44534   7.929   2.306   5.856  0.6339  0.1134 -0.6922
14431SOL    HW144535   7.985   2.239   5.894  0.3936  0.8638  1.0026
14431SOL    HW244536   7.989   2.379   5.837  0.2480  0.9320  1.1583
14432SOL     OW44537   2.387   0.936   7.263 -0.0931 -0.2776 -0.0675
14432SOL    HW144538   2.304   0.967   7.301 -0.0637 -0.7154  0.3597
14432SOL    HW244539   2.364   0.910   7.174 -0.8773 -2.4183  0.7268
14433SOL     OW44540   4.660   2.370   3.822 -0.1469 -0.0549 -0.2156
14433SOL    HW144541   4.700   2.284   3.805  2.8298  1.3202 -0.5977
14433SOL    HW244542   4.733   2.423   3.855 -2.1970  2.0121  1.0890
14434SOL     OW44543   7.243   0.482   0.730  0.2337  0.0900  0.3634
14434SOL    HW144544   7.176   0.414   0.721 -0.6073  1.2838 -3.0086
14434SOL    HW244545   7.325   0.437   0.713 -0.1382 -0.4830  0.0603
14435SOL     OW44546   1.899   0.112   2.665  0.3417  0.0628 -0.1435
14435SOL    HW144547   1.879   0.090   2.574  2.0674  1.7588 -0.9896
14435SOL    HW244548   1.827   0.168   2.693 -1.9499 -3.1748  0.6913
14436SOL     OW44549   3.629   3.174   3.147  0.0178 -0.1039 -0.5774
14436SOL    HW144550   3.622   3.268   3.130 -0.0071  0.4377  2.1730
14436SOL    HW244551   3.541   3.149   3.177 -0.3438 -1.3068 -2.5338
14437SOL     OW44552   5.052   4.399   6.512  0.6715  0.1081  0.1247
14437SOL    HW144553   5.057   4.444   6.596  0.5728  0.8204 -0.2451
14437SOL    HW244554   4.994   4.454   6.459 -1.3302 -1.6478  0.4187
14438SOL     OW44555   3.775   6.339   5.631  0.0306 -0.3008  0.8353
14438SOL    HW144556   3.731   6.399   5.570  0.5511 -1.9609 -1.1995
14438SOL    HW244557   3.790   6.392   5.709 -1.0274  1.7431 -0.3044
14439SOL     OW44558   6.290   5.710   3.883  0.1148 -0.0707 -0.1934
14439SOL    HW144559   6.337   5.627   3.872  2.0038  1.0433 -0.6052
14439SOL    HW244560   6.351   5.777   3.852 -1.7685  1.4029 -0.7924
14440SOL     OW44561   5.123   7.364   1.967 -0.5462 -0.6816 -0.1133
14440SOL    HW144562   5.130   7.321   2.052  1.1087 -0.5149 -0.1464
14440SOL    HW244563   5.064   7.438   1.982  1.3477  0.5802  1.4308
14441SOL     OW44564   5.045   4.270   3.828  0.3180  0.2470 -0.7156
14441SOL    HW144565   5.119   4.310   3.782 -0.6104  2.4955 -0.2986
14441SOL    HW244566   5.026   4.330   3.900 -2.5971  0.2337 -1.4363
14442SOL     OW44567   7.107   1.772   4.408 -0.3369  0.7684  0.2539
14442SOL    HW144568   7.116   1.834   4.480 -0.1630  0.3388  0.6037
14442SOL    HW244569   7.179   1.710   4.421  0.1575  1.1275 -0.7188
14443SOL     OW44570   3.386   4.376   2.693 -0.1762  0.2409 -0.0502
14443SOL    HW144571   3.382   4.422   2.609  0.6749 -1.3593 -0.9707
14443SOL    HW244572   3.454   4.311   2.682 -0.6685 -0.5802  1.6068
14444SOL     OW44573   0.756   7.597   3.725 -0.2141  0.1086  0.4478
14444SOL    HW144574   0.674   7.577   3.771  0.2531 -1.1805  0.7622
14444SOL    HW244575   0.810   7.518   3.738  1.0658  0.9333  0.2373
14445SOL     OW44576   0.322   1.537   1.754 -0.1379 -0.2587 -0.2599
14445SOL    HW144577   0.276   1.532   1.670  0.6972 -0.8168 -0.6790
14445SOL    HW244578   0.286   1.465   1.806 -0.7202  0.1426 -0.0952
14446SOL     OW44579   4.572   6.419   1.607  0.6827 -0.1604  0.3004
14446SOL    HW144580   4.568   6.340   1.554  0.7654  1.1514 -1.7306
14446SOL    HW244581   4.645   6.404   1.668  2.4294 -0.6079 -1.8253
14447SOL     OW44582   3.528   0.936   6.453 -0.5557 -0.4074 -0.1519
14447SOL    HW144583   3.589   0.988   6.402  1.9900 -2.8949  0.2134
14447SOL    HW244584   3.522   0.981   6.537  0.9738 -0.2520 -0.1139
14448SOL     OW44585   0.365   0.663   3.558 -0.6793 -0.1293  0.6741
14448SOL    HW144586   0.452   0.632   3.581 -0.0329  1.1484  0.0148
14448SOL    HW244587   0.338   0.717   3.633 -0.9374 -0.5724  0.9044
14449SOL     OW44588   5.598   5.044   7.730  0.2184  0.0781  0.2329
14449SOL    HW144589   5.614   4.975   7.665  1.1573  1.7504 -1.3596
14449SOL    HW244590   5.679   5.049   7.780  0.0356 -0.1887  0.5566
14450SOL     OW44591   7.265   5.880   3.490  0.0232 -0.0630 -0.0277
14450SOL    HW144592   7.327   5.841   3.429  0.3892 -2.6178  1.9091
14450SOL    HW244593   7.284   5.974   3.486  1.6966 -0.4399 -1.9566
14451SOL     OW44594   2.571   1.385   1.558  0.1980  0.3213 -0.4204
14451SOL    HW144595   2.487   1.369   1.514 -0.8712 -2.8985  2.5758
14451SOL    HW244596   2.547   1.422   1.643  1.8504 -0.2722  0.3256
14452SOL     OW44597   0.253   4.020   8.289  0.0324 -0.3064 -0.5268
14452SOL    HW144598   0.275   4.073   8.213  1.8428  0.4077  0.4764
14452SOL    HW244599   0.284   4.071   8.364 -0.5948 -1.5726  0.6152
14453SOL     OW44600   5.344   6.666   3.033  0.1211 -0.3267 -0.1864
14453SOL    HW144601   5.404   6.648   3.106 -0.3173 -1.6642 -0.1527
14453SOL    HW244602   5.350   6.761   3.021  0.2159 -0.0937  1.5651
14454SOL     OW44603   3.989   1.339   5.349  0.1212 -0.2416 -0.1623
14454SOL    HW144604   4.027   1.353   5.263 -3.0942  1.5898 -1.3360
14454SOL    HW244605   3.951   1.251   5.345 -0.6316  0.1154 -0.8444
14455SOL     OW44606   1.660   4.613   7.669  0.1328 -0.5687  0.4235
14455SOL    HW144607   1.601   4.665   7.615  0.6546  0.0187  0.4111
14455SOL    HW244608   1.617   4.528   7.678 -1.2063  0.1924  1.2803
14456SOL     OW44609   5.886   3.411   1.287 -0.1342 -0.5865  0.1291
14456SOL    HW144610   5.942   3.409   1.365 -0.0473 -1.1714  0.0571
14456SOL    HW244611   5.828   3.335   1.298 -0.4025 -0.4250 -0.1700
14457SOL     OW44612   8.294   4.169   4.915  0.1323  0.4763  0.2822
14457SOL    HW144613   8.289   4.077   4.940 -1.1060  0.3904 -0.2517
14457SOL    HW244614   8.209   4.188   4.876  1.2616  1.1677 -1.9265
14458SOL     OW44615   3.287   4.139   2.524  0.2552 -0.4902 -0.1944
14458SOL    HW144616   3.371   4.094   2.540  1.1070  0.7385 -1.1111
14458SOL    HW244617   3.304   4.195   2.448 -0.8826  1.1772  0.7613
14459SOL     OW44618   2.735   4.470   3.065 -0.0199  1.0515 -0.6816
14459SOL    HW144619   2.777   4.384   3.066 -0.1542  0.9821 -0.9757
14459SOL    HW244620   2.773   4.516   3.140 -0.4725  0.4881 -0.0988
14460SOL     OW44621   3.903   7.989   1.561 -0.1892 -0.9323  0.9795
14460SOL    HW144622   3.851   8.010   1.638  0.9828 -0.9245  1.7827
14460SOL    HW244623   3.918   7.895   1.567 -1.8873 -1.3114 -0.3812
14461SOL     OW44624   4.102   5.877   2.006  0.3709 -0.3426  0.0618
14461SOL    HW144625   4.086   5.932   2.083 -1.0709  2.1252 -1.9450
14461SOL    HW244626   4.189   5.904   1.975 -0.1887  0.5776 -0.7206
14462SOL     OW44627   3.433   2.585   5.869  0.4982 -0.2424 -0.1329
14462SOL    HW144628   3.377   2.510   5.852 -1.6081  1.3240 -0.3026
14462SOL    HW244629   3.415   2.608   5.960  1.2988 -0.0420 -0.0152
14463SOL     OW44630   3.559   2.739   7.150 -0.3331  0.1077 -0.3943
14463SOL    HW144631   3.493   2.687   7.104 -1.0337  1.1974 -0.6415
14463SOL    HW244632   3.509   2.805   7.197  0.4141 -0.6749  1.5498
14464SOL     OW44633   2.873   4.132   6.894  0.2501 -0.3327 -0.6072
14464SOL    HW144634   2.848   4.050   6.937  0.9425 -0.5960 -0.6999
14464SOL    HW244635   2.850   4.200   6.956 -0.3673 -0.5986 -0.5449
14465SOL     OW44636   8.040   6.953   7.232  0.3505  0.6180  0.2751
14465SOL    HW144637   8.080   7.030   7.273  2.6313  0.6861 -1.9333
14465SOL    HW244638   8.024   6.892   7.304  2.3299  1.5491  1.5306
14466SOL     OW44639   0.753   3.519   3.400 -0.0847  0.3502 -0.8303
14466SOL    HW144640   0.681   3.579   3.421  0.2071 -0.5681  3.2550
14466SOL    HW244641   0.715   3.432   3.408  1.0744 -0.1057 -0.1463
14467SOL     OW44642   4.542   7.421   0.436  0.4468  0.3881  0.2467
14467SOL    HW144643   4.611   7.375   0.482  0.2758  0.0315  0.1508
14467SOL    HW244644   4.554   7.397   0.344 -0.2341 -0.2538  0.3142
14468SOL     OW44645   1.181   1.229   6.400  0.0425 -0.4079 -0.1489
14468SOL    HW144646   1.104   1.184   6.435 -0.5274  0.4508 -0.2719
14468SOL    HW244647   1.171   1.320   6.430  2.4586 -0.8556  2.2638
14469SOL     OW44648   4.626   2.730   7.182 -1.1295  0.0855  0.1422
14469SOL    HW144649   4.588   2.780   7.109 -1.4694  1.6910  1.3870
14469SOL    HW244650   4.570   2.751   7.257 -0.3145 -0.9186  1.0450
14470SOL     OW44651   4.343   5.333   7.999 -0.0352 -0.2251  0.4122
14470SOL    HW144652   4.254   5.356   8.029  0.5429  2.3365  0.3201
14470SOL    HW244653   4.330   5.291   7.914 -1.0789  1.8098 -0.4699
14471SOL     OW44654   6.440   1.213   0.838 -0.0858  0.2628 -0.0639
14471SOL    HW144655   6.424   1.252   0.924  0.7291  1.3850 -0.4049
14471SOL    HW244656   6.451   1.120   0.855  0.2262  0.5069  1.0713
14472SOL     OW44657   5.612   6.564   0.068 -0.5743  0.2581 -0.2801
14472SOL    HW144658   5.566   6.637   0.110 -1.1749  0.8323 -1.8864
14472SOL    HW244659   5.559   6.487   0.089 -0.3979  0.4035  0.7201
14473SOL     OW44660   6.863   5.396   0.708 -0.3221 -0.1518  0.3855
14473SOL    HW144661   6.827   5.371   0.793 -1.6802 -3.2392 -1.0085
14473SOL    HW244662   6.958   5.391   0.720 -0.5131 -1.6136  1.4532
14474SOL     OW44663   2.162   5.567   0.264 -0.1969 -0.2692  0.0825
14474SOL    HW144664   2.164   5.643   0.322  1.4308 -0.5738  0.4707
14474SOL    HW244665   2.175   5.602   0.176 -0.9767  0.0414  0.0926
14475SOL     OW44666   6.334   5.239   5.233 -0.3769  0.1540  0.0386
14475SOL    HW144667   6.370   5.288   5.306  0.0280  2.0218 -1.3884
14475SOL    HW244668   6.289   5.304   5.179 -1.6591 -1.3702 -0.8002
14476SOL     OW44669   2.376   0.697   4.236 -0.1469 -0.1726 -0.3533
14476SOL    HW144670   2.392   0.609   4.271  1.6492  0.2126 -0.1128
14476SOL    HW244671   2.401   0.691   4.144  0.7119  0.2598 -0.1561
14477SOL     OW44672   6.886   4.189   6.419  0.2769 -0.0973 -0.5411
14477SOL    HW144673   6.833   4.262   6.386 -2.7938 -1.8703  0.2651
14477SOL    HW244674   6.910   4.216   6.508 -2.6665 -0.9031  0.5513
14478SOL     OW44675   0.231   6.670   0.648 -0.6220 -0.3380 -0.1384
14478SOL    HW144676   0.220   6.576   0.661 -1.3279 -0.1155  0.9312
14478SOL    HW244677   0.311   6.678   0.595 -0.9169 -1.5628 -0.7835
14479SOL     OW44678   3.866   3.665   4.893 -0.2218  0.1549 -0.5146
14479SOL    HW144679   3.817   3.642   4.815 -0.5000  0.6003 -0.4722
14479SOL    HW244680   3.923   3.590   4.909 -0.7068 -0.2561 -0.7083
14480SOL     OW44681   6.180   2.318   6.497  0.0293  0.1240 -0.0504
14480SOL    HW144682   6.233   2.391   6.466 -1.6636  1.5235  0.2758
14480SOL    HW244683   6.177   2.331   6.592 -0.8789  0.0518 -0.0703
14481SOL     OW44684   1.202   0.621   4.234  0.2310  0.5034  0.3887
14481SOL    HW144685   1.206   0.709   4.273 -4.8040  1.4239 -0.7641
14481SOL    HW244686   1.161   0.567   4.301 -1.6236  0.3850 -0.7779
14482SOL     OW44687   6.741   7.633   7.633 -0.3936  0.7935  0.4941
14482SOL    HW144688   6.703   7.701   7.577  0.2459  1.8726  1.3552
14482SOL    HW244689   6.719   7.551   7.589 -1.8863  1.5059 -0.1359
14483SOL     OW44690   2.161   6.019   1.380  0.1271 -0.4878  0.2184
14483SOL    HW144691   2.207   6.093   1.419 -2.2400  0.9220  0.4394
14483SOL    HW244692   2.132   5.966   1.455 -1.2999  0.3097  0.2528
14484SOL     OW44693   4.852   5.885   6.569 -0.0083  0.4000 -0.3760
14484SOL    HW144694   4.868   5.895   6.663 -1.1608  2.4266 -0.3768
14484SOL    HW244695   4.818   5.969   6.541  0.4210 -0.1409 -2.6593
14485SOL     OW44696   2.847   2.198   1.727 -0.6749  0.8983 -0.1821
14485SOL    HW144697   2.846   2.211   1.632 -0.4777  1.0618 -0.1590
14485SOL    HW244698   2.789   2.123   1.740 -0.1811  0.4607 -0.4919
14486SOL     OW44699   7.359   1.410   0.811  0.0360  0.0985  0.3581
14486SOL    HW144700   7.414   1.476   0.852  0.2246  0.8783 -1.1201
14486SOL    HW244701   7.273   1.420   0.853  0.1622  1.0567  0.3879
14487SOL     OW44702   7.443   4.586   4.336  0.1341  0.3267 -0.6409
14487SOL    HW144703   7.404   4.501   4.317  1.6451 -0.5095 -0.0344
14487SOL    HW244704   7.486   4.612   4.255 -0.2895  0.4920 -0.8128
14488SOL     OW44705   7.690   5.986   2.327 -0.3030 -0.0890 -0.6245
14488SOL    HW144706   7.775   5.951   2.354 -0.6330  0.6041  1.4549
14488SOL    HW244707   7.711   6.061   2.272  0.5110  1.3755  1.5847
14489SOL     OW44708   5.917   4.436   1.828  0.2931  0.4700  0.3419
14489SOL    HW144709   5.891   4.359   1.777  1.2447  1.0600 -1.0555
14489SOL    HW244710   6.011   4.425   1.841  0.8657  2.4667 -1.7636
14490SOL     OW44711   2.316   0.061   0.910  0.2790  0.2151  0.1570
14490SOL    HW144712   2.367   0.042   0.831  0.5655 -0.8260  0.5898
14490SOL    HW244713   2.379   0.052   0.982 -0.4881 -0.9883  0.6826
14491SOL     OW44714   4.954   8.088   5.433 -0.3231  0.1098  0.2002
14491SOL    HW144715   4.902   8.160   5.469 -0.9007 -0.0751 -0.2768
14491SOL    HW244716   5.043   8.107   5.463 -0.5266  0.8500  0.3482
14492SOL     OW44717   7.164   0.812   6.213 -0.1152  0.3107  0.3164
14492SOL    HW144718   7.146   0.875   6.282 -1.1988  0.6353 -0.2541
14492SOL    HW244719   7.125   0.850   6.135 -2.6933 -2.0349  0.3817
14493SOL     OW44720   4.553   6.020   1.606 -0.6190  0.1503  0.2378
14493SOL    HW144721   4.603   6.051   1.531 -0.0444 -1.0509  0.1054
14493SOL    HW244722   4.463   6.014   1.575 -0.8660  2.2867  0.4659
14494SOL     OW44723   4.535   7.521   6.892  0.5995  0.2517  0.1292
14494SOL    HW144724   4.572   7.506   6.979  1.9601 -2.5031 -0.8656
14494SOL    HW244725   4.611   7.536   6.835 -0.1141 -0.4999 -1.0444
14495SOL     OW44726   8.229   0.018   6.037 -0.1057 -0.3093  0.3193
14495SOL    HW144727   8.191  -0.019   5.957  0.6724 -1.1564  0.3340
14495SOL    HW244728   8.263  -0.058   6.085  0.7200  0.3432  0.7768
14496SOL     OW44729   1.379   6.175   7.848 -0.0368  0.5447 -0.3342
14496SOL    HW144730   1.333   6.257   7.868 -0.3293  0.5825 -1.1128
14496SOL    HW244731   1.312   6.107   7.858 -0.2342  0.5833 -1.3188
14497SOL     OW44732   0.506   1.911   1.203 -0.2386  0.0209 -0.2627
14497SOL    HW144733   0.546   1.998   1.211  0.0766  0.1090 -2.5779
14497SOL    HW244734   0.579   1.853   1.181 -0.6302 -0.6622  0.2065
14498SOL     OW44735   1.813   5.170   5.100 -1.0020  0.5253  0.4380
14498SOL    HW144736   1.856   5.253   5.123 -1.8652  1.5424 -1.5061
14498SOL    HW244737   1.719   5.191   5.102 -1.2137 -0.3305 -0.3532
14499SOL     OW44738   7.885   6.978   4.319 -0.5039  0.1131  0.0992
14499SOL    HW144739   7.924   6.895   4.289 -0.3716 -0.0111  0.6113
14499SOL    HW244740   7.847   7.016   4.240  0.2715  0.0209 -0.3326
14500SOL     OW44741   4.238   3.309   1.579 -0.0152  0.7108  0.1948
14500SOL    HW144742   4.271   3.219   1.589  0.3937  0.8914  0.4749
14500SOL    HW244743   4.315   3.360   1.555  0.1671  1.3717  2.1222
14501SOL     OW44744   5.094   8.204   2.058  0.1043 -0.1287 -0.6384
14501SOL    HW144745   5.088   8.209   2.154  0.3928  0.7427 -0.6630
14501SOL    HW244746   5.006   8.179   2.030 -0.3291  0.9257 -0.2264
14502SOL     OW44747   2.799   6.104   6.092 -0.4886 -0.0605 -0.2361
14502SOL    HW144748   2.806   6.189   6.048  1.9458  0.5372  1.2038
14502SOL    HW244749   2.820   6.040   6.025  0.1092  0.6569 -0.7465
14503SOL     OW44750   0.057   1.000   4.611  0.4309  0.3143  0.4967
14503SOL    HW144751   0.090   1.019   4.699 -1.6302 -1.4529  1.6755
14503SOL    HW244752   0.083   0.910   4.594  0.7416  0.6140 -0.6922
14504SOL     OW44753   5.600   7.012   7.033 -0.9847 -0.4770 -0.0931
14504SOL    HW144754   5.661   7.077   7.068 -0.7120 -0.4265 -0.6556
14504SOL    HW244755   5.563   6.970   7.111  0.0724 -0.7934  0.2560
14505SOL     OW44756   6.960   3.412   2.936 -0.1895  0.2845 -0.2511
14505SOL    HW144757   7.022   3.347   2.903 -0.1793  0.2439 -0.1495
14505SOL    HW244758   6.878   3.362   2.948  0.6304 -0.4321  2.8465
14506SOL     OW44759   4.859   4.234   3.150  0.7039  1.3266 -0.0059
14506SOL    HW144760   4.877   4.227   3.244  0.2349 -1.2386 -0.0742
14506SOL    HW244761   4.921   4.173   3.109 -0.1478  1.2639 -1.2197
14507SOL     OW44762   6.400   0.529   7.298  0.2722 -0.3712 -0.0868
14507SOL    HW144763   6.320   0.487   7.331 -1.4620 -0.1389 -3.7252
14507SOL    HW244764   6.469   0.464   7.313 -0.8732 -1.1996  1.7179
14508SOL     OW44765   6.043   5.500   2.959 -0.8997  0.1473  0.5149
14508SOL    HW144766   6.022   5.589   2.931 -1.4649  0.2022  1.0829
14508SOL    HW244767   5.958   5.462   2.982 -0.5514 -0.1928  1.2546
14509SOL     OW44768   2.932   6.884   6.927 -0.1353 -0.3974 -0.8346
14509SOL    HW144769   2.863   6.931   6.880 -0.1442  1.4795  0.9882
14509SOL    HW244770   2.885   6.813   6.971 -0.9590  0.8477  0.3690
14510SOL     OW44771   3.904   1.515   1.343 -0.9876  0.1631 -0.1873
14510SOL    HW144772   3.944   1.594   1.305 -0.8356 -0.3482 -1.1014
14510SOL    HW244773   3.979   1.458   1.362 -0.8206  1.3138  3.0873
14511SOL     OW44774   4.490   3.532   7.334  1.0831  0.2815  0.0378
14511SOL    HW144775   4.452   3.598   7.276  2.5809  2.2819  1.2884
14511SOL    HW244776   4.493   3.452   7.281 -1.2354  1.0677 -1.3276
14512SOL     OW44777   6.643   5.364   4.286 -0.0203 -0.3919 -0.2980
14512SOL    HW144778   6.718   5.358   4.227  0.2696 -0.6928  0.0952
14512SOL    HW244779   6.577   5.308   4.246  0.5199 -1.3791  0.1619
14513SOL     OW44780   4.747   4.834   7.392  0.2547  0.2900 -0.5994
14513SOL    HW144781   4.795   4.828   7.474 -1.6357  0.0533  0.5263
14513SOL    HW244782   4.737   4.928   7.377  0.0447  0.3308 -0.2101
14514SOL     OW44783   3.554   5.044   6.984  0.4248  0.0809 -0.2415
14514SOL    HW144784   3.548   5.059   7.078 -0.0438  0.8408 -0.3843
14514SOL    HW244785   3.464   5.032   6.956  0.3037  2.4969 -0.9988
14515SOL     OW44786   3.654   7.766   6.269  0.0717  0.1614  0.3106
14515SOL    HW144787   3.693   7.696   6.321  1.2307  0.5703  0.0164
14515SOL    HW244788   3.602   7.816   6.332  0.0009 -0.4159  0.7131
14516SOL     OW44789   3.990   7.571   6.576 -0.5520  0.7143  0.2774
14516SOL    HW144790   4.062   7.633   6.562 -0.6476  0.9355  0.7947
14516SOL    HW244791   3.911   7.624   6.572 -0.7349  0.3752 -0.9452
14517SOL     OW44792   4.892   4.527   3.668  0.2036 -0.5677 -0.7390
14517SOL    HW144793   4.888   4.433   3.648  0.0990 -0.3505 -1.7966
14517SOL    HW244794   4.966   4.559   3.616  1.1946 -0.3268  0.7759
14518SOL     OW44795   0.709   6.702   3.077 -0.6208 -0.0660 -0.1469
14518SOL    HW144796   0.654   6.713   3.155 -0.9173 -0.1974 -0.3360
14518SOL    HW244797   0.680   6.770   3.017 -1.4791 -0.9572 -0.7579
14519SOL     OW44798   3.116   4.597   2.686 -0.4373  0.3416 -0.1787
14519SOL    HW144799   3.185   4.532   2.702 -1.2050 -0.1493  1.2213
14519SOL    HW244800   3.074   4.569   2.605  0.1737 -0.0819 -0.3508
14520SOL     OW44801   0.674   5.305   7.194 -0.3608 -0.2842  0.2587
14520SOL    HW144802   0.708   5.381   7.147  1.2581 -1.3375 -0.3206
14520SOL    HW244803   0.588   5.290   7.156  0.2493 -0.1128 -1.2323
14521SOL     OW44804   0.124   2.007   1.439  0.1925 -0.0238  0.3525
14521SOL    HW144805   0.197   2.018   1.500  1.1848  0.4663 -0.9192
14521SOL    HW244806   0.077   1.930   1.472  1.3180 -0.3934  1.1251
14522SOL     OW44807   7.827   4.327   1.013  0.0894  0.0208 -0.2123
14522SOL    HW144808   7.755   4.336   0.950  0.8196 -0.7646 -1.1777
14522SOL    HW244809   7.858   4.238   1.002  0.9950  0.2420  0.4489
14523SOL     OW44810   1.051   5.851   8.261  0.2250  0.2447 -0.0702
14523SOL    HW144811   0.979   5.799   8.227 -0.6716  1.2715  0.2540
14523SOL    HW244812   1.016   5.939   8.270  1.0825  0.4509  1.4612
14524SOL     OW44813   0.647   1.838   7.088 -0.4768 -0.3574  0.1936
14524SOL    HW144814   0.620   1.800   7.172  0.7304  0.4244  0.9339
14524SOL    HW244815   0.623   1.930   7.094 -0.8711 -0.4025 -0.5375
14525SOL     OW44816   8.278   6.747   7.631  0.5488  0.7273  0.0818
14525SOL    HW144817   8.188   6.728   7.659  0.0744  1.3373 -1.0359
14525SOL    HW244818   8.326   6.667   7.652 -0.4144  0.1115 -0.0176
14526SOL     OW44819   0.610   5.067   2.609  0.3660  0.1856 -0.2805
14526SOL    HW144820   0.704   5.080   2.616  0.2412  1.6352 -1.1272
14526SOL    HW244821   0.594   5.059   2.515 -0.1394 -1.8119 -0.0453
14527SOL     OW44822   7.750   8.150   6.346  0.0924  0.0527  0.1578
14527SOL    HW144823   7.797   8.072   6.375  3.1091  1.7431 -0.0208
14527SOL    HW244824   7.735   8.200   6.427  2.0555  1.3286 -0.2416
14528SOL     OW44825   0.369   4.176   0.174  0.7044 -0.5675  0.5966
14528SOL    HW144826   0.402   4.153   0.261  4.2987  1.9197  0.0110
14528SOL    HW244827   0.350   4.270   0.180 -1.7082 -0.9574 -0.5509
14529SOL     OW44828   8.134   5.330   2.813 -0.2511 -0.3469  0.3787
14529SOL    HW144829   8.206   5.372   2.767 -1.2508 -0.9078 -1.7441
14529SOL    HW244830   8.177   5.268   2.873  1.0800  0.9160  0.7637
14530SOL     OW44831   0.861   6.333   7.834 -0.1776  0.0738  0.3004
14530SOL    HW144832   0.881   6.310   7.744  0.3541 -1.0921  0.7115
14530SOL    HW244833   0.786   6.392   7.828 -1.3059 -1.4464 -0.7929
14531SOL     OW44834   4.202   4.022   7.895  0.4453  0.6011  0.7872
14531SOL    HW144835   4.253   4.040   7.974  2.1729 -0.5146 -0.0559
14531SOL    HW244836   4.265   3.985   7.834 -1.1494  0.2905 -0.6898
14532SOL     OW44837   6.135   2.259   7.890 -0.4901  0.0333  0.0665
14532SOL    HW144838   6.163   2.301   7.972 -1.4881  1.4683 -0.2952
14532SOL    HW244839   6.217   2.234   7.847  0.0658 -0.2069  1.2335
14533SOL     OW44840   0.973   0.639   7.565  0.4568 -0.2728  0.5182
14533SOL    HW144841   1.019   0.563   7.530 -1.8599 -1.5168  0.0340
14533SOL    HW244842   0.985   0.707   7.499 -0.6635 -1.4236 -0.9087
14534SOL     OW44843   1.575   7.646   5.334  0.4695 -0.3244  0.3161
14534SOL    HW144844   1.502   7.706   5.350  0.1958 -0.1698 -1.5072
14534SOL    HW244845   1.623   7.645   5.417 -1.2765  0.0144  1.3593
14535SOL     OW44846   0.671   6.568   3.819  0.2166 -0.2471 -0.3218
14535SOL    HW144847   0.714   6.606   3.895 -1.5435 -1.3164  1.2935
14535SOL    HW244848   0.728   6.495   3.793  0.4757 -0.3270  0.4460
14536SOL     OW44849   0.657   2.148   1.128  0.2431 -0.1091 -0.2530
14536SOL    HW144850   0.694   2.082   1.070  0.0952  0.6883 -1.2629
14536SOL    HW244851   0.714   2.224   1.118 -0.4356  0.4132 -0.2112
14537SOL     OW44852   1.604   2.724   6.384 -0.3922 -0.2309 -0.1488
14537SOL    HW144853   1.609   2.749   6.292 -0.1523 -0.6248 -0.2433
14537SOL    HW244854   1.641   2.636   6.387  1.4040  0.5331  0.6245
14538SOL     OW44855   6.076   4.573   2.099  0.0606 -0.2841  0.1160
14538SOL    HW144856   6.065   4.613   2.013 -2.8247 -1.7568 -0.2797
14538SOL    HW244857   6.095   4.481   2.081  1.0281 -0.2845  1.0619
14539SOL     OW44858   0.667   5.545   3.197  0.7599  0.7204 -0.2281
14539SOL    HW144859   0.645   5.509   3.111 -0.7253  0.8310  0.0867
14539SOL    HW244860   0.585   5.584   3.228  0.9603 -0.3142  1.7096
14540SOL     OW44861   3.347   7.853   5.225  0.3789  0.8460 -0.2594
14540SOL    HW144862   3.348   7.787   5.156  1.1221 -0.5783  1.0946
14540SOL    HW244863   3.263   7.897   5.214 -0.7713 -1.2992 -0.2697
14541SOL     OW44864   4.530   4.664   8.159  0.3506  0.2131 -0.3768
14541SOL    HW144865   4.506   4.756   8.168  1.1700  0.3348  0.6253
14541SOL    HW244866   4.620   4.659   8.192 -0.7672 -1.5098  2.6106
14542SOL     OW44867   0.039   6.698   3.585  0.0778 -0.3617  0.4633
14542SOL    HW144868   0.054   6.793   3.583  2.1102 -0.5714  3.1272
14542SOL    HW244869   0.122   6.661   3.554 -0.2002 -1.2828  0.8155
14543SOL     OW44870   0.312   1.975   0.755  0.1876  0.0439  0.3163
14543SOL    HW144871   0.401   2.010   0.745  0.7945 -1.0213  1.8353
14543SOL    HW244872   0.314   1.928   0.838 -0.9067 -2.6478 -1.1095
14544SOL     OW44873   7.551   7.136   6.371 -0.2247  0.4194  0.3122
14544SOL    HW144874   7.547   7.066   6.306 -0.6566  2.3182 -1.7628
14544SOL    HW244875   7.533   7.092   6.454 -0.6302 -1.9007 -0.9498
14545SOL     OW44876   0.971   4.894   1.211  0.7304 -0.4159  0.4986
14545SOL    HW144877   0.964   4.919   1.303  0.4157 -0.4015  0.4697
14545SOL    HW244878   1.009   4.971   1.169 -0.4528  0.1128  0.3685
14546SOL     OW44879   7.709   1.323   0.724 -0.9893  0.4248 -0.1409
14546SOL    HW144880   7.676   1.261   0.658 -0.2237 -0.6651  0.4830
14546SOL    HW244881   7.755   1.268   0.787  0.4523  1.7281 -0.0366
14547SOL     OW44882   5.253   4.451   3.500  0.7006 -0.5486  0.1252
14547SOL    HW144883   5.224   4.383   3.439  2.0718 -0.2156 -0.9195
14547SOL    HW244884   5.214   4.532   3.466  1.7457 -0.3101 -0.5099
14548SOL     OW44885   5.666   1.280   2.956 -0.3960 -0.3155 -0.1887
14548SOL    HW144886   5.739   1.303   3.014  0.0929 -0.2492 -0.8263
14548SOL    HW244887   5.603   1.351   2.969  0.5434  0.7370 -1.1619
14549SOL     OW44888   7.958   0.330   2.932  0.1777  0.2437  0.0150
14549SOL    HW144889   7.916   0.415   2.918 -0.0518 -0.0082 -0.8948
14549SOL    HW244890   8.043   0.338   2.889 -0.3604 -0.4002 -1.2120
14550SOL     OW44891   3.183   3.273   1.718 -0.1329  0.3672  0.0747
14550SOL    HW144892   3.089   3.277   1.737  0.1230 -0.6272  1.6171
14550SOL    HW244893   3.204   3.180   1.721  0.8131  0.5557 -0.7276
14551SOL     OW44894   1.167   4.611   4.759 -0.6698 -0.3153 -0.8215
14551SOL    HW144895   1.247   4.560   4.744  0.3182  0.8806  0.2221
14551SOL    HW244896   1.112   4.554   4.813 -0.3765 -1.0123 -1.2512
14552SOL     OW44897   3.641   4.278   2.003  0.2739 -0.0135  0.8674
14552SOL    HW144898   3.730   4.248   1.988 -0.0792 -1.1516  1.0131
14552SOL    HW244899   3.599   4.206   2.050 -0.2160  1.2163  2.3770
14553SOL     OW44900   0.714   5.744   3.758 -0.0383 -0.0371  0.6841
14553SOL    HW144901   0.788   5.756   3.699  1.1674  2.3777  2.6151
14553SOL    HW244902   0.724   5.653   3.789  1.0460 -0.3364 -0.4760
14554SOL     OW44903   2.340   7.678   3.355  0.6073 -0.0555  0.2376
14554SOL    HW144904   2.395   7.602   3.374  0.6463 -0.1153 -0.1095
14554SOL    HW244905   2.256   7.658   3.395  0.3825 -0.6133 -0.4858
14555SOL     OW44906   5.225   6.323   7.291 -0.0011  0.0363  0.2439
14555SOL    HW144907   5.292   6.356   7.232  3.2274 -0.6651  3.3095
14555SOL    HW244908   5.230   6.381   7.368 -0.8803 -1.7830  1.7229
14556SOL     OW44909   2.977   6.106   2.038  0.3155  0.4653 -0.6143
14556SOL    HW144910   2.921   6.133   2.111 -0.1582 -0.4552 -0.6308
14556SOL    HW244911   2.924   6.045   1.988  0.0923  2.2252 -2.6119
14557SOL     OW44912   4.647   7.275   0.198 -0.3850  0.8276 -0.1770
14557SOL    HW144913   4.716   7.234   0.146 -0.1258  0.3495  0.5284
14557SOL    HW244914   4.653   7.368   0.177  1.5544  1.0160  1.1052
14558SOL     OW44915   2.461   3.704   5.853 -0.0942 -0.2228  0.3989
14558SOL    HW144916   2.480   3.794   5.828 -2.0082 -0.0150 -0.3721
14558SOL    HW244917   2.534   3.653   5.817  0.2563  0.8208 -0.3888
14559SOL     OW44918   3.937   5.451   5.189  0.3360 -0.0709  0.6360
14559SOL    HW144919   3.932   5.421   5.280 -1.9377 -2.2959 -0.1510
14559SOL    HW244920   3.961   5.373   5.139  0.2224  0.8054 -0.8208
14560SOL     OW44921   4.746   7.190   5.388 -0.2217 -0.1253 -0.6639
14560SOL    HW144922   4.726   7.097   5.389  2.8206 -0.8447 -0.7755
14560SOL    HW244923   4.759   7.213   5.480 -0.6094  0.1072 -0.6671
14561SOL     OW44924   7.497   0.550   1.062  0.6542  0.5808 -0.4272
14561SOL    HW144925   7.473   0.642   1.074  0.5990  0.4676  0.3328
14561SOL    HW244926   7.532   0.546   0.973  0.2158  1.2451 -0.6361
14562SOL     OW44927   5.849   2.515   2.785  0.1230 -0.1051  0.6331
14562SOL    HW144928   5.920   2.578   2.797  1.1964 -1.6118  2.6410
14562SOL    HW244929   5.833   2.514   2.690  2.3211  0.7773  0.2189
14563SOL     OW44930   6.787   7.200   2.028 -0.1655  0.5861 -0.6822
14563SOL    HW144931   6.862   7.152   1.992  0.9427  1.9139 -0.2062
14563SOL    HW244932   6.766   7.266   1.962 -0.0325  1.0948 -0.2252
14564SOL     OW44933   4.253   0.050   6.469  0.5877 -0.3923 -0.0137
14564SOL    HW144934   4.197  -0.004   6.413 -0.0375  0.0805  0.1513
14564SOL    HW244935   4.321   0.084   6.409  0.3557 -0.4929 -0.3333
14565SOL     OW44936   8.246   5.557   4.164  0.1363  0.1351 -0.1084
14565SOL    HW144937   8.177   5.494   4.182  2.0003 -1.3839  2.0674
14565SOL    HW244938   8.277   5.535   4.076 -0.1071 -1.1745  0.1208
14566SOL     OW44939   0.678   7.216   4.532  0.5501  0.5047  0.2576
14566SOL    HW144940   0.585   7.235   4.546  0.4853 -0.6195  1.4681
14566SOL    HW244941   0.706   7.171   4.612  1.6969 -0.7514 -0.8094
14567SOL     OW44942   2.611   4.558   0.362 -0.2440  0.1604 -0.2487
14567SOL    HW144943   2.621   4.607   0.443  0.7766 -1.6629  0.7662
14567SOL    HW244944   2.526   4.583   0.328 -0.4900  1.2678  1.1686
14568SOL     OW44945   5.033   0.803   6.637 -0.0475  0.5909  0.3009
14568SOL    HW144946   5.031   0.826   6.730  0.4340  2.4023 -0.1197
14568SOL    HW244947   5.122   0.772   6.622 -0.3706 -0.5055  0.6240
14569SOL     OW44948   2.453   2.526   7.007  0.1928  0.3570 -0.6864
14569SOL    HW144949   2.517   2.559   7.070 -1.2703 -0.2762  1.1796
14569SOL    HW244950   2.460   2.585   6.932  2.7495  0.4590 -0.3960
14570SOL     OW44951   5.576   6.296   4.474 -0.6068  0.4523  0.3611
14570SOL    HW144952   5.642   6.239   4.513 -1.5006  0.5010  1.9534
14570SOL    HW244953   5.493   6.263   4.507 -1.6173 -1.0912 -3.4337
14571SOL     OW44954   0.414   6.423   0.170  0.2162  0.3840  0.4474
14571SOL    HW144955   0.415   6.332   0.200  0.5640  0.9433  2.1865
14571SOL    HW244956   0.322   6.441   0.152  0.3306 -0.7864 -1.4581
14572SOL     OW44957   0.878   0.199   7.811  0.2677 -0.1538 -0.0091
14572SOL    HW144958   0.837   0.286   7.816 -2.0547 -1.1259 -1.4154
14572SOL    HW244959   0.806   0.138   7.829  1.6001 -1.8318 -0.3463
14573SOL     OW44960   2.025   2.913   3.778  0.2089  0.3257  0.5387
14573SOL    HW144961   1.975   2.832   3.789  0.4477 -0.0751 -1.2787
14573SOL    HW244962   1.960   2.983   3.790 -0.3697 -0.1600  0.2413
14574SOL     OW44963   5.148   4.312   3.138  0.1451 -0.0989  0.1507
14574SOL    HW144964   5.076   4.269   3.092  0.2313 -0.4812  0.3712
14574SOL    HW244965   5.121   4.403   3.146 -0.3757 -0.2701  0.3460
14575SOL     OW44966   7.831   4.636   0.565 -0.2965  0.2397 -0.2012
14575SOL    HW144967   7.863   4.575   0.631  0.4245  0.5163 -0.2846
14575SOL    HW244968   7.909   4.659   0.514 -0.8058  0.1696 -1.0321
14576SOL     OW44969   4.664   0.738   6.417  0.1786 -0.1426  0.8290
14576SOL    HW144970   4.731   0.692   6.366  0.1983  0.8567 -0.0515
14576SOL    HW244971   4.712   0.806   6.464  0.3511 -1.7470  3.1074
14577SOL     OW44972   7.824   5.328   1.657  0.1195  0.2422 -0.3228
14577SOL    HW144973   7.789   5.262   1.717 -0.5811  0.4589 -0.4938
14577SOL    HW244974   7.883   5.380   1.712 -2.0643  1.7186  0.7017
14578SOL     OW44975   5.099   4.457   1.657  0.1197  0.3394 -0.4652
14578SOL    HW144976   5.084   4.538   1.608  0.2664 -1.3533 -3.3961
14578SOL    HW244977   5.194   4.449   1.661  0.1259  0.9687  1.0001
14579SOL     OW44978   4.147   7.381   5.808  0.2108  0.1115 -0.5108
14579SOL    HW144979   4.082   7.314   5.829  0.3610  0.1511  0.0826
14579SOL    HW244980   4.163   7.371   5.714  2.1501 -2.3794  0.0315
14580SOL     OW44981   7.484   0.120   7.166  0.3323  0.2571 -0.1261
14580SOL    HW144982   7.419   0.060   7.130  1.6333 -2.0847  1.2536
14580SOL    HW244983   7.560   0.112   7.108  0.5751  0.4382  0.1595
14581SOL     OW44984   0.504   3.676   5.607 -0.2061  0.6385  0.0329
14581SOL    HW144985   0.588   3.633   5.593 -1.3004 -1.0765 -1.4971
14581SOL    HW244986   0.491   3.730   5.528 -2.0461 -1.7160 -1.3444
14582SOL     OW44987   7.621   1.274   3.343 -0.2414 -0.1560  0.4001
14582SOL    HW144988   7.569   1.332   3.398 -0.1762 -0.6417  0.9826
14582SOL    HW244989   7.563   1.199   3.327 -1.0403  0.9079 -1.9276
14583SOL     OW44990   4.010   3.067   7.986 -0.6268  0.3908 -0.2084
14583SOL    HW144991   3.947   2.997   7.971  0.3736 -0.6987  0.5380
14583SOL    HW244992   4.071   3.062   7.912  0.0775 -0.2508  0.4036
14584SOL     OW44993   3.755   5.699   8.198  0.0010  0.2701 -0.4586
14584SOL    HW144994   3.662   5.679   8.184  0.0561 -2.0853  1.9985
14584SOL    HW244995   3.801   5.621   8.167  1.3046  1.9968 -2.9877
14585SOL     OW44996   5.329   8.021   4.670  0.5605 -0.2311 -0.5134
14585SOL    HW144997   5.240   8.025   4.635  0.0074 -1.4277  0.6973
14585SOL    HW244998   5.341   8.104   4.717  1.3907  1.4823 -3.6217
14586SOL     OW44999   4.306   0.871   2.820  0.1303 -0.2409  0.5333
14586SOL    HW145000   4.350   0.820   2.753  1.5564  2.7942 -0.9194
14586SOL    HW245001   4.366   0.870   2.894  1.0538  0.9764 -0.1980
14587SOL     OW45002   5.560   3.797   4.816  1.0321 -0.3037  0.5893
14587SOL    HW145003   5.549   3.730   4.749  0.9224 -0.4813  0.7843
14587SOL    HW245004   5.524   3.757   4.895  1.8880 -0.3954  0.9353
14588SOL     OW45005   6.669   8.114   1.289 -0.0153 -0.5697 -0.1899
14588SOL    HW145006   6.760   8.096   1.312 -0.3070 -0.7296  0.8673
14588SOL    HW245007   6.674   8.180   1.220  0.9710 -2.3606 -1.8863
14589SOL     OW45008   0.686   6.864   0.479 -0.2012 -0.4165  0.0666
14589SOL    HW145009   0.681   6.856   0.574  1.5707 -0.1218  0.2105
14589SOL    HW245010   0.730   6.783   0.451  0.3603  0.0401 -0.3770
14590SOL     OW45011   3.859   8.207   4.629  0.4474  0.2581 -0.4344
14590SOL    HW145012   3.865   8.227   4.536 -0.3545  0.4311 -0.4525
14590SOL    HW245013   3.768   8.180   4.642 -0.2829  3.1751  0.8592
14591SOL     OW45014   1.024   7.187   0.364 -0.2718  0.9057  0.4110
14591SOL    HW145015   0.946   7.162   0.412  1.2685 -1.1024  1.9534
14591SOL    HW245016   1.076   7.237   0.427 -0.8202  3.3646 -0.9903
14592SOL     OW45017   7.856   2.377   7.373 -0.3704  0.0514 -0.4469
14592SOL    HW145018   7.931   2.406   7.425 -0.1389  0.5582 -1.0559
14592SOL    HW245019   7.882   2.393   7.282 -1.1593  0.0941 -0.6690
14593SOL     OW45020   6.889   6.228   8.026  1.0202  0.4269  0.3125
14593SOL    HW145021   6.885   6.207   8.120  0.4748 -0.8344  0.0161
14593SOL    HW245022   6.798   6.225   7.997  1.1346  1.3171 -0.1638
14594SOL     OW45023   3.847   1.969   3.312  0.0798  0.2526 -0.5411
14594SOL    HW145024   3.783   1.943   3.246 -1.0316  2.0378 -0.1967
14594SOL    HW245025   3.875   2.056   3.285  0.5488  0.4806  0.6595
14595SOL     OW45026   7.698   3.336   7.979  0.1026  0.0689 -0.4818
14595SOL    HW145027   7.699   3.307   8.070  0.6844 -0.4573 -0.6546
14595SOL    HW245028   7.786   3.370   7.963 -0.1014  0.4812 -0.7502
14596SOL     OW45029   1.111   4.882   6.136 -0.3161 -0.1468 -0.1546
14596SOL    HW145030   1.174   4.914   6.201 -0.9770  2.0044 -0.5539
14596SOL    HW245031   1.036   4.853   6.189  0.6281 -1.9436  0.2622
14597SOL     OW45032   3.780   5.346   4.730 -0.0785 -0.2769  0.0391
14597SOL    HW145033   3.874   5.354   4.717  0.1006 -2.1515 -0.0176
14597SOL    HW245034   3.748   5.436   4.736  1.8133  0.3593  0.8051
14598SOL     OW45035   2.932   3.309   4.690  0.5286  0.0372 -0.2686
14598SOL    HW145036   3.012   3.257   4.679  0.8411  0.2008  1.0657
14598SOL    HW245037   2.893   3.274   4.770 -0.7848 -0.0913 -0.9530
14599SOL     OW45038   7.440   4.987   0.424 -0.0398 -0.6332  0.6924
14599SOL    HW145039   7.397   4.986   0.510 -0.4009 -3.4756  0.5342
14599SOL    HW245040   7.482   4.901   0.418  1.5335  0.2404 -1.2254
14600SOL     OW45041   2.154   4.466   3.006  0.2885  0.1716  0.1351
14600SOL    HW145042   2.229   4.418   3.041  0.3569 -1.4504 -2.1030
14600SOL    HW245043   2.082   4.403   3.007 -0.0312  0.4876 -1.3490
14601SOL     OW45044   0.284   5.486   2.912 -0.1281  0.3027 -0.2276
14601SOL    HW145045   0.378   5.471   2.899 -0.2034 -0.7966  0.4328
14601SOL    HW245046   0.250   5.400   2.937 -1.5177  0.4519 -1.6050
14602SOL     OW45047   2.753   1.461   5.025 -0.0314  0.4032 -0.0011
14602SOL    HW145048   2.677   1.416   5.060  1.8483 -1.9855  1.1727
14602SOL    HW245049   2.731   1.554   5.030 -2.2595 -0.1792  1.7156
14603SOL     OW45050   7.246   0.155   2.652  0.2597 -0.0440  0.1084
14603SOL    HW145051   7.261   0.082   2.592  1.1325 -0.2491  0.5590
14603SOL    HW245052   7.236   0.231   2.595  1.0855 -0.2324 -0.2988
14604SOL     OW45053   3.854   0.776   7.892 -0.0802  0.1478  0.1120
14604SOL    HW145054   3.811   0.695   7.921  0.5046  0.6312  2.4231
14604SOL    HW245055   3.897   0.751   7.810  0.3230 -1.9939  0.9206
14605SOL     OW45056   5.180   3.709   6.940 -0.3919 -0.3223  0.5069
14605SOL    HW145057   5.178   3.613   6.940  1.1498 -0.3865  1.7710
14605SOL    HW245058   5.094   3.735   6.907 -1.2898 -2.1344  1.3388
14606SOL     OW45059   6.366   2.022   8.140 -0.4176 -0.2407 -0.1858
14606SOL    HW145060   6.428   1.993   8.072 -0.0723  2.2804 -1.0028
14606SOL    HW245061   6.345   1.942   8.189  1.2661 -1.6565 -1.6924
14607SOL     OW45062   2.628   4.271   4.826 -0.1038 -0.3673  0.3597
14607SOL    HW145063   2.662   4.234   4.907  2.4293  2.8756  0.8726
14607SOL    HW245064   2.686   4.238   4.757  1.0237  1.1367  0.5782
14608SOL     OW45065   5.073   4.303   7.563  0.3207 -0.6928  0.4208
14608SOL    HW145066   5.133   4.254   7.619 -0.8603 -0.4013  1.9702
14608SOL    HW245067   4.995   4.249   7.557  0.1412 -0.3577 -0.2995
14609SOL     OW45068   0.168   3.846   5.649  0.1251 -0.0080  0.2726
14609SOL    HW145069   0.080   3.809   5.643 -1.1145  2.8047  0.1804
14609SOL    HW245070   0.216   3.807   5.576 -1.4306 -0.6067 -0.4516
14610SOL     OW45071   6.829   7.678   0.592 -0.2409 -0.1457  0.1365
14610SOL    HW145072   6.789   7.765   0.599 -0.0860 -0.1788  1.4783
14610SOL    HW245073   6.774   7.632   0.530 -0.4708  0.8294 -0.4034
14611SOL     OW45074   7.467   1.421   4.980  0.2821 -0.2782 -0.8029
14611SOL    HW145075   7.485   1.417   4.886  2.7259  3.2506 -0.5641
14611SOL    HW245076   7.419   1.503   4.991  2.2093  0.5895  1.3266
14612SOL     OW45077   4.402   1.868   4.602 -0.1709 -0.2001  0.1571
14612SOL    HW145078   4.434   1.818   4.528 -0.4120  0.6102 -0.4952
14612SOL    HW245079   4.482   1.898   4.647 -0.0277 -1.0469  0.4703
14613SOL     OW45080   1.607   7.952   0.564 -0.0253 -0.5703 -0.3368
14613SOL    HW145081   1.533   7.892   0.570 -0.6917  0.2878  0.1855
14613SOL    HW245082   1.676   7.901   0.520 -0.9817 -1.3021 -1.0114
14614SOL     OW45083   7.646   3.283   3.184  0.0874  0.0897  0.2306
14614SOL    HW145084   7.692   3.212   3.139  0.7052  0.3854  0.3859
14614SOL    HW245085   7.699   3.301   3.261 -0.6420  0.0063  0.7546
14615SOL     OW45086   7.602   2.328   4.155  0.3673  0.3814 -0.3190
14615SOL    HW145087   7.577   2.305   4.066  1.4670  0.5618 -0.6840
14615SOL    HW245088   7.686   2.373   4.146 -0.0011  1.3069  0.7134
14616SOL     OW45089   0.699   7.595   2.329  0.2203  0.5871  0.2253
14616SOL    HW145090   0.651   7.674   2.305  1.2454  1.6235  1.4761
14616SOL    HW245091   0.672   7.577   2.419  1.3026  0.5309  0.5493
14617SOL     OW45092   7.006   6.652   5.784 -0.0370  0.6237  0.1902
14617SOL    HW145093   7.055   6.699   5.716  0.3323  2.1558  1.4880
14617SOL    HW245094   6.915   6.657   5.755 -0.2661  3.8528  1.2082
14618SOL     OW45095   0.405   3.618   0.217 -0.1530 -0.3699  0.3043
14618SOL    HW145096   0.427   3.557   0.146  0.2503  0.0466  0.0744
14618SOL    HW245097   0.472   3.602   0.284 -0.7372 -1.0128  0.7472
14619SOL     OW45098   2.028   2.883   3.479 -0.1448  0.0353 -0.2944
14619SOL    HW145099   2.037   2.921   3.567 -0.0858 -0.7730  0.0564
14619SOL    HW245100   1.934   2.869   3.468 -0.2061  0.6602 -0.5902
14620SOL     OW45101   7.017   2.468   5.441  0.2810  0.0945 -0.1072
14620SOL    HW145102   7.091   2.511   5.396  0.9206 -1.1403 -0.2459
14620SOL    HW245103   7.009   2.515   5.524  0.8629  0.6074 -0.3352
14621SOL     OW45104   2.519   4.644   3.013 -0.1819  0.7539  0.3660
14621SOL    HW145105   2.602   4.613   3.049 -0.7761  0.3462  1.4021
14621SOL    HW245106   2.503   4.727   3.057 -0.4826  0.6768  0.3998
14622SOL     OW45107   1.794   2.481   1.488 -0.3565 -0.0168  0.1324
14622SOL    HW145108   1.716   2.537   1.485 -1.5344 -1.5635  1.2997
14622SOL    HW245109   1.792   2.432   1.406 -0.3075  0.3269 -0.0767
14623SOL     OW45110   0.252   6.711   5.602 -0.0097  0.1806 -0.4116
14623SOL    HW145111   0.278   6.678   5.515 -0.7407 -1.5483  0.0016
14623SOL    HW245112   0.329   6.697   5.657  0.8091  2.2105 -0.9888
14624SOL     OW45113   7.052   1.472   3.787 -0.2659  1.0020 -0.3680
14624SOL    HW145114   7.052   1.464   3.691  1.5219  1.9191 -0.4748
14624SOL    HW245115   7.127   1.528   3.805 -1.5471  2.1759  1.4671
14625SOL     OW45116   0.823   1.359   3.457 -0.1312  0.1250  0.4588
14625SOL    HW145117   0.770   1.280   3.465  1.1322 -0.7995 -0.2014
14625SOL    HW245118   0.768   1.428   3.494 -1.5640 -0.9127  0.3190
14626SOL     OW45119   0.581   4.173   6.217  0.7172 -0.1399 -0.1011
14626SOL    HW145120   0.518   4.126   6.271  0.7024  0.0624  0.0586
14626SOL    HW245121   0.605   4.250   6.268 -0.5849  0.9451 -1.0765
14627SOL     OW45122   3.815   3.293   1.954 -0.1872 -0.2378 -0.0733
14627SOL    HW145123   3.851   3.223   1.899 -0.3729 -0.2853 -0.1359
14627SOL    HW245124   3.819   3.371   1.899 -0.4174 -0.2948 -0.1731
14628SOL     OW45125   6.171   0.851   4.624 -0.1672 -0.3349  0.1697
14628SOL    HW145126   6.105   0.791   4.660  0.4223 -0.5830  0.8418
14628SOL    HW245127   6.134   0.878   4.539 -1.0133 -0.6707  0.4186
14629SOL     OW45128   2.342   2.778   7.575 -0.1190  0.0429  0.4728
14629SOL    HW145129   2.390   2.780   7.658 -0.1224 -0.6293  0.4946
14629SOL    HW245130   2.254   2.748   7.598 -0.0911 -0.2450  0.2184
14630SOL     OW45131   8.019   0.267   7.733 -0.8166  0.2386  0.1581
14630SOL    HW145132   8.096   0.303   7.776 -0.9740 -0.0055  0.6485
14630SOL    HW245133   7.949   0.329   7.754 -0.8226  0.2917 -0.0186
14631SOL     OW45134   0.635   7.727   6.938  0.1556  0.5602 -0.0226
14631SOL    HW145135   0.676   7.646   6.909  0.6549 -0.0917  2.3339
14631SOL    HW245136   0.541   7.709   6.935  0.1498  0.8459 -2.0883
14632SOL     OW45137   5.923   2.449   7.209  0.5118  0.2778 -0.6516
14632SOL    HW145138   5.921   2.484   7.298  0.6326 -0.3701 -0.3908
14632SOL    HW245139   6.011   2.415   7.198  0.4935  0.3412 -1.0175
14633SOL     OW45140   5.015   3.206   3.441 -0.4483 -0.1117  0.1779
14633SOL    HW145141   5.008   3.165   3.355  0.6491 -1.8370  0.8815
14633SOL    HW245142   5.085   3.157   3.485 -0.7032  1.0318  1.8915
14634SOL     OW45143   3.508   3.263   2.865  0.0233 -0.1617  0.1972
14634SOL    HW145144   3.542   3.175   2.879 -0.1669 -0.4061 -0.8788
14634SOL    HW245145   3.454   3.256   2.786 -0.7426  0.7103  0.6302
14635SOL     OW45146   1.801   7.144   1.169 -0.0691 -0.5435 -0.7711
14635SOL    HW145147   1.776   7.098   1.089  0.4703 -0.5209 -0.9519
14635SOL    HW245148   1.773   7.085   1.240 -1.6346 -0.0250 -0.9407
14636SOL     OW45149   0.790   7.830   2.898 -0.1539  1.0202 -0.0648
14636SOL    HW145150   0.750   7.743   2.893  0.2486  0.7217  1.5150
14636SOL    HW245151   0.716   7.891   2.893 -0.6401  0.5237  1.0184
14637SOL     OW45152   7.564   6.527   0.991  0.3888  0.1993 -0.1474
14637SOL    HW145153   7.576   6.526   1.086  0.6459 -0.0407 -0.1808
14637SOL    HW245154   7.653   6.524   0.955  0.2449 -1.2983 -0.4047
14638SOL     OW45155   1.529   7.706   1.267  0.0283  0.1563 -0.1166
14638SOL    HW145156   1.465   7.701   1.339  0.6154  0.2600  0.4188
14638SOL    HW245157   1.599   7.762   1.301  0.1202  0.5422 -0.9249
14639SOL     OW45158   1.658   6.539   4.166 -0.0427  0.3100  0.4865
14639SOL    HW145159   1.638   6.524   4.073  0.7348  0.3205  0.3150
14639SOL    HW245160   1.680   6.452   4.200 -2.5391 -0.0921  1.2249
14640SOL     OW45161   6.075   2.472   3.651  0.7293  0.3511 -0.0455
14640SOL    HW145162   6.149   2.436   3.699  1.0317  0.4075 -0.4664
14640SOL    HW245163   6.004   2.409   3.666  0.8717  0.2729  0.3195
14641SOL     OW45164   5.494   1.598   7.542  0.2387  0.4330 -0.3540
14641SOL    HW145165   5.561   1.621   7.478  0.2470 -1.3380 -1.0278
14641SOL    HW245166   5.537   1.534   7.599 -0.2030  0.9366  0.5528
14642SOL     OW45167   8.116   8.058   8.264 -0.0675 -0.2774 -0.0367
14642SOL    HW145168   8.065   8.040   8.185 -0.1124  0.8327 -0.2588
14642SOL    HW245169   8.060   8.029   8.336 -0.3626 -0.5219 -0.3599
14643SOL     OW45170   4.540   2.882   5.220  0.4953  0.5508 -0.2866
14643SOL    HW145171   4.547   2.977   5.225  2.4294  0.4154  0.0518
14643SOL    HW245172   4.630   2.852   5.213  0.0457 -1.3436  1.4383
14644SOL     OW45173   6.589   0.052   6.425  0.1711 -0.2997  0.2377
14644SOL    HW145174   6.653   0.003   6.477  0.1266  0.6278  1.2008
14644SOL    HW245175   6.617   0.144   6.434  0.6977 -0.1980 -2.1320
14645SOL     OW45176   3.748   4.745   1.454 -0.5587  0.5641 -0.3490
14645SOL    HW145177   3.678   4.807   1.435 -1.8262 -0.7990 -0.1586
14645SOL    HW245178   3.734   4.673   1.393  0.2098 -0.0733  0.2243
14646SOL     OW45179   0.838   4.875   3.229 -0.5055 -0.1650 -0.3754
14646SOL    HW145180   0.762   4.868   3.286 -0.7789 -2.8980 -1.0089
14646SOL    HW245181   0.802   4.889   3.142 -0.3432 -1.7986 -0.7298
14647SOL     OW45182   2.522   2.534   3.678 -0.4939 -0.2631 -0.3180
14647SOL    HW145183   2.522   2.491   3.592  0.0311 -1.7902  0.4310
14647SOL    HW245184   2.429   2.548   3.698 -0.8005 -2.6882  0.2001
14648SOL     OW45185   3.198   8.095   7.361  0.3717 -0.1950 -0.3847
14648SOL    HW145186   3.146   8.155   7.415 -0.3767 -0.6918 -0.5443
14648SOL    HW245187   3.283   8.138   7.354  0.7406 -0.4879  1.8433
14649SOL     OW45188   0.640   5.864   8.012  0.1845 -0.7120  0.3401
14649SOL    HW145189   0.592   5.795   8.059 -1.7816 -0.5437 -1.3154
14649SOL    HW245190   0.640   5.939   8.071 -2.0705 -0.5672  0.2211
14650SOL     OW45191   0.493   6.691   1.801 -0.2614  0.1104  0.5889
14650SOL    HW145192   0.573   6.711   1.849  1.4948 -0.8366 -1.8356
14650SOL    HW245193   0.523   6.665   1.714 -3.2805  0.9572 -0.7730
14651SOL     OW45194   8.079   4.219   6.890  0.2906 -0.0727 -0.2234
14651SOL    HW145195   8.082   4.206   6.795  0.2313 -0.9480 -0.1104
14651SOL    HW245196   8.061   4.313   6.901  0.7181  0.1113 -1.0668
14652SOL     OW45197   4.731   5.622   6.607  0.4153  0.2269  0.8099
14652SOL    HW145198   4.775   5.706   6.592 -0.0072 -0.0215 -2.0669
14652SOL    HW245199   4.640   5.638   6.581  1.1448 -2.1202 -3.6069
14653SOL     OW45200   7.759   0.710   4.020 -0.9525 -0.5511 -0.0003
14653SOL    HW145201   7.836   0.760   4.047 -0.5120 -0.3786 -1.4936
14653SOL    HW245202   7.728   0.668   4.100  1.0292 -1.0633  0.5219
14654SOL     OW45203   7.077   2.594   3.905  0.0041 -0.8054  0.8271
14654SOL    HW145204   7.074   2.536   3.981  2.0090 -0.3998  1.2548
14654SOL    HW245205   7.082   2.535   3.829  2.4003 -1.2238  1.2792
14655SOL     OW45206   7.160   4.879   3.724 -0.2758  0.2970 -0.0417
14655SOL    HW145207   7.129   4.920   3.643 -0.6729  1.5110  0.7145
14655SOL    HW245208   7.202   4.797   3.695 -3.7822 -1.2162 -1.1352
14656SOL     OW45209   1.825   4.415   4.045  0.1492  0.2557  0.1639
14656SOL    HW145210   1.807   4.508   4.035 -0.5197  0.2493  1.2388
14656SOL    HW245211   1.857   4.388   3.959 -2.9608  0.7421 -1.2404
14657SOL     OW45212   0.518   3.546   3.902  0.3806 -0.0848 -0.4372
14657SOL    HW145213   0.528   3.638   3.928 -1.8449  0.1270 -0.1862
14657SOL    HW245214   0.602   3.506   3.923  0.4349  1.2586  2.1865
14658SOL     OW45215   5.684   7.378   5.254 -0.0189  0.7405  0.4021
14658SOL    HW145216   5.762   7.329   5.281 -0.4862  0.4759  1.2709
14658SOL    HW245217   5.705   7.469   5.276  1.0922  1.0413 -1.7615
14659SOL     OW45218   3.523   3.253   0.365  0.0545 -0.0029 -0.0512
14659SOL    HW145219   3.463   3.228   0.294  1.1654 -0.4172 -0.8559
14659SOL    HW245220   3.574   3.326   0.329 -2.2880  2.6648  1.8362
14660SOL     OW45221   6.332   5.302   0.681  0.4375 -0.2371  0.2099
14660SOL    HW145222   6.318   5.395   0.699 -1.0774 -0.4680  0.3344
14660SOL    HW245223   6.245   5.263   0.692  1.0040 -1.6125 -0.1517
14661SOL     OW45224   7.208   4.199   4.162 -1.0672 -0.0926  0.1438
14661SOL    HW145225   7.128   4.155   4.134 -1.0440 -0.5426  0.7647
14661SOL    HW245226   7.261   4.129   4.200 -1.2971  0.5734  1.7255
14662SOL     OW45227   8.046   2.046   0.314  0.5019 -0.4128  0.0844
14662SOL    HW145228   8.109   2.044   0.241 -0.3986  1.5200 -0.7918
14662SOL    HW245229   7.970   2.093   0.279 -1.4627 -2.6979  1.1319
14663SOL     OW45230   3.931   7.997   5.277 -0.3970 -0.2525  0.0227
14663SOL    HW145231   3.873   7.921   5.281 -0.2765 -0.4319 -1.2347
14663SOL    HW245232   3.872   8.070   5.256 -0.5312  0.0336  1.3591
14664SOL     OW45233   4.180   6.741   1.981  0.0654 -0.2541  0.3941
14664SOL    HW145234   4.098   6.697   2.001  0.0167 -0.2437  0.2088
14664SOL    HW245235   4.214   6.697   1.904  0.5289 -0.6547  0.8214
14665SOL     OW45236   3.970   8.247   8.148  0.6260  0.1898 -0.4346
14665SOL    HW145237   3.876   8.260   8.164  0.9349  0.5866  1.1356
14665SOL    HW245238   3.998   8.188   8.218  1.5957  0.2200 -0.7943
14666SOL     OW45239   6.772   5.237   5.793 -0.3181 -0.0637 -0.2242
14666SOL    HW145240   6.863   5.241   5.763 -0.8198 -0.5164 -1.8575
14666SOL    HW245241   6.721   5.276   5.722 -1.4472 -0.2442  0.4692
14667SOL     OW45242   0.561   3.223   0.079  0.0495  0.7950  0.5010
14667SOL    HW145243   0.475   3.184   0.063 -0.5599  0.6764  3.7644
14667SOL    HW245244   0.606   3.160   0.135  1.8092  1.4361 -0.1562
14668SOL     OW45245   1.239   0.844   0.064  0.4208  0.4328  0.2619
14668SOL    HW145246   1.237   0.911   0.132  1.8367  0.0425  0.7177
14668SOL    HW245247   1.277   0.767   0.107  0.7364 -0.0175 -0.7895
14669SOL     OW45248   8.099   6.814   0.017  0.5392 -0.0323  0.5475
14669SOL    HW145249   8.084   6.807   0.111  1.9847  0.5069  0.8388
14669SOL    HW245250   8.060   6.898  -0.008  1.4820  0.5382  0.9602
14670SOL     OW45251   2.263   3.419   5.107  0.3307 -0.8017  0.4987
14670SOL    HW145252   2.170   3.416   5.083  0.5361 -0.8200 -0.3033
14670SOL    HW245253   2.262   3.429   5.202 -0.4940 -1.1922  0.5426
14671SOL     OW45254   1.284   0.030   3.920 -0.4165  0.0054 -0.3149
14671SOL    HW145255   1.276   0.106   3.863 -1.1296 -1.6551 -2.5207
14671SOL    HW245256   1.349   0.055   3.985 -0.7551  2.5352 -0.9018
14672SOL     OW45257   3.984   2.131   6.650  0.1698  0.0938 -0.4941
14672SOL    HW145258   3.997   2.100   6.740 -0.0799  1.7800  0.1347
14672SOL    HW245259   3.942   2.057   6.605 -1.5943 -0.0464  1.3100
14673SOL     OW45260   2.645   2.722   2.184 -0.3336  0.0146  0.0732
14673SOL    HW145261   2.723   2.778   2.183  0.5893 -1.2446 -0.6217
14673SOL    HW245262   2.572   2.782   2.194  0.8274  1.1036  2.5661
14674SOL     OW45263   1.653   1.122   7.357 -0.1604  0.3848 -0.5162
14674SOL    HW145264   1.659   1.139   7.451  0.5290 -0.0421 -0.4752
14674SOL    HW245265   1.741   1.142   7.324  0.0443 -0.9767 -0.8118
14675SOL     OW45266   1.190   6.791   1.283  0.6404  0.5870 -0.1334
14675SOL    HW145267   1.190   6.883   1.256  0.0186  1.2409  1.9591
14675SOL    HW245268   1.266   6.782   1.340 -0.0016  0.1497  0.6839
14676SOL     OW45269   5.865   5.520   4.013 -0.1733  0.2438 -0.3483
14676SOL    HW145270   5.895   5.589   3.954  1.6300 -1.6886 -1.7620
14676SOL    HW245271   5.929   5.521   4.085 -0.1609  0.0310 -0.3591
14677SOL     OW45272   6.469   4.268   2.417 -0.5597 -0.1177 -0.7334
14677SOL    HW145273   6.482   4.213   2.495  1.5384 -0.6479 -1.4336
14677SOL    HW245274   6.459   4.205   2.345  0.3438  0.3898 -1.3096
14678SOL     OW45275   5.342   5.167   1.739  0.0654 -0.2094  0.7033
14678SOL    HW145276   5.340   5.203   1.650  2.1361 -2.1779 -0.2032
14678SOL    HW245277   5.402   5.223   1.786  0.0272  0.0331  0.4652
14679SOL     OW45278   2.024   7.091   2.217 -0.2401  0.0301  0.0654
14679SOL    HW145279   2.108   7.100   2.172 -0.3253 -0.6399 -0.2433
14679SOL    HW245280   2.047   7.089   2.310  0.0401  0.3400  0.0039
14680SOL     OW45281   5.917   2.447   1.675  0.3008 -0.2724 -0.0843
14680SOL    HW145282   6.009   2.419   1.668  0.5885  0.5958  0.2524
14680SOL    HW245283   5.882   2.434   1.586 -0.0737 -3.4150  0.4506
14681SOL     OW45284   3.336   3.778   6.502 -0.5091  0.2360 -0.2276
14681SOL    HW145285   3.274   3.705   6.498 -2.2693  1.7216 -0.7811
14681SOL    HW245286   3.353   3.800   6.411  1.6648 -0.8149 -0.1048
14682SOL     OW45287   3.673   1.875   4.905 -0.0540 -0.9975  0.0438
14682SOL    HW145288   3.626   1.958   4.901  1.9262  0.2151  1.1608
14682SOL    HW245289   3.666   1.848   4.996  1.6423 -0.6488  0.2894
14683SOL     OW45290   2.761   4.230   0.948  0.1738  0.4515  0.2955
14683SOL    HW145291   2.784   4.138   0.941  0.4088  0.5520 -0.2940
14683SOL    HW245292   2.798   4.258   1.032  0.5953  0.1508  0.2090
14684SOL     OW45293   2.394   7.231   7.815 -0.4988  0.4688  0.0153
14684SOL    HW145294   2.425   7.234   7.905 -1.3171  0.3663  0.3086
14684SOL    HW245295   2.374   7.322   7.793 -0.5012  0.4684  0.0147
14685SOL     OW45296   4.641   7.045   2.387  0.2671 -0.1625 -0.1946
14685SOL    HW145297   4.591   7.118   2.350 -1.5468 -0.2874  1.8594
14685SOL    HW245298   4.716   7.086   2.429  0.1519  0.3576 -0.4926
14686SOL     OW45299   0.289   3.510   6.807  0.5882  0.5370  0.0987
14686SOL    HW145300   0.368   3.457   6.816  0.1975 -0.0677  0.0609
14686SOL    HW245301   0.315   3.598   6.833  1.4042  0.4554 -0.4429
14687SOL     OW45302   0.062   3.070   7.097  0.5929  0.2133 -0.4514
14687SOL    HW145303   0.017   2.987   7.084  0.3298  0.1944  0.5633
14687SOL    HW245304   0.135   3.068   7.034  0.1092 -0.4224 -0.9969
14688SOL     OW45305   1.001   4.695   3.130  0.0047 -0.1630  0.3954
14688SOL    HW145306   0.941   4.759   3.170 -0.6287 -1.9224  2.3610
14688SOL    HW245307   1.035   4.645   3.204  0.3108 -2.2486 -1.1135
14689SOL     OW45308   3.452   4.150   7.335  0.0828  0.0255 -0.1167
14689SOL    HW145309   3.380   4.088   7.348  1.3819 -1.5021 -0.0901
14689SOL    HW245310   3.411   4.236   7.344 -1.7770 -0.8146 -0.2810
14690SOL     OW45311   0.466   5.825   5.997  0.3635  0.3449  0.7049
14690SOL    HW145312   0.506   5.906   5.966 -0.6423  1.1061  1.3594
14690SOL    HW245313   0.419   5.850   6.076 -1.6130 -0.4580 -0.1702
14691SOL     OW45314   3.935   5.305   4.496 -0.2831  0.1071 -0.5039
14691SOL    HW145315   3.967   5.216   4.511 -0.3323  0.2972  0.8128
14691SOL    HW245316   4.015   5.359   4.496 -0.3785  0.2513  0.2019
14692SOL     OW45317   6.821   7.357   1.784  0.3670  0.1777  0.4612
14692SOL    HW145318   6.762   7.406   1.841  0.3821 -0.8825  1.4120
14692SOL    HW245319   6.837   7.415   1.710 -1.1834  0.8217  0.6126
14693SOL     OW45320   6.593   4.375   7.165 -0.2992 -0.2060 -0.3846
14693SOL    HW145321   6.604   4.447   7.227 -0.3284 -0.3473 -0.2123
14693SOL    HW245322   6.654   4.394   7.094 -0.0374 -0.2056 -0.1613
14694SOL     OW45323   1.993   5.848   3.179  0.0045  0.2700  0.1550
14694SOL    HW145324   1.967   5.763   3.214 -1.4583  1.3536  1.7685
14694SOL    HW245325   2.064   5.878   3.236  1.1035 -0.2106 -0.9204
14695SOL     OW45326   2.028   6.143   5.930  0.1205 -0.2675 -0.3391
14695SOL    HW145327   1.940   6.108   5.918  0.9231 -2.8933  1.0420
14695SOL    HW245328   2.050   6.184   5.846 -1.2073 -2.3404 -1.7211
14696SOL     OW45329   8.134   3.714   3.124  0.1020 -0.1434 -0.1206
14696SOL    HW145330   8.062   3.655   3.102  0.3371 -0.5997  0.3290
14696SOL    HW245331   8.159   3.689   3.213  1.2485 -0.4158 -0.5211
14697SOL     OW45332   2.609   3.596   4.023  0.1212 -0.1524 -0.3961
14697SOL    HW145333   2.650   3.514   4.051  0.9134  0.2561 -0.3598
14697SOL    HW245334   2.681   3.648   3.988 -0.3813  0.5371 -0.4061
14698SOL     OW45335   2.952   7.811   7.829  0.0159  0.4265 -0.1914
14698SOL    HW145336   2.996   7.847   7.907 -0.8359  2.5179 -0.6385
14698SOL    HW245337   2.992   7.725   7.817  0.3289  0.1608  2.4139
14699SOL     OW45338   3.089   6.448   7.478  0.2740  0.4832 -0.3784
14699SOL    HW145339   3.034   6.372   7.463  1.4235 -1.0166  2.6822
14699SOL    HW245340   3.029   6.515   7.511 -0.2589 -0.1001 -0.1418
14700SOL     OW45341   5.317   1.189   1.450 -0.2624  0.1953 -0.6035
14700SOL    HW145342   5.267   1.152   1.523 -2.9778  1.2798 -1.8252
14700SOL    HW245343   5.311   1.123   1.381  0.7542 -0.0531 -0.4537
14701SOL     OW45344   4.813   5.093   2.247  0.3577 -0.3151 -0.4129
14701SOL    HW145345   4.727   5.133   2.249  0.9181  0.9348 -0.8982
14701SOL    HW245346   4.856   5.132   2.171  1.0547 -1.5562 -0.6747
14702SOL     OW45347   5.489   5.461   0.944 -0.2916 -0.3569  0.0794
14702SOL    HW145348   5.499   5.371   0.974 -0.8093 -0.1256  0.9549
14702SOL    HW245349   5.459   5.453   0.853 -3.0398 -1.0908  1.0220
14703SOL     OW45350   3.147   3.481   0.150  0.0679  0.3973 -0.1038
14703SOL    HW145351   3.197   3.527   0.218 -2.0947  1.0857  1.0590
14703SOL    HW245352   3.175   3.523   0.068  4.2332 -1.8141  0.0534
14704SOL     OW45353   0.891   2.737   3.660  0.0165  0.2503  0.0483
14704SOL    HW145354   0.925   2.822   3.688  1.4761 -1.2210  2.9949
14704SOL    HW245355   0.800   2.737   3.689  0.0412  0.7813  0.1356
14705SOL     OW45356   4.240   6.850   1.517  0.1195 -0.6422 -0.2122
14705SOL    HW145357   4.271   6.938   1.537 -1.9324 -0.2121  1.1536
14705SOL    HW245358   4.320   6.798   1.508  1.3228  1.1660 -0.2087
14706SOL     OW45359   0.461   3.295   6.831  0.4374  0.0635  0.0626
14706SOL    HW145360   0.475   3.282   6.738  2.2352 -3.3887  0.7247
14706SOL    HW245361   0.530   3.355   6.858  1.1074 -0.4615 -0.4858
14707SOL     OW45362   3.745   6.055   7.452  0.1156  0.1373  0.4935
14707SOL    HW145363   3.663   6.104   7.444 -0.4073 -0.7845  0.0477
14707SOL    HW245364   3.785   6.087   7.533 -1.7558 -0.9765  1.8749
14708SOL     OW45365   1.860   2.534   1.048  0.8785  0.0170 -0.0509
14708SOL    HW145366   1.792   2.514   1.113  0.3080  0.0697 -0.6314
14708SOL    HW245367   1.942   2.512   1.092  0.8012  3.5874  2.1201
14709SOL     OW45368   3.765   7.954   5.539  0.0410  0.0774  0.5683
14709SOL    HW145369   3.853   7.939   5.506  0.1635  1.3837  0.2634
14709SOL    HW245370   3.708   7.908   5.477  0.3836  0.9916 -0.4352
14710SOL     OW45371   7.710   2.897   3.536 -0.0868 -0.4867  0.3593
14710SOL    HW145372   7.619   2.924   3.529 -0.3715 -1.5518 -0.2011
14710SOL    HW245373   7.708   2.802   3.521  1.2932 -0.2824 -1.2491
14711SOL     OW45374   0.255   3.442   3.880  0.1856 -0.3481  0.4982
14711SOL    HW145375   0.347   3.468   3.889  0.0106 -0.0064  1.2925
14711SOL    HW245376   0.248   3.413   3.789  0.7937  0.7454  0.0905
14712SOL     OW45377   0.930   4.630   1.225  0.1279  0.3928 -0.0143
14712SOL    HW145378   0.944   4.722   1.201 -0.4398  0.7597  1.0288
14712SOL    HW245379   0.987   4.616   1.301  0.1778 -0.1118 -0.1411
14713SOL     OW45380   4.196   0.538   1.082  0.4704  0.3058  0.2516
14713SOL    HW145381   4.219   0.516   0.992 -0.2287 -2.2771  0.6372
14713SOL    HW245382   4.279   0.539   1.129  0.7281  0.5663 -0.2050
14714SOL     OW45383   4.334   3.442   0.853 -0.6393 -0.4507  0.0897
14714SOL    HW145384   4.285   3.517   0.885  0.5704  0.3809  0.0060
14714SOL    HW245385   4.363   3.396   0.932  1.2874  0.9153  0.2136
14715SOL     OW45386   3.860   6.909   2.359 -0.4260 -0.1474 -0.1259
14715SOL    HW145387   3.925   6.909   2.288 -0.1647  0.9976  0.1058
14715SOL    HW245388   3.888   6.980   2.417 -1.2930 -0.3330  0.5220
14716SOL     OW45389   2.820   1.312   0.690  0.2491  0.3706  0.0796
14716SOL    HW145390   2.769   1.272   0.620  0.6022  0.0984 -0.0246
14716SOL    HW245391   2.843   1.240   0.748  0.9494  0.4067 -0.1477
14717SOL     OW45392   3.583   4.688   3.426 -0.7513 -0.5300 -0.4889
14717SOL    HW145393   3.545   4.731   3.349 -0.4725 -0.7245 -0.7359
14717SOL    HW245394   3.508   4.666   3.481 -0.8006  1.5344  0.3037
14718SOL     OW45395   3.289   3.228   2.032  0.5513  0.2057  0.4450
14718SOL    HW145396   3.316   3.273   1.952  1.4780 -1.2222 -0.0550
14718SOL    HW245397   3.293   3.135   2.010 -2.4945 -0.1191  1.1011
14719SOL     OW45398   4.167   7.312   5.522 -0.1996  0.1838 -0.4337
14719SOL    HW145399   4.163   7.219   5.543 -2.2276  0.1008 -1.1537
14719SOL    HW245400   4.247   7.321   5.470 -0.6259 -1.3686 -1.3843
14720SOL     OW45401   6.418   6.702   7.290 -0.3477 -0.3656  0.3120
14720SOL    HW145402   6.352   6.643   7.326  0.7236 -0.6502  1.8610
14720SOL    HW245403   6.397   6.788   7.326 -1.5781  0.1273 -1.5043
14721SOL     OW45404   1.449   5.761   0.588  0.2531  0.0932  0.3777
14721SOL    HW145405   1.425   5.681   0.541  0.5564  1.4743 -2.1578
14721SOL    HW245406   1.373   5.780   0.643 -0.7555 -0.6442 -0.7433
14722SOL     OW45407   3.082   7.541   5.144 -0.3706 -0.7929  0.2984
14722SOL    HW145408   3.109   7.542   5.236 -0.3747  0.8070  0.3020
14722SOL    HW245409   3.153   7.495   5.098  1.3633  1.4537  0.6227
14723SOL     OW45410   6.164   5.931   1.645  0.1513 -0.2753 -0.1401
14723SOL    HW145411   6.085   5.879   1.656  0.0191 -0.3664 -1.5217
14723SOL    HW245412   6.235   5.868   1.651  0.0846 -0.3326  0.0772
14724SOL     OW45413   4.428   5.165   5.786  0.1714 -0.8514 -0.0679
14724SOL    HW145414   4.477   5.095   5.828  0.3254 -1.3866 -1.1146
14724SOL    HW245415   4.476   5.244   5.807  1.0869 -1.2870 -0.4657
14725SOL     OW45416   3.227   0.857   6.762  0.3251  0.4552  0.0769
14725SOL    HW145417   3.243   0.763   6.762  0.4617  0.4590 -1.9051
14725SOL    HW245418   3.131   0.865   6.759  0.3131  0.3881  0.2610
14726SOL     OW45419   7.955   2.092   2.121  0.2398 -0.1728 -0.2640
14726SOL    HW145420   8.013   2.165   2.143 -0.4324  0.1267  0.5338
14726SOL    HW245421   8.011   2.015   2.124  0.6625  0.1510  0.2272
14727SOL     OW45422   4.967   1.801   4.158 -0.1621 -0.6194 -0.0641
14727SOL    HW145423   4.957   1.765   4.070  0.5380 -0.0645 -0.3826
14727SOL    HW245424   4.888   1.775   4.205 -1.0573  0.0475 -1.2004
14728SOL     OW45425   4.589   0.200   5.177 -0.0842 -0.1880 -0.1147
14728SOL    HW145426   4.522   0.140   5.144  0.9493 -1.1909 -0.4330
14728SOL    HW245427   4.547   0.244   5.250 -1.0820 -0.8468 -0.2763
14729SOL     OW45428   0.071   0.816   5.634  0.1127 -0.0006  0.4292
14729SOL    HW145429   0.087   0.842   5.544  0.1207 -0.3051  0.3437
14729SOL    HW245430   0.067   0.721   5.632  2.1489 -0.1312  1.0675
14730SOL     OW45431   4.984   4.201   7.980 -0.1171 -0.3453  0.4103
14730SOL    HW145432   5.030   4.270   7.932 -0.8475 -1.1433 -1.4727
14730SOL    HW245433   4.892   4.223   7.971 -0.3783 -1.7258 -0.4724
14731SOL     OW45434   0.882   5.957   7.909 -0.0950  0.3335 -0.0593
14731SOL    HW145435   0.803   5.923   7.951  0.2478 -0.7686 -0.2689
14731SOL    HW245436   0.868   6.051   7.902 -1.8651  0.0146 -1.0809
14732SOL     OW45437   5.939   1.024   4.433 -0.3479  0.5341 -0.3824
14732SOL    HW145438   5.854   0.981   4.424  0.3013 -0.7229 -0.5358
14732SOL    HW245439   5.994   0.985   4.365  1.2467 -0.9015  1.6444
14733SOL     OW45440   4.707   0.155   6.729 -0.2642  0.7026  0.1130
14733SOL    HW145441   4.649   0.231   6.738 -1.0918 -0.1070  1.8920
14733SOL    HW245442   4.767   0.163   6.803  0.1897  0.0840 -0.1859
14734SOL     OW45443   4.620   1.837   4.932 -0.5508  0.4712  0.4677
14734SOL    HW145444   4.674   1.910   4.900  0.7297  0.1484  1.8189
14734SOL    HW245445   4.535   1.876   4.950 -1.6528  0.4947 -4.1453
14735SOL     OW45446   7.573   5.802   7.690  0.3632  0.4406  0.0636
14735SOL    HW145447   7.493   5.816   7.639 -0.7376 -1.1375  1.3195
14735SOL    HW245448   7.597   5.711   7.673  0.3303  0.0770  1.8449
14736SOL     OW45449   6.671   1.123   2.881 -0.4588  0.2007 -0.2925
14736SOL    HW145450   6.604   1.069   2.923 -0.5533 -0.4023 -1.2097
14736SOL    HW245451   6.627   1.165   2.808  0.2404 -0.5012 -1.1366
14737SOL     OW45452   2.409   6.924   0.279  0.0565 -0.3920  0.0364
14737SOL    HW145453   2.408   6.915   0.374  0.3385  0.0225  0.0802
14737SOL    HW245454   2.336   6.983   0.259  1.3399  1.3000  0.1934
14738SOL     OW45455   1.139   7.033   8.008  0.1455 -0.1281 -0.6935
14738SOL    HW145456   1.088   7.026   8.089 -0.1519 -0.5672 -0.9128
14738SOL    HW245457   1.230   7.027   8.036  0.1461  2.0395 -0.1456
14739SOL     OW45458   5.233   3.689   4.870  0.2066  0.3510 -0.3065
14739SOL    HW145459   5.145   3.670   4.901  1.1111  0.4491  2.4728
14739SOL    HW245460   5.272   3.603   4.853 -0.6003  0.3274 -2.1806
14740SOL     OW45461   1.738   3.792   4.922 -0.6652  0.5418  0.0067
14740SOL    HW145462   1.690   3.843   4.857 -1.4860  0.1952  0.3318
14740SOL    HW245463   1.788   3.728   4.871 -2.4911 -0.7338 -0.2156
14741SOL     OW45464   0.321   3.495   4.500 -0.1341  0.2031  0.2755
14741SOL    HW145465   0.260   3.567   4.486 -2.8121 -2.0090  0.1087
14741SOL    HW245466   0.359   3.478   4.414 -0.3009  0.6902  0.1048
14742SOL     OW45467   0.297   4.094   8.010 -0.4795  0.1593  0.0699
14742SOL    HW145468   0.373   4.127   7.962 -0.1877  0.3142  0.6416
14742SOL    HW245469   0.239   4.170   8.018 -0.3120  0.2514  0.3937
14743SOL     OW45470   5.507   5.236   6.212  0.1506  0.2340 -0.2211
14743SOL    HW145471   5.420   5.268   6.233  0.5358  1.6108 -0.6782
14743SOL    HW245472   5.492   5.158   6.159 -0.7955  0.2568  0.0102
14744SOL     OW45473   6.945   3.187   6.397 -0.1497  0.3780  0.0223
14744SOL    HW145474   6.851   3.169   6.402  0.1057 -0.6904  1.3832
14744SOL    HW245475   6.976   3.175   6.487  1.2163  1.1750 -0.3262
14745SOL     OW45476   5.417   8.297   1.288 -0.1659  0.0755  0.1214
14745SOL    HW145477   5.360   8.258   1.221  0.3854 -0.9137  0.2321
14745SOL    HW245478   5.499   8.315   1.242 -0.3816  1.0498  0.0897
14746SOL     OW45479   3.315   6.593   5.887 -0.7483  0.0228  0.2529
14746SOL    HW145480   3.341   6.668   5.941  1.2740 -0.1195 -0.4856
14746SOL    HW245481   3.375   6.524   5.913 -2.7227 -1.4282  1.0541
14747SOL     OW45482   5.818   7.108   7.153  0.0637 -0.6557 -0.2621
14747SOL    HW145483   5.872   7.083   7.228  1.9850  1.7582 -0.7486
14747SOL    HW245484   5.822   7.204   7.151 -2.2081 -0.5402 -1.8376
14748SOL     OW45485   1.692   5.096   1.854  0.0287  0.3973 -0.0158
14748SOL    HW145486   1.786   5.088   1.840  0.0020 -0.4983  0.3316
14748SOL    HW245487   1.655   5.099   1.766  0.2738 -0.4356 -0.1467
14749SOL     OW45488   5.293   0.011   4.367 -0.1127  0.1424 -0.2224
14749SOL    HW145489   5.373  -0.039   4.383 -0.3091 -0.3572 -0.7858
14749SOL    HW245490   5.315   0.100   4.393  0.2045 -0.2506  0.8898
14750SOL     OW45491   2.323   2.066   1.709  0.1412  0.3458 -0.1704
14750SOL    HW145492   2.238   2.082   1.668 -0.6002  1.0471  1.5818
14750SOL    HW245493   2.386   2.113   1.654 -0.6843  0.3797 -1.0917
14751SOL     OW45494   8.129   5.437   7.759 -0.3689  0.0216 -0.2246
14751SOL    HW145495   8.152   5.345   7.767  1.6251  0.4828 -0.3483
14751SOL    HW245496   8.104   5.448   7.667 -1.7499 -0.6318  0.0676
14752SOL     OW45497   5.659   8.118   3.889  0.0340  0.2129  0.0281
14752SOL    HW145498   5.729   8.067   3.931  0.5053  0.7178 -0.1350
14752SOL    HW245499   5.628   8.177   3.957  0.2146  0.4405 -0.0848
14753SOL     OW45500   3.114   7.032   6.745  0.7683 -0.3879  0.0434
14753SOL    HW145501   3.062   6.969   6.795  1.0245 -1.0290 -0.4861
14753SOL    HW245502   3.122   7.108   6.803  2.6487 -1.8295  1.7617
14754SOL     OW45503   3.717   7.689   6.583  0.1327  0.0398  0.4049
14754SOL    HW145504   3.686   7.656   6.667 -1.6503  0.3756 -0.0969
14754SOL    HW245505   3.650   7.752   6.556  1.6694  1.3996 -0.3431
14755SOL     OW45506   3.361   5.150   8.190  0.0774 -0.2405  0.0870
14755SOL    HW145507   3.352   5.098   8.270 -1.0117  0.4524  0.4242
14755SOL    HW245508   3.415   5.224   8.215  0.3033 -0.3767  0.0059
14756SOL     OW45509   4.713   2.454   2.586  0.6133  0.5736  0.6490
14756SOL    HW145510   4.652   2.416   2.651  0.5890 -0.6779 -0.0941
14756SOL    HW245511   4.657   2.480   2.513  0.8761  0.2253  0.3255
14757SOL     OW45512   7.581   8.172   5.876 -0.2936 -0.1522 -0.2076
14757SOL    HW145513   7.555   8.257   5.911  1.9858  0.2458  0.6074
14757SOL    HW245514   7.628   8.130   5.948 -1.1742 -2.0046 -0.6909
14758SOL     OW45515   0.743   4.024   6.074  0.4990  0.5120 -0.1800
14758SOL    HW145516   0.697   3.979   6.003  1.8244  1.1270 -1.4610
14758SOL    HW245517   0.682   4.091   6.104 -1.0673 -1.3831  1.0078
14759SOL     OW45518   7.104   1.396   2.581 -0.3953 -0.2188 -0.1948
14759SOL    HW145519   7.021   1.420   2.620 -0.5396  0.3315 -0.8370
14759SOL    HW245520   7.120   1.462   2.514  1.0286  0.2329  0.5715
14760SOL     OW45521   0.765   6.624   4.329 -0.1124 -0.1266  0.1136
14760SOL    HW145522   0.727   6.704   4.293 -1.2119 -1.2587 -1.3439
14760SOL    HW245523   0.849   6.651   4.366  0.3212  1.3946 -1.8921
14761SOL     OW45524   2.930   1.750   7.735  0.2151 -0.2519 -0.5615
14761SOL    HW145525   2.947   1.838   7.701 -2.2999 -0.1203 -1.5640
14761SOL    HW245526   2.901   1.764   7.824 -1.3141  0.0283 -1.0997
14762SOL     OW45527   8.103   7.708   7.058  0.1565 -0.6573 -0.1038
14762SOL    HW145528   8.106   7.677   6.968 -1.1917 -0.5193 -0.2030
14762SOL    HW245529   8.064   7.795   7.053  2.2960  0.3565  0.3694
14763SOL     OW45530   2.412   4.266   4.030  0.1411  0.2688  0.6348
14763SOL    HW145531   2.334   4.319   4.010  0.4423  0.8550  1.0052
14763SOL    HW245532   2.379   4.195   4.085  0.1415  1.4522  2.1733
14764SOL     OW45533   0.863   6.244   2.067  0.5158 -0.1961 -0.0049
14764SOL    HW145534   0.850   6.330   2.026  0.3336 -0.7148 -1.0614
14764SOL    HW245535   0.922   6.261   2.141  0.2834  0.8726 -0.0590
14765SOL     OW45536   8.192   3.493   4.877  0.2029 -0.5502 -0.2419
14765SOL    HW145537   8.212   3.488   4.970  0.6706 -2.2358 -0.4051
14765SOL    HW245538   8.268   3.454   4.834 -0.3562 -0.5177 -1.2862
14766SOL     OW45539   7.383   3.928   3.334  0.6508  0.3359 -0.1444
14766SOL    HW145540   7.375   3.997   3.400  0.5526 -0.3735  0.5878
14766SOL    HW245541   7.386   3.847   3.384  0.3109 -0.2294 -1.0239
14767SOL     OW45542   7.353   5.635   7.480 -0.3690 -0.5332 -0.3131
14767SOL    HW145543   7.380   5.598   7.396  0.0132  0.5316 -0.6566
14767SOL    HW245544   7.359   5.729   7.469  1.9983 -0.3949  1.6573
14768SOL     OW45545   0.911   5.609   5.243  0.9326 -0.0653  0.6071
14768SOL    HW145546   0.888   5.668   5.315  1.4288 -1.3897  1.8588
14768SOL    HW245547   0.827   5.584   5.205  0.6624  0.5463  0.7921
14769SOL     OW45548   3.350   6.809   6.049 -0.5589 -0.5832 -0.4478
14769SOL    HW145549   3.443   6.830   6.036 -0.4760  0.0498  1.0446
14769SOL    HW245550   3.317   6.880   6.104 -2.0644 -0.5356 -1.3744
14770SOL     OW45551   2.910   2.523   5.228  0.0048  0.4378  0.0371
14770SOL    HW145552   2.930   2.491   5.316 -0.2817  3.0422  1.0890
14770SOL    HW245553   2.965   2.601   5.217 -0.2486  0.3689 -1.9382
14771SOL     OW45554   1.465   1.833   7.703  0.0921 -0.5638 -0.6420
14771SOL    HW145555   1.490   1.742   7.687  2.1437 -0.0665 -0.3920
14771SOL    HW245556   1.442   1.836   7.796 -0.5056 -0.9524 -0.7799
14772SOL     OW45557   0.370   6.214   1.275 -0.1064 -0.3606 -0.1366
14772SOL    HW145558   0.406   6.220   1.187  0.1355 -0.4447 -0.0457
14772SOL    HW245559   0.327   6.299   1.289 -1.0614 -0.7439 -0.7237
14773SOL     OW45560   1.647   3.020   1.035 -0.1326 -0.2897  0.5229
14773SOL    HW145561   1.730   3.022   1.083  0.4751 -0.3471 -0.5165
14773SOL    HW245562   1.651   3.097   0.978 -1.0056 -0.0207  0.8144
14774SOL     OW45563   7.270   0.570   2.941  0.5375  0.0294  0.5759
14774SOL    HW145564   7.326   0.494   2.923 -1.3410 -1.4869  0.9988
14774SOL    HW245565   7.197   0.561   2.880  1.6482  3.0101 -1.2717
14775SOL     OW45566   5.094   1.969   2.854 -0.0775  0.3476  0.8173
14775SOL    HW145567   5.116   2.058   2.829  1.2907  0.1328  1.2660
14775SOL    HW245568   5.014   1.950   2.804  1.4478  0.6594 -1.8672
14776SOL     OW45569   7.618   1.873   0.728  0.5937 -0.2303  0.1077
14776SOL    HW145570   7.623   1.777   0.725  3.0750 -0.1091 -1.4686
14776SOL    HW245571   7.679   1.897   0.798 -1.5129  0.1520  1.8600
14777SOL     OW45572   5.317   7.511   7.391 -0.5668 -0.0715  0.1856
14777SOL    HW145573   5.231   7.469   7.398  0.2377 -1.5516  1.4155
14777SOL    HW245574   5.323   7.567   7.468  0.0365 -0.8459  0.7044
14778SOL     OW45575   8.270   4.371   2.994 -1.0540 -0.5142  0.6117
14778SOL    HW145576   8.348   4.317   2.979 -0.8361  0.5769 -2.5086
14778SOL    HW245577   8.197   4.314   2.974 -1.0200 -0.9540  1.6764
14779SOL     OW45578   3.413   2.161   4.399  0.2519  0.2240 -0.0246
14779SOL    HW145579   3.348   2.175   4.468 -1.3051 -1.3107 -1.1493
14779SOL    HW245580   3.492   2.132   4.445 -0.0381  1.4359  1.2873
14780SOL     OW45581   3.525   2.349   6.867  0.2960 -0.0048  0.1528
14780SOL    HW145582   3.436   2.346   6.831  0.4936 -0.1583 -0.3240
14780SOL    HW245583   3.520   2.414   6.937 -0.0441  0.4376 -0.2783
14781SOL     OW45584   7.684   4.622   3.277 -0.5989  0.0954  0.1929
14781SOL    HW145585   7.695   4.647   3.186  1.1907  0.9319  0.6056
14781SOL    HW245586   7.620   4.684   3.312 -0.9252  0.0760 -0.3615
14782SOL     OW45587   5.794   0.990   5.610 -0.7699  0.6246 -0.6084
14782SOL    HW145588   5.852   0.993   5.687 -1.2900 -1.3519 -0.1324
14782SOL    HW245589   5.836   1.049   5.547  2.2143 -1.3124 -0.5473
14783SOL     OW45590   8.042   1.895   3.737  0.1144  0.4999 -0.1180
14783SOL    HW145591   8.015   1.966   3.679  4.1666 -0.0361 -2.8895
14783SOL    HW245592   8.021   1.815   3.689  0.0586 -0.0803  0.8471
14784SOL     OW45593   3.691   5.486   3.130 -0.3681 -0.0726  0.0463
14784SOL    HW145594   3.730   5.444   3.053 -0.1827  0.7304 -0.3058
14784SOL    HW245595   3.751   5.466   3.201 -0.5329 -0.8124 -0.0152
14785SOL     OW45596   3.946   3.658   1.524  0.1861  0.0775  0.6989
14785SOL    HW145597   3.877   3.667   1.458  0.2918 -0.8910  0.4515
14785SOL    HW245598   3.921   3.580   1.574  0.3916  0.4942  1.4592
14786SOL     OW45599   4.471   2.582   5.119  0.0235 -0.0469 -0.1662
14786SOL    HW145600   4.382   2.563   5.150  0.1088  1.0091  0.7613
14786SOL    HW245601   4.478   2.677   5.124  1.0584 -0.0987 -0.6594
14787SOL     OW45602   0.679   7.316   0.416 -0.2943  0.7980  0.3317
14787SOL    HW145603   0.681   7.339   0.323 -0.1893 -0.2083  0.0717
14787SOL    HW245604   0.586   7.314   0.438 -0.3469  0.4389  0.0861
14788SOL     OW45605   6.089   2.777   3.707  0.7662  0.1406  0.0927
14788SOL    HW145606   6.184   2.789   3.705  0.6954  0.9716  0.8967
14788SOL    HW245607   6.076   2.683   3.703  1.5482  0.1029 -2.1608
14789SOL     OW45608   4.579   4.579   4.224 -0.4575  0.5546 -0.4316
14789SOL    HW145609   4.519   4.638   4.268 -0.1152  1.0732 -0.6518
14789SOL    HW245610   4.666   4.606   4.254  0.0008  2.6653 -3.4097
14790SOL     OW45611   7.201   5.801   3.241 -0.0345 -0.2962 -0.0133
14790SOL    HW145612   7.238   5.713   3.243  0.7907  0.0240 -0.9123
14790SOL    HW245613   7.149   5.807   3.321 -1.7691 -2.3182 -0.9400
14791SOL     OW45614   5.495   0.498   4.581  0.0475  0.1086  0.4065
14791SOL    HW145615   5.428   0.566   4.570  2.2976  2.1734 -1.2438
14791SOL    HW245616   5.570   0.544   4.618  2.3981 -0.9157 -2.8031
14792SOL     OW45617   7.174   4.373   1.531  0.0647  0.0310  0.1239
14792SOL    HW145618   7.092   4.408   1.564  0.1575 -0.4498  0.8670
14792SOL    HW245619   7.241   4.412   1.587  0.4067  0.9494 -0.9005
14793SOL     OW45620   1.098   8.056   0.165  0.5226 -0.4130  0.2668
14793SOL    HW145621   1.107   8.118   0.238 -1.4346  0.1649  0.0427
14793SOL    HW245622   1.078   8.110   0.089  2.7064 -1.0098 -0.7543
14794SOL     OW45623   3.949   5.337   1.401  0.2628 -0.0829 -0.3855
14794SOL    HW145624   4.010   5.394   1.355 -1.2952  2.4187  0.5735
14794SOL    HW245625   3.866   5.348   1.355 -0.4749 -0.2199  0.8883
14795SOL     OW45626   7.009   5.250   5.919 -0.7305 -0.2328 -0.6275
14795SOL    HW145627   6.927   5.256   5.967 -0.1993 -1.3604  0.4486
14795SOL    HW245628   7.077   5.254   5.986  0.1799  2.2663 -1.6190
14796SOL     OW45629   4.695   6.835   6.872 -0.1166 -0.0098 -0.7628
14796SOL    HW145630   4.768   6.864   6.927 -3.7215  1.4238  3.5546
14796SOL    HW245631   4.692   6.900   6.801  0.8244  1.8746  0.8633
14797SOL     OW45632   6.434   0.514   4.012  0.2121 -0.2681  0.3591
14797SOL    HW145633   6.478   0.543   3.932  1.9423 -2.1974  0.5509
14797SOL    HW245634   6.341   0.516   3.991  0.5677  0.6339 -1.2113
14798SOL     OW45635   5.305   1.988   5.161  0.4343  0.0020 -0.1756
14798SOL    HW145636   5.232   2.002   5.221  2.0464 -0.4429  1.9823
14798SOL    HW245637   5.287   1.904   5.120 -0.3923  0.0071  0.1633
14799SOL     OW45638   1.195   5.921   2.059  0.1453  0.6960  0.9832
14799SOL    HW145639   1.205   5.895   2.151  0.8830 -0.2427  0.6544
14799SOL    HW245640   1.109   5.888   2.033 -0.0532  0.9429  1.3338
14800SOL     OW45641   2.456   3.344   7.334  0.6118 -0.7409 -0.4075
14800SOL    HW145642   2.421   3.379   7.416 -1.5273  0.1141 -1.6496
14800SOL    HW245643   2.493   3.421   7.289  1.3268 -1.1215 -0.4762
14801SOL     OW45644   2.102   4.207   6.099  0.2759  0.3546  0.5484
14801SOL    HW145645   2.116   4.127   6.150 -1.4358  0.3791  1.0769
14801SOL    HW245646   2.111   4.278   6.163  2.1632  0.6358  0.0119
14802SOL     OW45647   2.642   6.320   4.525 -0.1611  0.3691 -0.3011
14802SOL    HW145648   2.593   6.291   4.602  2.3693 -3.9928 -0.1396
14802SOL    HW245649   2.728   6.346   4.560  0.2069  0.6421 -1.3807
14803SOL     OW45650   5.804   3.960   6.866 -0.3409 -0.1192 -0.1947
14803SOL    HW145651   5.870   3.944   6.799 -0.1480 -1.0516  0.2018
14803SOL    HW245652   5.853   3.998   6.939 -0.3353 -0.2617 -0.1224
14804SOL     OW45653   4.384   1.119   5.957  0.1084 -0.0954  0.8579
14804SOL    HW145654   4.358   1.059   6.026 -0.8862  1.6119  1.9994
14804SOL    HW245655   4.475   1.140   5.976 -1.0116  2.8488  3.6263
14805SOL     OW45656   0.642   7.643   4.166  0.4823  0.0717  0.5943
14805SOL    HW145657   0.737   7.648   4.181  0.2872  0.0174  1.9050
14805SOL    HW245658   0.633   7.637   4.071  1.6624  2.8296  0.2704
14806SOL     OW45659   0.498   3.123   5.849 -0.7518 -0.7143  0.0515
14806SOL    HW145660   0.452   3.045   5.818  0.6220 -2.2559  1.7610
14806SOL    HW245661   0.441   3.159   5.918 -0.7998 -0.9216  0.1199
14807SOL     OW45662   7.982   3.692   4.754 -0.0556 -0.3615 -0.0560
14807SOL    HW145663   7.972   3.619   4.693  0.1723  0.3698 -0.9722
14807SOL    HW245664   8.074   3.689   4.781  0.2210  0.2297 -0.9173
14808SOL     OW45665   6.067   0.688   5.622  0.1700 -0.2146  0.0442
14808SOL    HW145666   5.973   0.671   5.632  0.1215 -0.5923 -0.9094
14808SOL    HW245667   6.109   0.608   5.653  0.0700 -0.9160 -1.5400
14809SOL     OW45668   0.470   5.739   2.352  0.0059 -0.3258 -0.4466
14809SOL    HW145669   0.434   5.653   2.373  0.1532 -0.0167  1.1322
14809SOL    HW245670   0.559   5.737   2.388  0.7589 -0.2631 -2.2713
14810SOL     OW45671   4.751   2.569   0.820  0.1543 -0.2827 -0.5722
14810SOL    HW145672   4.698   2.580   0.899  0.9896  0.8039 -0.1397
14810SOL    HW245673   4.836   2.539   0.852  0.5979  0.4700 -1.0199
14811SOL     OW45674   3.420   5.422   5.969  0.5051  0.2237  0.1213
14811SOL    HW145675   3.399   5.470   5.889 -1.2444  2.8405  2.0555
14811SOL    HW245676   3.337   5.419   6.017  1.6171 -0.9639  2.0279
14812SOL     OW45677   6.148   7.056   4.638  0.5884  0.1547  0.4199
14812SOL    HW145678   6.229   7.051   4.587 -1.8205 -0.9539 -3.5265
14812SOL    HW245679   6.110   7.140   4.612 -0.0842  0.1540  1.3976
14813SOL     OW45680   5.198   6.272   4.379 -0.1346 -0.1247  0.1054
14813SOL    HW145681   5.213   6.367   4.383 -1.0214  0.0322 -0.1776
14813SOL    HW245682   5.260   6.241   4.313 -0.0389  0.3029 -0.0084
14814SOL     OW45683   5.773   7.482   0.674  0.0878 -0.0630 -0.1020
14814SOL    HW145684   5.729   7.459   0.593  1.1123  1.4734 -1.1018
14814SOL    HW245685   5.838   7.548   0.650  1.3728 -0.5866  1.7157
14815SOL     OW45686   3.813   3.235   6.975 -0.1221  0.1629 -0.5175
14815SOL    HW145687   3.900   3.210   7.008  0.0648 -1.1942 -1.9532
14815SOL    HW245688   3.767   3.268   7.052  1.7517  1.1524  0.2279
14816SOL     OW45689   3.258   7.797   4.403 -0.3826 -0.1263 -0.3004
14816SOL    HW145690   3.206   7.853   4.345 -0.4496  0.9906  0.8133
14816SOL    HW245691   3.246   7.709   4.368  1.0931  0.7211 -3.1491
14817SOL     OW45692   3.915   4.975   3.666  0.3322  0.1013  0.2693
14817SOL    HW145693   3.964   4.920   3.728  2.9519  0.6766 -1.2201
14817SOL    HW245694   3.930   5.064   3.696 -1.5114  0.1705  0.9910
14818SOL     OW45695   4.847   2.126   3.780  0.1800  0.3905 -0.2478
14818SOL    HW145696   4.921   2.141   3.721 -0.8023 -0.4436 -1.7597
14818SOL    HW245697   4.820   2.036   3.760 -0.9957  0.5665  0.5401
14819SOL     OW45698   1.889   1.951   1.609 -0.2822  0.2567  0.4436
14819SOL    HW145699   1.920   1.869   1.649  1.1929  0.8611  0.5441
14819SOL    HW245700   1.818   1.923   1.551  0.0727 -1.0759  0.6312
14820SOL     OW45701   1.883   3.832   1.576  1.1414  0.2673  0.1220
14820SOL    HW145702   1.847   3.769   1.513  3.3834 -0.6325 -0.3035
14820SOL    HW245703   1.807   3.862   1.626 -0.1678 -1.7268 -0.6076
14821SOL     OW45704   4.172   6.806   3.501 -0.2938  0.1649  0.6361
14821SOL    HW145705   4.240   6.799   3.433 -1.3645 -0.7440 -0.3560
14821SOL    HW245706   4.183   6.728   3.554 -0.9288 -0.2598  0.1391
14822SOL     OW45707   7.452   2.815   1.386 -0.4722 -0.0771 -0.4836
14822SOL    HW145708   7.358   2.832   1.386 -0.3748  0.4553  0.5409
14822SOL    HW245709   7.485   2.863   1.310 -0.8919  0.4345 -0.3391
14823SOL     OW45710   4.577   4.964   5.911 -0.7111 -0.0181 -0.2548
14823SOL    HW145711   4.545   4.876   5.892  0.5607 -0.3122 -1.1204
14823SOL    HW245712   4.588   4.966   6.006 -0.8329 -0.7698 -0.2238
14824SOL     OW45713   0.166   5.224   2.066  0.0926 -0.3124 -0.3101
14824SOL    HW145714   0.133   5.243   2.154  1.6918 -0.3400  0.3231
14824SOL    HW245715   0.090   5.193   2.018 -0.6259 -1.1586  1.3223
14825SOL     OW45716   6.728   0.931   4.476  0.0278  0.1641  0.2135
14825SOL    HW145717   6.765   1.003   4.426 -1.1390 -0.7189 -2.0016
14825SOL    HW245718   6.780   0.855   4.450 -0.1823 -0.1839  0.8205
14826SOL     OW45719   7.087   7.949   5.430 -0.7503 -0.0067  0.2554
14826SOL    HW145720   7.107   8.037   5.400 -0.0356  0.6637  2.5430
14826SOL    HW245721   6.993   7.952   5.452 -1.1427 -0.3437 -1.3701
14827SOL     OW45722   7.994   1.177   8.042 -0.3863  0.1265 -0.1573
14827SOL    HW145723   8.000   1.216   7.955 -0.2329 -0.2383 -0.3077
14827SOL    HW245724   7.940   1.099   8.030  2.3879 -1.7874 -0.5570
14828SOL     OW45725   5.170   3.461   6.593  0.1400 -0.2126 -0.3792
14828SOL    HW145726   5.144   3.409   6.670  0.3482  1.7135  1.0289
14828SOL    HW245727   5.146   3.551   6.615  0.5618  0.4328 -2.4331
14829SOL     OW45728   7.950   7.595   6.585 -0.5216 -0.0352  0.4917
14829SOL    HW145729   7.865   7.615   6.622 -0.5408  0.2291  0.3078
14829SOL    HW245730   8.009   7.588   6.660 -0.4581  0.9864  0.5513
14830SOL     OW45731   6.138   0.385   5.653  0.1383 -0.0588  0.2518
14830SOL    HW145732   6.074   0.323   5.620  0.6774 -0.4964  0.0227
14830SOL    HW245733   6.215   0.332   5.675  0.4414  0.4631  0.4763
14831SOL     OW45734   4.415   0.300   5.386 -0.4093  0.1691  0.1321
14831SOL    HW145735   4.321   0.313   5.374 -0.5588  0.3253  1.3612
14831SOL    HW245736   4.426   0.294   5.481  0.8040 -0.0078 -0.0115
14832SOL     OW45737   4.182   5.026   8.027 -0.7990  0.2699  0.5326
14832SOL    HW145738   4.234   5.081   7.968  0.3027 -1.1106  0.1942
14832SOL    HW245739   4.120   5.086   8.067  0.6033  1.8197  0.4108
14833SOL     OW45740   6.028   0.402   2.904  0.1354 -0.1289  0.0341
14833SOL    HW145741   6.108   0.429   2.859 -0.6515  0.6973 -0.8667
14833SOL    HW245742   6.048   0.314   2.937  1.3211 -0.0293 -0.4077
14834SOL     OW45743   6.713   1.731   1.341  0.5819  0.1402 -0.3963
14834SOL    HW145744   6.669   1.739   1.426 -0.2361 -0.3177 -0.7729
14834SOL    HW245745   6.765   1.811   1.333  1.7749 -0.4593  1.1612
14835SOL     OW45746   3.112   2.423   2.340 -0.7466  0.3845  0.1542
14835SOL    HW145747   3.097   2.334   2.369  1.6104 -0.0455  0.1724
14835SOL    HW245748   3.031   2.470   2.361 -1.4147 -1.3699  1.5810
14836SOL     OW45749   4.170   4.241   3.036  0.2686 -0.2756  0.4289
14836SOL    HW145750   4.115   4.280   3.104  0.5347  0.5401  0.1802
14836SOL    HW245751   4.199   4.316   2.983 -0.6800 -0.9789 -1.1296
14837SOL     OW45752   5.815   2.735   6.177  0.1229  0.2445 -0.7812
14837SOL    HW145753   5.906   2.703   6.172 -0.1995 -0.5292 -1.7704
14837SOL    HW245754   5.777   2.684   6.249  0.0583 -0.4968 -1.3307
14838SOL     OW45755   0.667   6.165   5.100 -0.1280  0.4761 -0.1476
14838SOL    HW145756   0.703   6.076   5.096 -2.8590 -0.7114  0.2906
14838SOL    HW245757   0.616   6.166   5.181  0.1978  2.5879  0.0428
14839SOL     OW45758   3.054   5.638   6.829  0.5457  0.1742 -0.0236
14839SOL    HW145759   3.029   5.613   6.740 -0.3659  0.9894  0.0037
14839SOL    HW245760   3.020   5.567   6.884 -1.9879  1.3937  0.0499
14840SOL     OW45761   7.030   5.073   0.624  0.0211 -0.8315  0.2663
14840SOL    HW145762   7.017   5.127   0.546 -0.5674 -1.3830 -0.0182
14840SOL    HW245763   6.951   5.019   0.630  0.1220 -0.8829  1.1724
14841SOL     OW45764   5.514   0.435   4.264 -0.2799 -0.0492 -0.2884
14841SOL    HW145765   5.506   0.386   4.346 -1.8630  0.5920 -0.0365
14841SOL    HW245766   5.607   0.436   4.245 -0.1401 -2.4571  0.1449
14842SOL     OW45767   4.992   5.595   1.889  0.2289  0.5057 -0.4986
14842SOL    HW145768   5.055   5.522   1.888  1.4197  1.5008  0.4698
14842SOL    HW245769   4.996   5.631   1.800 -1.3259 -1.3813 -1.3847
14843SOL     OW45770   3.443   2.091   2.947  0.0191  0.3994 -0.1843
14843SOL    HW145771   3.442   2.186   2.941  0.6132  0.5229  1.4817
14843SOL    HW245772   3.361   2.069   2.991  1.5846  0.4504  2.9446
14844SOL     OW45773   2.239   4.436   3.660  0.2534  0.0187  0.5485
14844SOL    HW145774   2.206   4.370   3.599  0.8186  0.4445 -0.2164
14844SOL    HW245775   2.333   4.442   3.641  0.6864 -0.8065  2.3645
14845SOL     OW45776   7.089   0.227   6.945  0.1194  0.7128 -0.0579
14845SOL    HW145777   7.128   0.276   6.872 -0.4640  0.5548 -0.4814
14845SOL    HW245778   7.127   0.266   7.023  0.4481  1.1509 -0.4335
14846SOL     OW45779   7.668   1.995   3.164 -0.1190 -0.1709  0.5231
14846SOL    HW145780   7.743   2.049   3.138  0.7006 -0.5574  2.0606
14846SOL    HW245781   7.599   2.019   3.102  0.8403  1.2072 -0.0384
14847SOL     OW45782   0.618   0.021   6.452 -0.0281  0.1360  0.7545
14847SOL    HW145783   0.684   0.002   6.386 -0.3167 -0.6549  0.6840
14847SOL    HW245784   0.660   0.082   6.512  1.2258 -1.4321  1.4810
14848SOL     OW45785   4.351   0.744   7.841 -0.0989  0.0236  0.2086
14848SOL    HW145786   4.313   0.690   7.771 -1.6749  2.5279 -0.9475
14848SOL    HW245787   4.445   0.736   7.829 -0.3368 -0.4616 -1.5592
14849SOL     OW45788   2.430   5.086   4.134  0.1724  0.0842  0.5335
14849SOL    HW145789   2.385   5.147   4.192 -1.5362 -0.0022 -0.6491
14849SOL    HW245790   2.404   5.113   4.046  2.5328  0.0761 -0.1873
14850SOL     OW45791   1.080   6.052   0.865 -0.1484  0.2480  0.5414
14850SOL    HW145792   1.131   6.084   0.939  2.1568  1.1743 -1.4227
14850SOL    HW245793   1.034   6.129   0.831  0.7018  0.3116 -0.4825
14851SOL     OW45794   6.107   4.881   6.367  0.1677  0.3071 -0.3531
14851SOL    HW145795   6.058   4.953   6.407 -0.0401 -1.1537  2.1283
14851SOL    HW245796   6.043   4.834   6.314 -0.0704  1.0292 -0.7048
14852SOL     OW45797   3.191   6.532   8.131  0.8208  0.0119 -0.2024
14852SOL    HW145798   3.095   6.528   8.129  0.8092  0.1151  0.1452
14852SOL    HW245799   3.218   6.490   8.050  0.5711 -2.8271  1.1543
14853SOL     OW45800   1.715   6.021   5.312 -0.5387  0.4058 -0.1633
14853SOL    HW145801   1.786   6.079   5.339 -1.6257  1.8617 -0.3757
14853SOL    HW245802   1.635   6.072   5.326 -1.6075 -1.4535  0.7290
14854SOL     OW45803   0.837   3.496   0.210 -1.1750 -0.0813 -0.2276
14854SOL    HW145804   0.922   3.539   0.207 -1.0134 -0.4092 -0.2914
14854SOL    HW245805   0.821   3.481   0.303 -1.2732  0.1958 -0.1977
14855SOL     OW45806   0.281   7.552   4.283 -0.4566 -0.0954 -0.1257
14855SOL    HW145807   0.223   7.477   4.295 -0.3915 -0.3478 -1.3253
14855SOL    HW245808   0.352   7.520   4.228  0.0690  0.5989  0.1363
14856SOL     OW45809   7.585   5.549   0.025  0.1817  0.0829 -0.4331
14856SOL    HW145810   7.602   5.517   0.114 -0.3843 -1.6786 -0.9355
14856SOL    HW245811   7.509   5.499  -0.005  0.2880  0.7461 -1.8666
14857SOL     OW45812   8.083   1.677   4.754 -0.1710 -0.4587  0.4213
14857SOL    HW145813   8.159   1.707   4.706 -0.9811  1.8939  0.5469
14857SOL    HW245814   8.116   1.606   4.810  1.6701 -0.2138 -0.3356
14858SOL     OW45815   4.085   7.046   7.029 -0.1130 -0.5393 -0.0380
14858SOL    HW145816   4.013   7.041   7.092 -1.1019  1.2534 -1.0030
14858SOL    HW245817   4.147   7.108   7.068 -0.2558 -0.1918 -0.3633
14859SOL     OW45818   1.544   1.596   0.992 -0.4623 -0.1220  0.0587
14859SOL    HW145819   1.629   1.560   0.966 -0.1392 -0.3076  1.3060
14859SOL    HW245820   1.545   1.686   0.960  0.4634  0.0614  0.5709
14860SOL     OW45821   6.143   1.928   5.994 -0.2225 -0.0235  0.7546
14860SOL    HW145822   6.177   1.984   6.065  0.8971  1.1019 -0.6179
14860SOL    HW245823   6.205   1.856   5.989  0.1212  0.2909  0.4368
14861SOL     OW45824   3.227   7.713   3.381  0.4229 -0.1812 -0.4812
14861SOL    HW145825   3.222   7.638   3.441  0.9771  0.9109  0.9594
14861SOL    HW245826   3.311   7.753   3.400 -0.3335  1.4385 -0.4724
14862SOL     OW45827   2.136   0.409   6.597 -0.3214 -1.0572 -0.6545
14862SOL    HW145828   2.222   0.394   6.557 -0.6640 -3.7208 -0.4804
14862SOL    HW245829   2.073   0.397   6.526 -0.6692 -1.2921 -0.3126
14863SOL     OW45830   5.903   7.709   7.961 -0.6500 -0.4077  0.3597
14863SOL    HW145831   5.873   7.771   7.895 -0.6932  0.2323  0.9808
14863SOL    HW245832   5.825   7.690   8.013 -0.6031 -0.8735  0.2606
14864SOL     OW45833   3.568   1.296   8.019 -0.1768 -0.2379  0.2175
14864SOL    HW145834   3.610   1.225   7.972  0.3810  0.7727 -0.8234
14864SOL    HW245835   3.575   1.271   8.112 -1.0578 -2.1090 -0.1925
14865SOL     OW45836   2.133   3.330   0.702  0.2263  0.3789  0.2480
14865SOL    HW145837   2.212   3.383   0.705  1.3728 -1.3423  0.9030
14865SOL    HW245838   2.151   3.256   0.761 -3.1909  1.7685  3.2320
14866SOL     OW45839   2.828   5.825   6.711 -0.6339  0.9050  0.3852
14866SOL    HW145840   2.871   5.869   6.638 -0.4510  1.3736  0.7775
14866SOL    HW245841   2.863   5.867   6.789 -1.4996  1.0144  0.7185
14867SOL     OW45842   2.297   7.590   5.976  0.4784  0.0461  0.0180
14867SOL    HW145843   2.303   7.566   6.069  0.7807 -1.5104 -0.3935
14867SOL    HW245844   2.388   7.593   5.946  0.3173 -1.0968 -0.6214
14868SOL     OW45845   6.773   1.971   2.428  1.0258  0.4849 -0.3212
14868SOL    HW145846   6.759   1.876   2.421  1.1775  0.3608  0.8776
14868SOL    HW245847   6.689   2.006   2.455  0.8727  0.7492 -1.1177
14869SOL     OW45848   5.361   7.452   3.305  0.2886  0.1535  0.3637
14869SOL    HW145849   5.342   7.361   3.330 -1.3460  0.0424 -1.0886
14869SOL    HW245850   5.303   7.504   3.361  1.7125  0.3554  1.6630
14870SOL     OW45851   4.607   7.183   3.528  0.0852  0.0753 -0.4829
14870SOL    HW145852   4.663   7.260   3.526 -0.3264  0.3870 -0.1114
14870SOL    HW245853   4.668   7.109   3.522  0.3862  0.4449 -2.2225
14871SOL     OW45854   2.961   6.704   7.569  0.0111  0.2548  0.0607
14871SOL    HW145855   3.016   6.778   7.593  0.1698  0.2639 -0.3390
14871SOL    HW245856   2.953   6.709   7.474  0.1166 -0.3096  0.0229
14872SOL     OW45857   4.760   6.197   4.657 -0.6607  0.4174  0.3356
14872SOL    HW145858   4.764   6.290   4.635 -0.6826  0.0279 -1.3873
14872SOL    HW245859   4.715   6.157   4.583  0.1892 -1.1134  0.6234
14873SOL     OW45860   6.531   6.850   5.565  0.4226  0.1634 -0.2281
14873SOL    HW145861   6.535   6.817   5.475  1.4663 -1.5647  0.4286
14873SOL    HW245862   6.437   6.848   5.587  0.2558 -0.2384 -0.9718
14874SOL     OW45863   3.775   6.515   8.255  0.1079  0.6858 -0.0600
14874SOL    HW145864   3.791   6.495   8.347 -1.4560 -0.7475 -0.0945
14874SOL    HW245865   3.693   6.564   8.255 -1.3941 -1.7691 -0.9391
14875SOL     OW45866   5.789   4.763   5.511 -0.6453  0.4595 -0.0562
14875SOL    HW145867   5.830   4.832   5.458 -0.7266  1.4661  1.1610
14875SOL    HW245868   5.731   4.717   5.450 -0.4313  1.3281 -0.9357
14876SOL     OW45869   2.832   4.262   2.752  0.2811 -0.2404  0.0228
14876SOL    HW145870   2.910   4.288   2.703 -0.9983 -0.2694 -2.0829
14876SOL    HW245871   2.866   4.211   2.826  2.2381 -0.4394 -0.9840
14877SOL     OW45872   3.812   3.597   0.113  0.0944  0.4418 -0.4080
14877SOL    HW145873   3.845   3.542   0.042  2.1565 -0.5696  1.3097
14877SOL    HW245874   3.832   3.686   0.084  0.3170  0.0855 -1.3904
14878SOL     OW45875   3.665   7.307   0.572 -0.1210  0.0718 -0.0714
14878SOL    HW145876   3.682   7.351   0.488  0.5236 -0.8030 -0.4105
14878SOL    HW245877   3.631   7.376   0.629 -0.2136  0.7560 -0.9459
14879SOL     OW45878   0.841   0.418   3.613  0.4773 -0.1572  0.7952
14879SOL    HW145879   0.884   0.503   3.607  0.1395  0.0042  0.6386
14879SOL    HW245880   0.843   0.397   3.706  2.2431 -0.8528  0.6138
14880SOL     OW45881   6.054   2.176   3.316 -0.3367 -0.6001 -0.1766
14880SOL    HW145882   6.100   2.093   3.316 -1.2169 -1.0952 -0.0632
14880SOL    HW245883   5.976   2.161   3.262 -0.3698  0.2187 -0.3691
14881SOL     OW45884   2.444   7.915   2.356  0.3213 -0.1463 -0.6359
14881SOL    HW145885   2.428   8.009   2.360 -1.9283 -0.5157 -0.1441
14881SOL    HW245886   2.423   7.890   2.266  0.3893 -0.2834 -0.6151
14882SOL     OW45887   4.216   0.425   6.961 -0.0403  0.2619 -0.3224
14882SOL    HW145888   4.239   0.332   6.963  1.3271  0.6069  0.1212
14882SOL    HW245889   4.251   0.457   6.878  0.9407  0.7391  0.2610
14883SOL     OW45890   7.132   5.440   5.738 -0.3306 -0.2541 -0.4793
14883SOL    HW145891   7.106   5.384   5.811 -1.4200  0.8511  0.0042
14883SOL    HW245892   7.093   5.399   5.661 -1.3681 -0.0213 -0.0890
14884SOL     OW45893   6.620   5.440   3.467  0.0656  0.0909 -0.0382
14884SOL    HW145894   6.642   5.477   3.382  0.0955 -2.8571 -1.3429
14884SOL    HW245895   6.549   5.379   3.449  1.6429 -2.3146  1.6790
14885SOL     OW45896   6.546   5.426   8.200  0.4478 -0.1329  0.1542
14885SOL    HW145897   6.559   5.369   8.275  0.1055  0.0066  0.3210
14885SOL    HW245898   6.452   5.446   8.201  0.4976  0.1219 -0.1254
14886SOL     OW45899   8.150   0.142   3.575 -0.0573  0.3945 -0.4023
14886SOL    HW145900   8.120   0.051   3.571 -1.7233  0.9819 -1.7428
14886SOL    HW245901   8.074   0.191   3.607  0.9135  1.3071  0.5551
14887SOL     OW45902   6.907   1.768   2.964  0.3412  0.1016 -0.4328
14887SOL    HW145903   6.998   1.794   2.979 -0.0014  0.4963  1.1113
14887SOL    HW245904   6.903   1.677   2.994 -0.4130  0.9754  2.2282
14888SOL     OW45905   5.417   4.268   8.125 -0.4024 -0.3580 -0.4917
14888SOL    HW145906   5.450   4.193   8.075  1.2115 -0.5345  0.7798
14888SOL    HW245907   5.480   4.338   8.108 -0.7573  0.0787 -0.0273
14889SOL     OW45908   7.953   0.925   2.006  0.1284 -0.2443  0.0234
14889SOL    HW145909   7.981   0.906   1.917 -1.3178 -0.1556 -0.4551
14889SOL    HW245910   8.035   0.934   2.056  0.9773  1.1925 -1.5903
14890SOL     OW45911   5.142   4.963   1.744 -0.3118 -0.2248  0.0486
14890SOL    HW145912   5.210   4.900   1.771 -1.0452 -0.6519  0.9139
14890SOL    HW245913   5.177   5.048   1.771  0.4790 -0.2997 -0.7156
14891SOL     OW45914   1.612   2.678   5.006 -0.0087  0.0476  0.2909
14891SOL    HW145915   1.560   2.603   5.035 -2.2640  1.1636 -0.6685
14891SOL    HW245916   1.663   2.646   4.932 -1.1701 -0.4785 -0.2913
14892SOL     OW45917   7.702   5.589   0.939  0.3804  0.5193  0.2490
14892SOL    HW145918   7.655   5.507   0.951  1.1297  0.0639  0.0850
14892SOL    HW245919   7.673   5.644   1.012 -0.5009  0.2946  0.0711
14893SOL     OW45920   7.741   5.248   7.962 -0.4168  0.3981 -0.2166
14893SOL    HW145921   7.726   5.246   7.867  0.3689 -0.9701 -0.3112
14893SOL    HW245922   7.780   5.334   7.978  3.7842 -1.0932 -1.8018
14894SOL     OW45923   5.229   5.672   3.688  0.7641  0.0785 -0.0943
14894SOL    HW145924   5.324   5.675   3.697  0.8193  0.3324 -0.7409
14894SOL    HW245925   5.196   5.685   3.777  1.3559 -1.9986  0.4735
14895SOL     OW45926   0.593   4.987   0.815 -0.1177 -0.1987  0.3404
14895SOL    HW145927   0.542   4.923   0.765 -0.4977 -0.6912  1.3541
14895SOL    HW245928   0.658   4.935   0.862  2.4035  0.5611 -2.1677
14896SOL     OW45929   4.791   2.959   1.654 -0.3551 -0.5496 -0.5950
14896SOL    HW145930   4.885   2.974   1.642 -0.1824 -2.0738 -1.3549
14896SOL    HW245931   4.783   2.863   1.656 -1.6889 -0.4230  1.1497
14897SOL     OW45932   7.213   0.969   6.530  0.3114  0.2392 -0.0301
14897SOL    HW145933   7.145   1.028   6.561 -1.6311 -0.7946 -2.2005
14897SOL    HW245934   7.228   0.995   6.439  1.3518 -0.8891 -0.1970
14898SOL     OW45935   3.065   3.925   6.829  0.2897  0.0567 -0.0027
14898SOL    HW145936   3.080   3.875   6.909 -0.9928  0.1971  0.3319
14898SOL    HW245937   3.005   3.994   6.855 -0.1582  0.0898 -1.0993
14899SOL     OW45938   0.404   3.975   6.364 -0.3311  0.4170 -0.1397
14899SOL    HW145939   0.478   3.945   6.417 -0.8438 -1.7421 -0.5878
14899SOL    HW245940   0.328   3.964   6.421 -0.6622 -0.1664 -0.6981
14900SOL     OW45941   2.268   4.903   3.649  0.2997  0.2283  0.2680
14900SOL    HW145942   2.244   4.848   3.573 -0.4344 -0.0085  0.6693
14900SOL    HW245943   2.221   4.985   3.635  1.1181  0.6355 -0.1475
14901SOL     OW45944   6.618   2.219   5.335  0.2105  0.2482  0.0677
14901SOL    HW145945   6.683   2.213   5.405 -0.8072  1.4378  1.1560
14901SOL    HW245946   6.543   2.168   5.368 -0.5019  1.3175  0.1226
14902SOL     OW45947   6.567   5.191   0.806 -0.1736  0.3871 -0.0713
14902SOL    HW145948   6.490   5.184   0.750 -1.0422  0.9373  1.0336
14902SOL    HW245949   6.584   5.101   0.835  0.6379  0.0142 -1.6704
14903SOL     OW45950   5.066   2.481   5.740  0.2972 -0.4077  0.3142
14903SOL    HW145951   5.026   2.547   5.683  0.6112 -1.3356 -1.0063
14903SOL    HW245952   5.106   2.418   5.679  2.5894 -0.2209  1.5705
14904SOL     OW45953   1.869   5.420   5.182 -0.1559  0.1324  0.5040
14904SOL    HW145954   1.919   5.423   5.264  0.4782 -0.2512  0.1391
14904SOL    HW245955   1.865   5.511   5.153  0.9309  0.0905  0.1937
14905SOL     OW45956   7.334   4.266   4.516 -0.0691  0.3479  0.2878
14905SOL    HW145957   7.406   4.203   4.508 -0.3368  0.2031 -1.1098
14905SOL    HW245958   7.281   4.252   4.437 -1.6711  0.4049  1.3179
14906SOL     OW45959   0.588   3.225   6.270  0.3128 -0.4388 -0.0099
14906SOL    HW145960   0.649   3.272   6.213 -0.1932  0.0966 -0.1165
14906SOL    HW245961   0.641   3.156   6.311  1.1727  0.5092  0.5018
14907SOL     OW45962   2.952   7.022   5.931 -0.3770 -0.4495  0.2829
14907SOL    HW145963   2.964   7.102   5.983 -0.3562 -0.1824 -0.1259
14907SOL    HW245964   2.984   6.952   5.987  3.4102  0.2615 -0.8793
14908SOL     OW45965   6.643   0.269   0.677 -0.0734  0.0273 -0.0187
14908SOL    HW145966   6.704   0.268   0.750  0.2063 -1.2924 -0.2728
14908SOL    HW245967   6.674   0.342   0.622 -0.0037  0.7166  0.9153
14909SOL     OW45968   3.089   5.565   3.795  0.2271 -0.3423  0.3002
14909SOL    HW145969   3.022   5.505   3.827 -0.6998  0.7084  0.4054
14909SOL    HW245970   3.055   5.652   3.818  0.4841  0.3287 -1.7825
14910SOL     OW45971   2.656   3.411   4.255  0.3041 -0.5932 -0.3952
14910SOL    HW145972   2.744   3.404   4.291  0.4832  1.3375 -0.4004
14910SOL    HW245973   2.637   3.324   4.220  1.8037 -1.3047  0.5137
14911SOL     OW45974   3.230   0.325   4.327 -0.0629  0.0073 -0.0498
14911SOL    HW145975   3.308   0.377   4.308  0.3376 -0.2099  0.9469
14911SOL    HW245976   3.260   0.259   4.389 -1.2169  0.4350  0.9916
14912SOL     OW45977   0.571   1.058   6.297  0.5086 -0.6419 -0.0746
14912SOL    HW145978   0.529   1.144   6.293  2.6212  0.4273 -0.3742
14912SOL    HW245979   0.530   1.015   6.372 -0.5585  0.6526  0.1130
14913SOL     OW45980   4.963   2.007   4.759  0.1898 -0.6978 -0.2912
14913SOL    HW145981   5.051   2.006   4.721  0.4554 -0.3223  0.2945
14913SOL    HW245982   4.974   1.965   4.845  0.2997  1.4895  0.8049
14914SOL     OW45983   7.790   3.080   7.868  0.1363 -0.4289 -0.9043
14914SOL    HW145984   7.877   3.066   7.904 -0.7547  0.0619  1.5353
14914SOL    HW245985   7.788   3.174   7.848 -0.5660  0.0164  1.1451
14915SOL     OW45986   4.616   7.186   5.667 -0.0963 -0.4158 -0.3548
14915SOL    HW145987   4.668   7.115   5.705 -1.6315 -2.2261 -1.5000
14915SOL    HW245988   4.598   7.245   5.740  1.3836 -1.1137  0.5850
14916SOL     OW45989   2.213   3.616   6.248 -0.2848  0.4347  0.1163
14916SOL    HW145990   2.303   3.625   6.215 -0.5069  1.5318 -0.1943
14916SOL    HW245991   2.192   3.702   6.285 -2.0815  0.9432 -1.9933
14917SOL     OW45992   6.971   7.976   4.479  0.1290  0.3788 -0.4251
14917SOL    HW145993   7.034   7.930   4.535  1.4528  2.1301 -0.4472
14917SOL    HW245994   7.006   7.964   4.390 -0.8280 -0.5908 -0.6812
14918SOL     OW45995   4.682   4.916   5.283 -0.0818 -0.1784  0.4594
14918SOL    HW145996   4.721   4.959   5.360 -0.5367  0.7702  0.1734
14918SOL    HW245997   4.590   4.904   5.306 -0.1204 -0.3113  0.2394
14919SOL     OW45998   5.293   0.710   0.895 -0.3259  0.2626 -0.4407
14919SOL    HW145999   5.335   0.752   0.819 -1.8853  1.8336 -0.4825
14919SOL    HW246000   5.199   0.713   0.874 -0.7222  0.1515  1.2834
14920SOL     OW46001   1.643   1.208   5.934 -0.0313  0.3373 -0.5915
14920SOL    HW146002   1.615   1.119   5.955  0.4934  0.3550  0.1953
14920SOL    HW246003   1.725   1.220   5.983 -0.5543  1.5546  0.0112
14921SOL     OW46004   3.240   7.727   1.759 -0.6182  0.1197 -0.4907
14921SOL    HW146005   3.275   7.778   1.686  0.8125 -0.9471 -0.5724
14921SOL    HW246006   3.213   7.644   1.720 -1.3146  0.1432 -0.0658
14922SOL     OW46007   2.013   7.509   5.621  0.3214  0.5171  0.1653
14922SOL    HW146008   2.042   7.541   5.706  1.1475  0.3654 -0.0456
14922SOL    HW246009   1.958   7.579   5.586  0.4264  0.8122  0.5883
14923SOL     OW46010   7.548   3.971   0.562  0.0603 -0.1657  0.0122
14923SOL    HW146011   7.627   3.936   0.520  0.9013  0.2713  1.2209
14923SOL    HW246012   7.569   4.063   0.579 -0.6056 -0.1206  0.6022
14924SOL     OW46013   2.516   3.578   6.613 -0.2458  0.4386 -0.1940
14924SOL    HW146014   2.543   3.660   6.654  2.2675 -0.3404 -0.2451
14924SOL    HW246015   2.570   3.511   6.654 -1.0834 -0.9936 -1.3602
14925SOL     OW46016   4.318   4.032   3.094 -0.1325 -0.6942  0.8514
14925SOL    HW146017   4.273   4.113   3.071  1.9295  0.2131 -0.0290
14925SOL    HW246018   4.391   4.059   3.149  0.6254 -1.9455  0.4846
14926SOL     OW46019   3.775   2.827   1.774 -0.3165  0.2801 -0.7959
14926SOL    HW146020   3.824   2.801   1.851  2.4137 -1.0256 -2.8796
14926SOL    HW246021   3.684   2.808   1.796  0.4343 -0.3796  1.9429
14927SOL     OW46022   2.981   1.828   1.748  0.0637  0.0224  0.2011
14927SOL    HW146023   2.904   1.781   1.716  0.2834 -1.0890  1.2836
14927SOL    HW246024   2.960   1.849   1.839  1.2262 -0.7016  0.6452
14928SOL     OW46025   7.850   4.932   3.323 -0.0525 -0.2950 -0.8216
14928SOL    HW146026   7.887   4.931   3.411  2.2523  0.2619 -1.7433
14928SOL    HW246027   7.757   4.916   3.336  0.3692 -0.9588  1.6546
14929SOL     OW46028   1.310   2.713   1.857  0.2227 -0.1834 -0.2327
14929SOL    HW146029   1.347   2.710   1.768  0.9575  0.5216  0.0446
14929SOL    HW246030   1.365   2.775   1.904 -0.6338  0.0257  0.5095
14930SOL     OW46031   6.104   4.189   4.808  0.2343  0.1017 -0.3434
14930SOL    HW146032   6.137   4.199   4.897 -0.1604  0.0925 -0.1977
14930SOL    HW246033   6.060   4.104   4.808  0.8424 -0.2140 -0.7337
14931SOL     OW46034   6.826   5.891   8.071 -0.3399  0.1740 -0.1976
14931SOL    HW146035   6.758   5.831   8.042  0.1361 -0.7817  0.6183
14931SOL    HW246036   6.780   5.958   8.121 -0.9154  0.6762 -1.3874
14932SOL     OW46037   1.710   0.717   0.236 -0.0544 -0.5332  0.0350
14932SOL    HW146038   1.688   0.641   0.290  0.3547 -0.4570  0.3113
14932SOL    HW246039   1.646   0.784   0.261  0.4336 -0.3370  0.7763
14933SOL     OW46040   6.279   5.294   6.645  0.7656 -1.0046  0.8022
14933SOL    HW146041   6.192   5.308   6.682 -0.0157  0.8372 -1.6205
14933SOL    HW246042   6.338   5.341   6.704 -0.3050  0.7298  0.5183
14934SOL     OW46043   5.128   7.074   0.629 -0.4271 -0.0261 -0.3932
14934SOL    HW146044   5.148   7.003   0.690 -0.0024  0.6705  0.2837
14934SOL    HW246045   5.035   7.090   0.641 -0.1167  0.8429  0.8614
14935SOL     OW46046   3.636   6.152   6.257  0.8746 -0.2197 -0.3690
14935SOL    HW146047   3.582   6.123   6.331  0.2549  0.0178 -0.7258
14935SOL    HW246048   3.609   6.243   6.242 -0.9692 -1.0620 -2.6160
14936SOL     OW46049   2.569   0.022   5.859 -0.3048 -0.1334 -0.0047
14936SOL    HW146050   2.503  -0.006   5.923  0.7078  1.4593  1.7851
14936SOL    HW246051   2.518   0.042   5.780 -1.9379  0.5681  1.1808
14937SOL     OW46052   0.394   0.734   1.778 -0.0285  0.1632  0.0683
14937SOL    HW146053   0.394   0.638   1.773 -1.8052  0.1235  0.3417
14937SOL    HW246054   0.375   0.753   1.869 -1.4708  0.7580 -0.3373
14938SOL     OW46055   8.199   3.776   7.069  0.3947 -0.3113 -0.0946
14938SOL    HW146056   8.216   3.691   7.028 -0.8889 -0.5429 -0.1630
14938SOL    HW246057   8.283   3.823   7.062  0.3045 -0.4581 -2.7155
14939SOL     OW46058   1.166   1.019   0.260 -1.2465 -0.2021  0.1805
14939SOL    HW146059   1.090   0.962   0.262 -1.5759  0.2706  1.6767
14939SOL    HW246060   1.130   1.107   0.246 -0.8412 -0.1850 -0.8104
14940SOL     OW46061   4.675   7.478   7.119  0.4913  0.1087 -0.2525
14940SOL    HW146062   4.678   7.553   7.178  0.0799  0.7708 -1.0691
14940SOL    HW246063   4.691   7.403   7.176  2.8078  0.9551  0.2613
14941SOL     OW46064   1.703   5.757   0.206  0.6969 -1.0622  0.2115
14941SOL    HW146065   1.612   5.741   0.180  0.7001  1.0128 -1.1811
14941SOL    HW246066   1.700   5.760   0.301 -1.2957  2.1304  0.1228
14942SOL     OW46067   3.699   6.740   6.998 -0.5795  0.1372  0.3857
14942SOL    HW146068   3.733   6.651   7.003  0.3416  0.4787  0.2184
14942SOL    HW246069   3.730   6.783   7.078  1.6076  1.2072 -0.9822
14943SOL     OW46070   6.805   0.153   0.488 -1.0915  0.2562 -0.3401
14943SOL    HW146071   6.769   0.175   0.573 -1.5248  0.3919 -0.5573
14943SOL    HW246072   6.748   0.083   0.455  0.4980 -1.4597  0.5118
14944SOL     OW46073   3.358   5.137   5.702  0.2072  0.6642 -0.0823
14944SOL    HW146074   3.330   5.046   5.700  0.6816  0.5234 -0.6811
14944SOL    HW246075   3.279   5.188   5.683 -0.1290  0.3925  0.6175
14945SOL     OW46076   6.906   1.607   0.452 -0.6216 -0.0511  0.3940
14945SOL    HW146077   6.860   1.554   0.387 -1.4830  0.8394  0.2562
14945SOL    HW246078   6.860   1.589   0.534 -0.8243  0.3543  0.3743
14946SOL     OW46079   6.210   2.919   5.127 -0.7489 -0.3837  0.1705
14946SOL    HW146080   6.131   2.972   5.120 -0.1961  0.3997 -0.3100
14946SOL    HW246081   6.270   2.973   5.178 -0.2482 -0.6385 -0.1436
14947SOL     OW46082   4.243   2.644   6.079  0.2985 -0.2093  0.1738
14947SOL    HW146083   4.214   2.645   6.170  1.4730 -2.1690  0.5982
14947SOL    HW246084   4.337   2.663   6.084  0.2617  0.2126 -0.6907
14948SOL     OW46085   5.841   7.580   0.257  0.6090 -0.1546  0.1290
14948SOL    HW146086   5.772   7.637   0.223  0.3072 -0.4552  0.2380
14948SOL    HW246087   5.897   7.639   0.309 -0.7366 -0.2733  1.7825
14949SOL     OW46088   3.449   6.319   4.648  0.3983 -0.5828  0.6466
14949SOL    HW146089   3.464   6.378   4.722  0.8586 -0.2944  0.3288
14949SOL    HW246090   3.422   6.376   4.576  0.7915 -0.7541  0.3546
14950SOL     OW46091   7.906   7.220   8.287  0.1219  0.1009 -0.0116
14950SOL    HW146092   7.866   7.193   8.370  0.0313 -0.2701 -0.1735
14950SOL    HW246093   7.929   7.137   8.244  1.3231  0.3150  0.2049
14951SOL     OW46094   1.917   4.362   1.831 -0.6600 -0.4170 -0.1410
14951SOL    HW146095   1.928   4.284   1.886  0.2608  0.9030  1.5750
14951SOL    HW246096   1.875   4.426   1.888  1.0522  1.2361 -0.6880
14952SOL     OW46097   2.700   2.056   5.972 -0.6674  0.1100 -0.3694
14952SOL    HW146098   2.644   2.047   5.895 -1.2154  0.9264 -0.0763
14952SOL    HW246099   2.789   2.043   5.940 -0.8505  0.9334 -1.2282
14953SOL     OW46100   1.382   7.328   2.026 -0.1065  0.0482  0.3324
14953SOL    HW146101   1.386   7.416   1.989  2.2068 -0.4437 -0.6801
14953SOL    HW246102   1.407   7.270   1.954 -0.5111 -1.3568  1.2862
14954SOL     OW46103   0.463   7.776   2.420  0.1270  1.0228  0.7580
14954SOL    HW146104   0.413   7.833   2.362 -1.4001 -1.9592 -0.9687
14954SOL    HW246105   0.417   7.779   2.503 -0.8082  1.1465  0.2371
14955SOL     OW46106   8.073   4.720   3.922 -0.0192 -0.3491 -0.6585
14955SOL    HW146107   7.997   4.747   3.871 -1.2488  0.1479  1.3543
14955SOL    HW246108   8.060   4.626   3.936  0.5698 -0.5802 -1.6693
14956SOL     OW46109   4.114   5.085   7.457  0.3802 -0.0214 -0.1328
14956SOL    HW146110   4.129   5.006   7.509  0.6098  0.1895  0.1225
14956SOL    HW246111   4.200   5.106   7.420  0.6543  0.9646  1.0175
14957SOL     OW46112   7.491   0.881   8.033 -0.2052 -0.5478 -0.5586
14957SOL    HW146113   7.570   0.858   7.984  1.1829 -0.8452  1.6962
14957SOL    HW246114   7.523   0.935   8.106 -2.3253  0.9085 -0.6561
14958SOL     OW46115   4.007   7.080   0.580  0.7303  0.1406 -0.4136
14958SOL    HW146116   4.095   7.079   0.544  0.4097  0.7470 -1.2398
14958SOL    HW246117   4.019   7.080   0.675  1.6144  0.4115 -0.5232
14959SOL     OW46118   2.254   7.922   6.106  0.7888  0.5568 -1.0292
14959SOL    HW146119   2.295   7.900   6.022  0.5050  0.6034 -1.1811
14959SOL    HW246120   2.327   7.932   6.167  0.8766 -1.8940 -0.6903
14960SOL     OW46121   1.705   1.940   4.270  0.7144  0.4443 -0.1027
14960SOL    HW146122   1.687   1.854   4.232  0.7800  1.3572 -2.2612
14960SOL    HW246123   1.619   1.980   4.281  0.6701  0.0407  1.0871
14961SOL     OW46124   2.783   7.639   5.558 -0.2814  0.4372 -0.2650
14961SOL    HW146125   2.834   7.669   5.484 -1.6427  0.4409 -1.2253
14961SOL    HW246126   2.768   7.546   5.541 -1.4068  0.6527 -0.4898
14962SOL     OW46127   1.259   3.146   5.768 -0.1829  0.1793  0.5203
14962SOL    HW146128   1.212   3.108   5.842 -1.3982 -0.3983 -0.5179
14962SOL    HW246129   1.216   3.109   5.691  1.1424  0.6663 -0.4797
14963SOL     OW46130   1.833   6.331   5.687  0.6013 -0.2467 -0.9091
14963SOL    HW146131   1.741   6.331   5.660  0.0266  0.5364  0.9723
14963SOL    HW246132   1.856   6.423   5.696  1.9288 -0.4088 -2.4706
14964SOL     OW46133   0.993   6.994   7.575  0.2382 -0.9638 -0.0248
14964SOL    HW146134   1.065   7.044   7.612 -0.4778  0.0202  0.0614
14964SOL    HW246135   1.021   6.973   7.486 -0.6730  2.1952 -1.1262
14965SOL     OW46136   0.472   5.845   0.776 -0.1558 -0.0581  1.0948
14965SOL    HW146137   0.560   5.811   0.794 -0.5182 -2.2192 -1.0618
14965SOL    HW246138   0.420   5.768   0.756 -1.2245  1.6178 -3.0363
14966SOL     OW46139   4.208   0.211   7.399 -0.0100  0.6503  0.2068
14966SOL    HW146140   4.281   0.155   7.373  0.2823  1.8370 -1.6653
14966SOL    HW246141   4.243   0.300   7.393  0.5771  1.0938  6.2798
14967SOL     OW46142   0.432   3.746   5.117 -0.1306  0.1760 -0.1364
14967SOL    HW146143   0.414   3.696   5.038 -0.4825 -1.5678  1.0123
14967SOL    HW246144   0.505   3.700   5.158 -0.7173  0.3590  1.1448
14968SOL     OW46145   2.645   7.796   7.847 -0.3986 -0.9216 -0.1615
14968SOL    HW146146   2.585   7.762   7.914 -1.9754  1.8393 -0.0807
14968SOL    HW246147   2.732   7.779   7.881 -1.1579  1.5900  3.2844
14969SOL     OW46148   0.526   2.556   0.168 -0.7140 -0.3612  0.0261
14969SOL    HW146149   0.506   2.586   0.257  0.2350  0.4567 -0.0386
14969SOL    HW246150   0.571   2.629   0.127  0.9156 -1.5709 -0.3799
14970SOL     OW46151   1.956   7.749   4.219  0.0070 -0.0271 -0.2293
14970SOL    HW146152   2.026   7.694   4.183 -0.9233 -1.1509 -0.3297
14970SOL    HW246153   2.002   7.822   4.261  1.3210 -1.6151  1.1613
14971SOL     OW46154   3.072   5.615   3.546 -0.1135 -0.1571 -0.2935
14971SOL    HW146155   3.132   5.557   3.499  2.6316  3.1989 -1.1151
14971SOL    HW246156   3.090   5.599   3.639 -0.3558 -1.5516 -0.4780
14972SOL     OW46157   4.577   5.680   7.077 -0.3351  0.3324 -0.3750
14972SOL    HW146158   4.556   5.629   6.998  0.5374  0.5284 -0.7479
14972SOL    HW246159   4.671   5.696   7.070 -0.2312  0.2480  0.7778
14973SOL     OW46160   3.208   0.122   7.044  0.3679 -0.1555  0.4745
14973SOL    HW146161   3.161   0.040   7.058  1.7585 -0.7446  1.9045
14973SOL    HW246162   3.158   0.188   7.093  0.6739 -0.6549  1.4691
14974SOL     OW46163   2.807   4.648   4.419 -0.2386  0.2223  0.0401
14974SOL    HW146164   2.805   4.554   4.401  3.2794  0.1502 -0.3202
14974SOL    HW246165   2.767   4.688   4.341  1.5218 -0.8241 -1.4522
14975SOL     OW46166   7.139   3.855   6.795  0.6297  0.1495 -0.1313
14975SOL    HW146167   7.209   3.860   6.860  0.8681 -0.3066 -0.3535
14975SOL    HW246168   7.144   3.766   6.761 -0.5674 -0.1326  0.4196
14976SOL     OW46169   7.411   4.059   1.289  0.0983  0.2813 -0.1687
14976SOL    HW146170   7.327   4.103   1.299 -0.5225 -0.9692  0.2707
14976SOL    HW246171   7.397   3.996   1.218  0.3875 -0.5707  0.5256
14977SOL     OW46172   1.904   6.212   3.195 -0.3382 -0.6674 -0.1116
14977SOL    HW146173   1.998   6.200   3.183 -0.4666 -1.3704 -0.4566
14977SOL    HW246174   1.893   6.306   3.210  0.2774 -0.3950 -1.3337
14978SOL     OW46175   8.181   2.318   4.954 -0.3212  0.1444 -0.1246
14978SOL    HW146176   8.231   2.238   4.938 -1.9806 -0.5958 -1.8198
14978SOL    HW246177   8.247   2.383   4.979  1.5015 -0.7565 -2.4476
14979SOL     OW46178   2.191   3.122   0.876  0.4991 -0.3037 -0.6852
14979SOL    HW146179   2.175   3.031   0.852 -0.8850 -0.5930  1.2519
14979SOL    HW246180   2.283   3.123   0.904  0.3855 -1.1963 -0.2709
14980SOL     OW46181   5.123   2.778   6.476  0.1087 -0.0218  0.1289
14980SOL    HW146182   5.183   2.799   6.405  1.2213 -2.1744  0.3832
14980SOL    HW246183   5.069   2.707   6.441 -2.5077  2.0338 -0.1789
14981SOL     OW46184   3.038   2.593   7.760 -0.9790 -0.2039  1.2370
14981SOL    HW146185   2.943   2.579   7.760 -1.1031  0.4106  3.7016
14981SOL    HW246186   3.052   2.667   7.701 -1.9845 -0.5352  0.5697
14982SOL     OW46187   0.698   4.873   7.474 -0.2871 -0.2952 -0.2235
14982SOL    HW146188   0.784   4.885   7.433  0.6392 -0.7089  1.5322
14982SOL    HW246189   0.635   4.893   7.405  1.2242 -0.5804 -1.7089
14983SOL     OW46190   3.925   4.140   6.581  0.4286 -0.0325  0.3833
14983SOL    HW146191   3.991   4.208   6.593  0.1086  0.5783 -1.1275
14983SOL    HW246192   3.954   4.092   6.504 -1.3474  0.8439 -0.8903
14984SOL     OW46193   6.638   4.868   2.675 -0.4926 -0.1933  0.5823
14984SOL    HW146194   6.706   4.845   2.611 -0.5932 -0.9170  0.7254
14984SOL    HW246195   6.572   4.914   2.624 -0.4957 -0.6216  0.1934
14985SOL     OW46196   5.669   4.926   6.921  0.2170 -0.3102  0.6654
14985SOL    HW146197   5.715   4.974   6.991  2.0967  2.0492 -2.0606
14985SOL    HW246198   5.725   4.850   6.904  0.7311  0.1114  0.4602
14986SOL     OW46199   2.598   2.410   1.369 -0.1768  0.9405 -0.2543
14986SOL    HW146200   2.598   2.356   1.290 -1.2196 -1.2149  1.1858
14986SOL    HW246201   2.676   2.465   1.360  0.4933 -0.2580 -2.1033
14987SOL     OW46202   5.156   7.204   7.578  0.0039 -0.0345 -0.3124
14987SOL    HW146203   5.238   7.196   7.628  0.5395 -0.4362 -1.2370
14987SOL    HW246204   5.148   7.121   7.531 -0.8158  0.0999 -0.4186
14988SOL     OW46205   3.897   4.880   7.855 -1.0948  0.0556 -0.2932
14988SOL    HW146206   3.967   4.877   7.789 -0.2100 -1.2373  0.6780
14988SOL    HW246207   3.857   4.793   7.851 -0.5283 -0.2987  1.3992
14989SOL     OW46208   7.386   0.593   4.039  0.2777  0.5299  0.5245
14989SOL    HW146209   7.346   0.673   4.004  1.4069  0.8394 -0.0892
14989SOL    HW246210   7.362   0.525   3.975 -1.6006  0.1503  1.6195
14990SOL     OW46211   1.583   4.453   1.633  0.4797  0.0142  0.0330
14990SOL    HW146212   1.520   4.474   1.702  0.6102  2.1503 -0.4454
14990SOL    HW246213   1.600   4.537   1.591  0.1619 -1.2963 -2.8194
14991SOL     OW46214   2.587   1.631   5.247  0.3806  0.1069  0.0645
14991SOL    HW146215   2.545   1.592   5.170  2.3567 -0.4071 -0.7840
14991SOL    HW246216   2.551   1.719   5.252 -0.7953 -0.3262 -0.6418
14992SOL     OW46217   3.704   8.068   1.781  0.2151  0.3735  0.1009
14992SOL    HW146218   3.630   8.010   1.800  1.2179 -0.7398  0.6180
14992SOL    HW246219   3.663   8.148   1.746 -1.2399 -0.1542  0.5693
14993SOL     OW46220   2.632   6.579   5.662  0.2952  0.0469 -0.0371
14993SOL    HW146221   2.708   6.571   5.720  1.0136  0.6170 -0.8830
14993SOL    HW246222   2.670   6.581   5.574 -0.6701  0.8872 -0.4421
14994SOL     OW46223   6.391   7.701   3.384  0.2866 -0.3896 -0.3175
14994SOL    HW146224   6.430   7.755   3.315 -0.6615  2.5635  1.3454
14994SOL    HW246225   6.466   7.667   3.432  0.9194 -0.9038 -1.6425
14995SOL     OW46226   3.277   5.603   8.006 -0.1728 -0.3203 -0.2670
14995SOL    HW146227   3.254   5.622   7.916  1.0674 -2.5017 -1.0697
14995SOL    HW246228   3.219   5.532   8.032 -1.5823  1.3079  1.1913
14996SOL     OW46229   5.308   8.074   3.808  0.1161  0.2397 -0.1075
14996SOL    HW146230   5.276   8.117   3.729  2.0846  0.3961 -0.8487
14996SOL    HW246231   5.358   8.141   3.854  0.8107 -0.4535  0.1673
14997SOL     OW46232   3.211   0.159   7.411 -0.1845  0.9129  0.3508
14997SOL    HW146233   3.289   0.109   7.387 -1.6345 -0.8517 -0.7845
14997SOL    HW246234   3.238   0.250   7.402  2.1711  0.3678  1.3711
14998SOL     OW46235   5.413   0.953   1.013 -0.6497  0.1978 -0.2534
14998SOL    HW146236   5.335   0.988   0.970 -0.9818  1.0466  1.0007
14998SOL    HW246237   5.407   0.858   1.000 -0.1660  0.5041 -2.9804
14999SOL     OW46238   2.390   2.965   3.382 -0.1665  0.1156 -0.0659
14999SOL    HW146239   2.331   2.892   3.399  1.3602 -0.7094  1.7566
14999SOL    HW246240   2.451   2.932   3.316  0.3566 -0.1681  0.5587
15000SOL     OW46241   2.232   2.406   3.477 -0.4453 -0.3416 -0.1110
15000SOL    HW146242   2.141   2.377   3.484 -0.6886  0.2647 -0.6958
15000SOL    HW246243   2.264   2.365   3.396  0.4670 -2.3026  1.2024
15001SOL     OW46244   1.278   6.366   3.179  0.1169  0.1028  0.6599
15001SOL    HW146245   1.317   6.448   3.208  1.8309 -0.9356  1.3478
15001SOL    HW246246   1.230   6.389   3.100  2.9198  1.2741 -0.7734
15002SOL     OW46247   5.447   5.352   0.102 -0.1627 -0.0393  0.3524
15002SOL    HW146248   5.418   5.322   0.188 -1.0206  2.8315  1.1457
15002SOL    HW246249   5.377   5.411   0.073  0.7669  0.0846 -1.7041
15003SOL     OW46250   3.415   3.308   7.744  0.1131 -0.0476  0.0819
15003SOL    HW146251   3.485   3.314   7.679  1.1781 -1.8518  1.0367
15003SOL    HW246252   3.334   3.322   7.694  1.1712  3.1074 -0.8570
15004SOL     OW46253   5.131   6.551   6.405 -0.0135 -0.0564  0.7264
15004SOL    HW146254   5.124   6.606   6.483  0.4677  1.7439 -0.4699
15004SOL    HW246255   5.216   6.573   6.367  0.3671 -1.9498  0.4561
15005SOL     OW46256   7.764   1.113   0.413  0.0700 -0.0608 -0.2636
15005SOL    HW146257   7.680   1.117   0.458  0.0023 -0.7018 -0.3209
15005SOL    HW246258   7.814   1.048   0.463  0.6028  0.4737 -0.1029
15006SOL     OW46259   4.091   1.632   1.583  0.4539 -0.3299 -0.1115
15006SOL    HW146260   4.151   1.562   1.559 -0.8908 -1.4145 -0.3956
15006SOL    HW246261   4.103   1.643   1.677 -0.8419 -2.4529  0.3461
15007SOL     OW46262   0.392   4.497   7.470 -0.2905  0.3497  0.6546
15007SOL    HW146263   0.396   4.419   7.414 -0.1270  1.2525 -0.6206
15007SOL    HW246264   0.310   4.487   7.518 -0.0913 -0.7853  0.7877
15008SOL     OW46265   0.407   0.528   2.141 -0.4495  0.2867 -0.3287
15008SOL    HW146266   0.325   0.520   2.092 -0.0705  0.8629 -1.0608
15008SOL    HW246267   0.381   0.525   2.233 -1.5124  2.5156 -0.5300
15009SOL     OW46268   7.352   7.766   5.884  0.0586  0.3943  1.1223
15009SOL    HW146269   7.370   7.673   5.873 -1.2553  0.2680 -0.1071
15009SOL    HW246270   7.408   7.793   5.956  2.2645 -0.7911 -0.1073
15010SOL     OW46271   0.518   1.078   0.910 -0.0304  0.0253  0.3426
15010SOL    HW146272   0.536   1.127   0.990 -0.5868 -0.7013  0.9164
15010SOL    HW246273   0.465   1.004   0.939 -0.1591 -0.2860 -0.6874
15011SOL     OW46274   1.526   5.988   7.976 -0.0178 -0.5000 -0.0690
15011SOL    HW146275   1.515   5.989   8.071  4.7744  2.3272  0.6625
15011SOL    HW246276   1.485   6.069   7.947  0.5334 -0.2317 -0.0993
15012SOL     OW46277   5.748   2.312   6.267 -0.1995 -0.1386  0.2358
15012SOL    HW146278   5.812   2.356   6.322 -1.0612 -0.0533  1.1898
15012SOL    HW246279   5.664   2.334   6.306 -0.6904 -2.0015  0.3089
15013SOL     OW46280   1.794   2.218   3.472  0.5577  0.2127 -0.1015
15013SOL    HW146281   1.851   2.285   3.510 -1.4527  0.7871  1.9886
15013SOL    HW246282   1.755   2.174   3.548 -0.2490 -1.5097 -1.4855
15014SOL     OW46283   0.806   2.910   7.784 -0.3139 -0.2817 -0.5407
15014SOL    HW146284   0.744   2.969   7.827  1.5678  1.3828 -0.0069
15014SOL    HW246285   0.869   2.887   7.853  0.2255 -1.1731 -1.3072
15015SOL     OW46286   2.986   3.898   3.589  0.1597  0.4181 -0.6801
15015SOL    HW146287   2.916   3.932   3.645 -0.7770 -2.3411 -0.0572
15015SOL    HW246288   2.939   3.846   3.523  1.6243 -2.8246  0.7041
15016SOL     OW46289   0.540   0.735   0.047  0.4428  0.7115  0.5504
15016SOL    HW146290   0.470   0.772  -0.007 -0.0998  0.2887  0.9549
15016SOL    HW246291   0.547   0.794   0.122 -0.6714 -0.1683  1.3799
15017SOL     OW46292   7.077   6.939   4.797 -0.0230 -0.2679 -0.0778
15017SOL    HW146293   7.132   6.862   4.782 -1.8929 -1.6946  0.1281
15017SOL    HW246294   7.119   7.008   4.747  0.4799 -1.9800 -2.0965
15018SOL     OW46295   4.625   7.055   6.677 -0.3845  0.0798 -0.1449
15018SOL    HW146296   4.608   7.148   6.696  2.8039  0.4263  1.4373
15018SOL    HW246297   4.675   7.056   6.596  2.1435 -0.0002  1.3756
15019SOL     OW46298   0.061   0.526   1.615  1.0189 -0.2166  0.0885
15019SOL    HW146299  -0.005   0.457   1.626  1.2514 -0.2655  1.2323
15019SOL    HW246300   0.114   0.497   1.540  0.2317 -0.5647 -0.3343
15020SOL     OW46301   4.283   0.515   5.128 -0.0258 -0.7182  0.5058
15020SOL    HW146302   4.218   0.537   5.195 -1.3346  1.6356 -1.4622
15020SOL    HW246303   4.279   0.420   5.121 -1.5099 -0.7959  2.1463
15021SOL     OW46304   2.200   2.538   3.182  0.0447  0.4215 -0.0995
15021SOL    HW146305   2.124   2.580   3.222  0.0976  0.6188 -0.2035
15021SOL    HW246306   2.182   2.444   3.187 -0.8289  0.5178 -1.3422
15022SOL     OW46307   2.749   4.198   7.882  0.0290  0.1159  0.3158
15022SOL    HW146308   2.681   4.246   7.836 -1.1041 -2.0513 -0.3117
15022SOL    HW246309   2.738   4.107   7.854  1.8767 -0.5936  1.7775
15023SOL     OW46310   5.544   6.541   5.023 -0.1854  0.8732 -1.0521
15023SOL    HW146311   5.509   6.630   5.020 -1.4738  0.4194 -0.0814
15023SOL    HW246312   5.471   6.485   4.996  0.2230  0.0253 -0.4544
15024SOL     OW46313   3.283   0.751   1.284  0.0011 -0.6375  0.3352
15024SOL    HW146314   3.282   0.659   1.260 -0.2394 -0.4497 -0.4225
15024SOL    HW246315   3.308   0.753   1.376 -0.5920 -1.4924  0.5191
15025SOL     OW46316   2.738   6.654   1.251  0.4415  0.6889  0.2263
15025SOL    HW146317   2.718   6.676   1.160  0.3763 -0.6151 -0.0771
15025SOL    HW246318   2.652   6.640   1.291  0.4905  0.8275  0.3779
15026SOL     OW46319   5.225   1.025   2.687  0.4273 -0.5014 -0.1719
15026SOL    HW146320   5.188   1.113   2.673  2.1230  0.1351 -0.7501
15026SOL    HW246321   5.234   1.018   2.782  0.8132  0.1715 -0.1568
15027SOL     OW46322   7.157   2.773   6.637  0.6395 -0.0917  0.3026
15027SOL    HW146323   7.224   2.722   6.682  0.2151  1.2696  2.6033
15027SOL    HW246324   7.203   2.852   6.607  0.4664  0.0309  0.3535
15028SOL     OW46325   5.218   7.151   7.299  0.4939 -0.0466  0.5452
15028SOL    HW146326   5.149   7.095   7.335  1.2082 -1.1799  0.1794
15028SOL    HW246327   5.174   7.233   7.277 -0.8005 -0.8692  0.0179
15029SOL     OW46328   6.425   3.781   4.541  0.0447 -0.9702  0.0929
15029SOL    HW146329   6.484   3.855   4.525  0.8618 -1.7275 -0.4067
15029SOL    HW246330   6.444   3.719   4.471 -1.9408 -0.8677 -0.5478
15030SOL     OW46331   4.845   0.117   2.919  0.5601  0.4470  0.2143
15030SOL    HW146332   4.830   0.172   2.842  1.6817  0.6359  0.1237
15030SOL    HW246333   4.868   0.178   2.989 -2.5337  0.4785  1.2930
15031SOL     OW46334   4.830   3.846   7.483  0.4123 -0.2656 -0.0162
15031SOL    HW146335   4.837   3.940   7.469 -0.8833 -0.2582 -0.5965
15031SOL    HW246336   4.782   3.837   7.565 -1.6252 -0.4346 -1.1987
15032SOL     OW46337   6.628   2.685   3.877  0.0777  0.4094  0.0255
15032SOL    HW146338   6.629   2.691   3.972 -1.5932  2.7211 -0.0745
15032SOL    HW246339   6.654   2.594   3.859  1.6278  0.2845  2.6048
15033SOL     OW46340   1.467   5.849   3.577 -0.9148 -0.2194  0.0828
15033SOL    HW146341   1.502   5.840   3.489  0.3984  2.1371  0.3367
15033SOL    HW246342   1.373   5.863   3.565 -0.9195 -1.0018 -0.8641
15034SOL     OW46343   3.543   6.866   4.492 -0.3846 -0.0294  0.2378
15034SOL    HW146344   3.463   6.813   4.486 -0.8422  0.5927  0.8154
15034SOL    HW246345   3.605   6.809   4.537 -0.6556 -0.3345  0.2330
15035SOL     OW46346   1.419   6.673   1.393 -0.1066 -0.2386  0.5337
15035SOL    HW146347   1.502   6.718   1.376 -0.1883  0.3719  1.7259
15035SOL    HW246348   1.437   6.581   1.374  1.2257 -0.3092  2.0322
15036SOL     OW46349   8.098   7.382   6.510  0.6897 -0.1032 -0.4200
15036SOL    HW146350   8.180   7.400   6.464  0.5981  0.7417 -0.2442
15036SOL    HW246351   8.049   7.464   6.507  0.0011 -0.4972 -0.1991
15037SOL     OW46352   3.472   4.451   4.911 -0.8241  0.4888  0.5859
15037SOL    HW146353   3.479   4.506   4.833 -0.0208  1.6953  1.5005
15037SOL    HW246354   3.403   4.388   4.889 -2.6887  2.6554 -0.0024
15038SOL     OW46355   0.149   6.544   1.695 -0.0385 -0.3606 -0.4366
15038SOL    HW146356   0.193   6.522   1.776 -2.5321 -3.7915  0.0674
15038SOL    HW246357   0.056   6.532   1.713 -0.8191  1.0964 -3.1250
15039SOL     OW46358   6.760   0.949   6.211  0.5769  0.3169 -0.3095
15039SOL    HW146359   6.809   0.886   6.157  1.1671  0.0212  0.5624
15039SOL    HW246360   6.742   0.902   6.292 -0.8633  0.5439 -0.4740
15040SOL     OW46361   7.136   3.610   0.748 -0.1222  0.7303  0.8783
15040SOL    HW146362   7.196   3.548   0.790 -0.0521 -0.3156 -0.7144
15040SOL    HW246363   7.193   3.673   0.704 -0.1307 -0.3702 -0.7921
15041SOL     OW46364   0.298   3.531   3.151  0.1424 -0.2541 -0.9452
15041SOL    HW146365   0.214   3.512   3.108 -0.6145  0.2906  0.2592
15041SOL    HW246366   0.304   3.465   3.220 -0.5140  1.2388  0.5875
15042SOL     OW46367   1.673   3.662   1.172  0.6947  0.1089 -0.0394
15042SOL    HW146368   1.594   3.708   1.144  1.2323  0.6761 -0.6083
15042SOL    HW246369   1.673   3.671   1.268 -0.3834 -0.6350  0.0507
15043SOL     OW46370   5.694   5.791   0.698 -0.2646  0.1247  0.6141
15043SOL    HW146371   5.666   5.704   0.667 -2.0717  1.0654 -0.5217
15043SOL    HW246372   5.674   5.790   0.792  1.2903 -1.2689  0.9434
15044SOL     OW46373   5.625   2.331   3.969  0.0254  0.0104  0.5992
15044SOL    HW146374   5.529   2.332   3.964 -0.0103 -0.5045  0.9876
15044SOL    HW246375   5.645   2.375   4.052  0.1525  0.6368  0.2345
15045SOL     OW46376   4.505   4.343   6.539 -0.0819  0.8156  0.3340
15045SOL    HW146377   4.548   4.374   6.619  1.5665  0.3105 -0.3495
15045SOL    HW246378   4.475   4.422   6.495  1.6465  1.2696 -0.0288
15046SOL     OW46379   7.704   3.779   4.345 -0.1013 -0.0889  0.1255
15046SOL    HW146380   7.751   3.817   4.271  1.2344 -0.4166  0.7941
15046SOL    HW246381   7.723   3.837   4.419 -1.5301  0.3055  0.2030
15047SOL     OW46382   2.300   4.619   6.077  0.1898  0.3955 -0.2369
15047SOL    HW146383   2.290   4.695   6.019  1.1065  0.2622 -0.5810
15047SOL    HW246384   2.384   4.633   6.121  0.3319 -0.3838 -0.2562
15048SOL     OW46385   4.268   0.388   5.876  0.3882  0.0761  0.0218
15048SOL    HW146386   4.249   0.295   5.889 -1.6094  0.7793  2.5659
15048SOL    HW246387   4.288   0.396   5.783 -0.4162 -2.7275 -0.4284
15049SOL     OW46388   0.629   4.370   0.127  0.3014 -0.3383 -0.6068
15049SOL    HW146389   0.696   4.417   0.076 -0.1309  1.1332  0.1570
15049SOL    HW246390   0.556   4.359   0.066 -0.2395  1.4770 -0.3300
15050SOL     OW46391   1.976   8.059   4.528 -0.8576 -0.2411 -0.1828
15050SOL    HW146392   1.901   8.016   4.568 -1.1445  0.6878  0.2879
15050SOL    HW246393   1.941   8.101   4.450 -0.7269 -0.2213 -0.2303
15051SOL     OW46394   5.592   4.678   5.348 -0.4140  0.2360 -0.5632
15051SOL    HW146395   5.514   4.712   5.390  0.4469  0.2317  1.0765
15051SOL    HW246396   5.573   4.682   5.254 -1.9524  1.2223 -0.2150
15052SOL     OW46397   3.590   2.606   4.343 -0.5046  0.6692 -0.6155
15052SOL    HW146398   3.628   2.602   4.430 -3.2612  0.8189  0.6558
15052SOL    HW246399   3.609   2.521   4.304 -1.1670 -0.2196  0.9835
15053SOL     OW46400   3.379   1.474   5.810 -0.4229 -0.3652 -0.5106
15053SOL    HW146401   3.469   1.469   5.844 -0.6917 -0.3950  0.1861
15053SOL    HW246402   3.329   1.416   5.866 -1.2149  0.9254  0.1386
15054SOL     OW46403   1.087   1.168   4.408 -0.0138 -0.2679 -0.0846
15054SOL    HW146404   1.101   1.180   4.314  1.2425  0.4763  0.1656
15054SOL    HW246405   0.994   1.153   4.418 -0.4357  1.3631 -1.3087
15055SOL     OW46406   7.337   2.892   0.283  0.1237  0.0945  0.3539
15055SOL    HW146407   7.393   2.821   0.314 -0.2687 -0.5612 -0.4310
15055SOL    HW246408   7.274   2.850   0.225  0.9117  1.3182 -1.4291
15056SOL     OW46409   3.248   4.831   0.530  0.4355 -0.8328  0.3397
15056SOL    HW146410   3.166   4.786   0.552 -0.4484  0.1236 -0.9263
15056SOL    HW246411   3.314   4.761   0.531 -0.4751 -1.7074  0.8900
15057SOL     OW46412   1.119   1.129   1.699  0.3097  0.1102 -0.3528
15057SOL    HW146413   1.089   1.039   1.705  3.3402 -0.8829  1.2181
15057SOL    HW246414   1.085   1.171   1.778  1.4299 -0.5096  0.4765
15058SOL     OW46415   2.212   7.882   4.374 -0.2689  0.1342 -0.0345
15058SOL    HW146416   2.210   7.971   4.337 -0.3757  0.4278  0.6795
15058SOL    HW246417   2.239   7.894   4.465 -1.7256 -0.4401  0.4817
15059SOL     OW46418   1.689   6.691   7.931  0.2188  0.3623 -0.0612
15059SOL    HW146419   1.772   6.714   7.889  1.0625 -1.7401  0.3917
15059SOL    HW246420   1.693   6.731   8.017  0.7528  0.2896 -0.0528
15060SOL     OW46421   0.856   6.884   6.379  0.0210 -0.4344 -0.0128
15060SOL    HW146422   0.832   6.793   6.396  0.3376 -0.3610  0.8896
15060SOL    HW246423   0.877   6.887   6.286  0.3645 -1.3645  0.0316
15061SOL     OW46424   4.685   5.779   3.300 -0.8806  0.2762  0.2282
15061SOL    HW146425   4.594   5.810   3.307 -0.9385  0.1885 -0.1236
15061SOL    HW246426   4.735   5.859   3.284 -1.0550  0.1683 -0.8674
15062SOL     OW46427   1.403   5.438   4.117 -0.7931  0.2552  0.1811
15062SOL    HW146428   1.397   5.509   4.182 -3.2228 -1.3175  1.7937
15062SOL    HW246429   1.464   5.376   4.156 -2.3199 -0.7306  1.0696
15063SOL     OW46430   0.217   0.516   3.350 -0.6793 -0.4525 -0.0048
15063SOL    HW146431   0.153   0.467   3.400 -0.9140  0.4384  0.5888
15063SOL    HW246432   0.259   0.574   3.414 -2.8118  2.6018 -1.2102
15064SOL     OW46433   4.477   6.840   2.588  0.2100 -0.1511  0.5360
15064SOL    HW146434   4.454   6.930   2.608 -2.9637 -0.7695  0.0182
15064SOL    HW246435   4.551   6.846   2.528 -0.7655  2.1410 -0.4721
15065SOL     OW46436   1.737   3.095   3.183 -0.2232 -0.9431 -1.1162
15065SOL    HW146437   1.712   3.169   3.239 -0.0989 -2.1814  0.6166
15065SOL    HW246438   1.831   3.106   3.169  0.1304 -1.6913  0.5567
15066SOL     OW46439   1.525   6.568   3.900 -0.4841 -0.5853  0.6210
15066SOL    HW146440   1.460   6.532   3.960  1.0044 -0.6231  2.2267
15066SOL    HW246441   1.532   6.503   3.830  0.3049 -2.1918  2.1751
15067SOL     OW46442   2.947   6.620   1.440  0.2776  0.2334  0.0189
15067SOL    HW146443   2.893   6.625   1.361 -1.9015  0.8257  1.4820
15067SOL    HW246444   3.030   6.583   1.411 -1.3324 -1.8456 -2.1020
15068SOL     OW46445   4.623   5.340   2.522 -0.8780  0.6625 -0.0288
15068SOL    HW146446   4.581   5.407   2.468  2.0858  2.1481 -0.6410
15068SOL    HW246447   4.717   5.359   2.514 -0.0564 -2.6360  1.0577
15069SOL     OW46448   4.131   2.564   3.648 -0.3445  0.1682 -0.9184
15069SOL    HW146449   4.164   2.522   3.569 -1.1529  0.6014 -1.4826
15069SOL    HW246450   4.153   2.503   3.718 -0.8694 -0.8640 -1.6464
15070SOL     OW46451   6.581   2.089   5.024 -0.2897  0.2683 -0.0979
15070SOL    HW146452   6.513   2.082   4.957 -0.6239  0.7480  0.1865
15070SOL    HW246453   6.621   2.002   5.026  0.6009  0.6203 -1.8380
15071SOL     OW46454   4.247   6.404   2.441 -0.1084 -0.0106 -0.0263
15071SOL    HW146455   4.162   6.448   2.444 -0.2700 -0.3780  1.1672
15071SOL    HW246456   4.310   6.475   2.435 -0.4018  0.3764  1.2003
15072SOL     OW46457   0.117   2.707   0.511 -0.7277  0.0246 -0.0829
15072SOL    HW146458   0.035   2.753   0.527 -0.5300 -0.2247  1.7487
15072SOL    HW246459   0.141   2.670   0.596  0.9221 -0.4895 -0.7484
15073SOL     OW46460   0.464   6.056   7.447  0.1495  0.2042  0.1438
15073SOL    HW146461   0.468   6.129   7.509 -1.8695  1.0607 -0.6681
15073SOL    HW246462   0.459   6.099   7.361  2.6856 -0.9511 -0.6180
15074SOL     OW46463   0.002   6.250   3.375 -0.3606  0.0830 -0.4400
15074SOL    HW146464   0.072   6.244   3.440 -1.0709  1.6108  0.4817
15074SOL    HW246465   0.018   6.175   3.316  1.7573  0.1487  0.0054
15075SOL     OW46466   1.788   0.742   7.787  0.6758 -0.5265 -0.6650
15075SOL    HW146467   1.757   0.655   7.813  1.1378 -0.4417  0.1828
15075SOL    HW246468   1.852   0.766   7.854  0.8650  0.2883 -1.1285
15076SOL     OW46469   7.198   1.272   5.419  0.0274 -0.8157 -0.0448
15076SOL    HW146470   7.256   1.302   5.488 -2.0614 -1.8943  2.2480
15076SOL    HW246471   7.130   1.339   5.413  0.8537 -0.0990 -1.9622
15077SOL     OW46472   8.021   4.460   4.170  0.6527  0.0618 -0.0220
15077SOL    HW146473   7.986   4.466   4.081 -1.1099  0.6445  0.6869
15077SOL    HW246474   8.071   4.378   4.171 -0.7876 -0.8542 -1.0514
15078SOL     OW46475   0.792   4.137   1.349  0.3497  0.2678 -0.0224
15078SOL    HW146476   0.728   4.127   1.278  1.3807 -0.0715 -0.9239
15078SOL    HW246477   0.739   4.141   1.429 -0.8905  1.5255 -0.8786
15079SOL     OW46478   0.236   7.714   4.749 -0.1735 -0.1767  0.1264
15079SOL    HW146479   0.216   7.717   4.842  1.0659  0.0723  0.3912
15079SOL    HW246480   0.255   7.805   4.726 -0.0142 -0.3070 -0.2600
15080SOL     OW46481   5.682   5.376   6.359  0.0980 -0.0748 -0.3064
15080SOL    HW146482   5.705   5.335   6.443  2.0038 -1.7245 -1.5897
15080SOL    HW246483   5.611   5.322   6.325  0.6242 -0.5661 -0.6342
15081SOL     OW46484   0.589   1.850   4.719 -0.0335 -0.5401  0.0521
15081SOL    HW146485   0.627   1.792   4.653  1.1299 -0.3757  0.5627
15081SOL    HW246486   0.573   1.793   4.794 -1.4782 -0.7537 -0.4122
15082SOL     OW46487   5.626   6.035   7.916 -0.4720  0.4389 -0.2652
15082SOL    HW146488   5.668   5.991   7.842 -0.9002  1.4152 -1.0920
15082SOL    HW246489   5.538   5.998   7.919  0.0678 -0.8193  0.8041
15083SOL     OW46490   2.006   1.365   2.663  0.7699 -0.1346 -0.2824
15083SOL    HW146491   2.039   1.367   2.752 -0.1334  0.1265  0.0548
15083SOL    HW246492   1.950   1.288   2.659  1.1352 -0.3813 -0.7469
15084SOL     OW46493   2.033   1.002   1.630  0.4563 -0.5036  0.5991
15084SOL    HW146494   2.033   0.906   1.631 -0.4409 -0.5166 -0.5040
15084SOL    HW246495   2.046   1.025   1.538 -1.6837  0.4263  0.5187
15085SOL     OW46496   3.992   0.862   5.044  1.0441  0.1503  0.3497
15085SOL    HW146497   3.978   0.797   5.113  0.0362  2.2695  2.1807
15085SOL    HW246498   4.087   0.863   5.031  1.2254 -0.4387  1.5629
15086SOL     OW46499   5.171   8.074   6.677  0.6206  0.2981 -0.2458
15086SOL    HW146500   5.117   8.031   6.612  0.9282 -0.8255  0.2302
15086SOL    HW246501   5.151   8.167   6.668 -1.2380 -0.0780 -0.2138
15087SOL     OW46502   3.645   3.339   7.180 -0.0869  0.2633 -0.5792
15087SOL    HW146503   3.647   3.329   7.275 -0.0218 -1.9786 -0.8014
15087SOL    HW246504   3.556   3.368   7.160  0.3230  2.1792  0.2738
15088SOL     OW46505   2.509   3.842   6.698 -0.0337  0.0855 -0.0023
15088SOL    HW146506   2.435   3.849   6.759 -2.1970 -1.8018 -2.3222
15088SOL    HW246507   2.551   3.928   6.702 -1.9989  1.0131  1.8135
15089SOL     OW46508   1.280   6.202   5.692 -0.1499 -0.5924  0.4205
15089SOL    HW146509   1.243   6.187   5.780 -0.1222  0.7709  0.6814
15089SOL    HW246510   1.225   6.271   5.655  0.8112 -0.0576 -0.0258
15090SOL     OW46511   4.435   7.832   5.497 -0.1230  0.0050  0.3753
15090SOL    HW146512   4.497   7.762   5.474 -0.7402 -0.1805 -0.7275
15090SOL    HW246513   4.377   7.792   5.562  0.7548  0.1125  1.2537
15091SOL     OW46514   7.923   1.206   3.338 -0.3207 -0.5692 -0.4881
15091SOL    HW146515   7.839   1.230   3.377  0.1686 -0.1574  0.3229
15091SOL    HW246516   7.932   1.264   3.262 -0.2915  0.1069  0.0290
15092SOL     OW46517   3.520   0.531   2.699  0.4040  0.7610  0.4395
15092SOL    HW146518   3.492   0.609   2.746  1.2921  0.5255  1.3785
15092SOL    HW246519   3.579   0.485   2.760 -0.3975 -0.8340  0.0529
15093SOL     OW46520   7.313   4.978   1.499 -0.5512  0.0447  0.5320
15093SOL    HW146521   7.335   4.962   1.591 -0.6863  0.4089  0.6298
15093SOL    HW246522   7.396   5.004   1.459 -0.5572  0.2052  0.6234
15094SOL     OW46523   7.125   5.305   7.265  0.1577 -0.0693  0.4277
15094SOL    HW146524   7.209   5.294   7.221  0.8354  1.0894  1.4001
15094SOL    HW246525   7.091   5.389   7.234 -0.4265 -0.3091  0.3976
15095SOL     OW46526   7.026   6.964   7.523  0.1036 -0.0662 -0.2611
15095SOL    HW146527   7.003   6.974   7.430 -1.5448  0.7522  0.2043
15095SOL    HW246528   7.065   7.048   7.547  2.9298 -1.1629 -0.8289
15096SOL     OW46529   1.279   1.083   2.660  0.2554  0.1722  0.3437
15096SOL    HW146530   1.241   1.052   2.578  2.6884 -1.2771 -0.2925
15096SOL    HW246531   1.204   1.088   2.720 -1.4250  0.4566 -1.6998
15097SOL     OW46532   7.584   5.844   8.214 -0.3418  0.0032 -0.6138
15097SOL    HW146533   7.542   5.773   8.263  0.2202  0.6802  0.9066
15097SOL    HW246534   7.623   5.801   8.138  0.6242 -1.4518  0.6672
15098SOL     OW46535   0.030   4.947   8.182 -0.1982  0.4453 -0.3982
15098SOL    HW146536   0.108   4.891   8.181 -1.7261 -1.8443  1.8094
15098SOL    HW246537  -0.042   4.889   8.156 -1.3549  2.2329 -1.2672
15099SOL     OW46538   7.774   7.859   3.478  0.4680  0.1975  0.1235
15099SOL    HW146539   7.779   7.772   3.440  1.7495 -0.3335  1.4477
15099SOL    HW246540   7.689   7.893   3.452  0.3921 -1.0413 -1.2628
15100SOL     OW46541   0.360   0.273   3.278 -0.3162  0.6374 -0.4145
15100SOL    HW146542   0.269   0.249   3.291 -0.0941 -0.6216 -1.1597
15100SOL    HW246543   0.361   0.368   3.288 -1.5719  0.5843  0.3329
15101SOL     OW46544   7.021   5.639   6.603  0.2243 -0.0012 -0.8298
15101SOL    HW146545   6.955   5.695   6.643  0.7584  1.9804 -2.6017
15101SOL    HW246546   6.971   5.578   6.549 -0.2722  0.2017 -0.5994
15102SOL     OW46547   0.780   6.921   5.481 -0.1313  0.4481  0.5795
15102SOL    HW146548   0.716   6.935   5.411  0.2976 -1.1433 -0.1499
15102SOL    HW246549   0.857   6.888   5.436  0.6492  0.8025  1.6458
15103SOL     OW46550   5.050   1.362   4.103  0.1568 -0.3701 -0.6486
15103SOL    HW146551   5.124   1.421   4.115  1.2106 -2.2450  2.5260
15103SOL    HW246552   4.974   1.414   4.129  0.9652 -0.0745  1.1986
15104SOL     OW46553   6.576   5.214   2.601 -0.0928 -0.0193 -0.2574
15104SOL    HW146554   6.666   5.188   2.619  0.0945 -0.5790 -1.9014
15104SOL    HW246555   6.565   5.298   2.646  1.2713  0.0757 -0.1005
15105SOL     OW46556   3.915   2.734   0.143 -0.3129  0.4236 -0.7197
15105SOL    HW146557   3.897   2.813   0.093 -1.3863  1.5315  1.3715
15105SOL    HW246558   3.893   2.756   0.233 -1.1383 -2.4004 -0.1602
15106SOL     OW46559   7.587   4.281   5.347 -0.2002  0.4245 -0.0348
15106SOL    HW146560   7.585   4.339   5.271  1.7492  0.4761 -0.0506
15106SOL    HW246561   7.561   4.196   5.313  0.4811  0.4868 -0.7092
15107SOL     OW46562   2.660   3.872   7.337 -0.1954  0.0543 -0.0711
15107SOL    HW146563   2.601   3.897   7.266 -0.6239  0.0546  0.2791
15107SOL    HW246564   2.642   3.935   7.406  1.8786  1.4846 -0.8141
15108SOL     OW46565   0.979   2.516   4.550  0.7858 -0.1662 -0.0038
15108SOL    HW146566   0.965   2.462   4.472  0.1800 -0.6541  0.4383
15108SOL    HW246567   1.051   2.473   4.596 -1.0971 -1.8521  1.4434
15109SOL     OW46568   3.205   7.251   6.923  0.1153 -0.1167  0.0617
15109SOL    HW146569   3.155   7.332   6.931 -1.2761 -0.8530 -1.0060
15109SOL    HW246570   3.251   7.243   7.007  0.0058  1.5936  0.3001
15110SOL     OW46571   3.203   5.895   5.596  0.4209  0.2799 -0.2344
15110SOL    HW146572   3.206   5.857   5.508 -3.3517 -1.1653  0.1859
15110SOL    HW246573   3.211   5.820   5.655  1.3188  1.0670  0.6535
15111SOL     OW46574   7.130   3.626   4.830 -0.0176  0.2657 -0.4154
15111SOL    HW146575   7.225   3.634   4.836  0.0421 -0.0237 -0.8692
15111SOL    HW246576   7.115   3.532   4.819 -0.3591  0.3049 -0.2917
15112SOL     OW46577   2.852   3.274   2.561 -0.0188 -0.0839  0.0248
15112SOL    HW146578   2.865   3.289   2.655  0.5372 -1.5978  0.2011
15112SOL    HW246579   2.917   3.208   2.538  0.3082  0.7595 -1.5802
15113SOL     OW46580   6.254   8.247   8.205  0.4499  0.8076  0.1776
15113SOL    HW146581   6.301   8.164   8.204  1.2043  1.2043 -2.8250
15113SOL    HW246582   6.323   8.313   8.195 -0.3073  1.7049  0.7752
15114SOL     OW46583   3.518   8.039   2.094  0.3200 -0.4754  0.4817
15114SOL    HW146584   3.577   8.084   2.155 -1.4634  0.4674  1.5508
15114SOL    HW246585   3.550   8.063   2.007  1.2318  0.3880  1.0489
15115SOL     OW46586   1.703   2.266   2.636  0.3098 -0.5841  0.0779
15115SOL    HW146587   1.725   2.243   2.546  1.6012 -1.1542  0.5182
15115SOL    HW246588   1.609   2.251   2.643  0.1399 -0.1784 -1.2729
15116SOL     OW46589   6.023   6.556   6.873 -0.0309  0.1874 -0.7960
15116SOL    HW146590   6.024   6.461   6.858  0.0652  0.3237 -1.6372
15116SOL    HW246591   5.963   6.591   6.807  0.0732  0.7355 -0.6035
15117SOL     OW46592   3.629   2.456   0.487  0.1521  0.3427  0.4403
15117SOL    HW146593   3.596   2.396   0.553  0.6237  0.5375  0.8522
15117SOL    HW246594   3.634   2.403   0.407  1.2796 -0.3792  0.9643
15118SOL     OW46595   7.405   0.471   1.429 -0.2436 -0.0929  0.5344
15118SOL    HW146596   7.313   0.475   1.400 -0.5754  0.3412  1.6238
15118SOL    HW246597   7.451   0.530   1.370 -0.6119 -0.5590 -0.2265
15119SOL     OW46598   2.517   2.885   5.572 -0.0845  0.6448 -0.0741
15119SOL    HW146599   2.485   2.974   5.558  0.8233  1.0016  0.0554
15119SOL    HW246600   2.488   2.863   5.661 -0.5810  0.6972 -0.2249
15120SOL     OW46601   4.239   4.091   4.411  0.0419  0.1458  0.0509
15120SOL    HW146602   4.178   4.153   4.451 -1.1990 -0.1741 -1.2866
15120SOL    HW246603   4.195   4.062   4.331  0.8205 -2.0660  0.3666
15121SOL     OW46604   1.968   1.473   4.780  0.6618  0.2027  0.1699
15121SOL    HW146605   2.005   1.393   4.816  0.1723 -0.1303 -0.0668
15121SOL    HW246606   1.954   1.454   4.687 -0.2696  0.2613  0.2889
15122SOL     OW46607   0.555   0.330   2.853 -1.1177  0.2134  0.4946
15122SOL    HW146608   0.518   0.265   2.913  0.1739 -0.0757  0.9952
15122SOL    HW246609   0.599   0.278   2.786  1.1825  0.5440  1.6952
15123SOL     OW46610   1.727   1.211   1.760 -0.2778  0.6006  0.1805
15123SOL    HW146611   1.783   1.242   1.831 -1.2334 -1.1338  1.7349
15123SOL    HW246612   1.741   1.116   1.759 -0.4243  0.5888 -1.8292
15124SOL     OW46613   7.632   0.528   0.827 -0.0878  0.4595 -0.0421
15124SOL    HW146614   7.575   0.494   0.758 -0.3814  0.8420  0.0091
15124SOL    HW246615   7.704   0.569   0.780 -0.4709  1.0378 -0.1314
15125SOL     OW46616   6.494   4.832   6.215  0.5220  0.2939 -0.6950
15125SOL    HW146617   6.477   4.904   6.155 -0.2685  0.8400  0.1786
15125SOL    HW246618   6.569   4.786   6.176  0.7239  1.2909 -1.5116
15126SOL     OW46619   6.747   2.556   6.730 -0.0244 -0.4061 -0.0243
15126SOL    HW146620   6.734   2.616   6.804 -1.0808  0.4017 -0.8422
15126SOL    HW246621   6.797   2.607   6.666 -0.3512 -0.6185 -0.4513
15127SOL     OW46622   0.199   5.881   0.431  0.5213  0.3514  0.2852
15127SOL    HW146623   0.157   5.830   0.501  0.5700  0.7065  0.5770
15127SOL    HW246624   0.290   5.890   0.460  0.8197 -0.4805 -0.3808
15128SOL     OW46625   6.384   5.759   4.158  0.5267  0.2882  0.0505
15128SOL    HW146626   6.333   5.754   4.077  0.3974 -1.4973  0.2260
15128SOL    HW246627   6.395   5.853   4.174 -2.3558  0.6995 -0.1995
15129SOL     OW46628   7.411   3.422   2.688 -0.2488  0.2836 -0.0382
15129SOL    HW146629   7.475   3.416   2.759  0.1364 -0.3505 -0.4367
15129SOL    HW246630   7.327   3.400   2.729 -0.1632  0.7803  0.4101
15130SOL     OW46631   4.471   0.332   4.441  0.3569  0.2660 -0.0484
15130SOL    HW146632   4.541   0.270   4.463  1.0065  1.1857  0.5415
15130SOL    HW246633   4.411   0.327   4.516  0.4011  0.3373 -0.0077
15131SOL     OW46634   3.997   2.354   7.152  0.0568 -0.1185  0.4332
15131SOL    HW146635   3.944   2.292   7.203 -1.4717 -1.0456 -2.1875
15131SOL    HW246636   4.077   2.365   7.204 -2.0871  0.3074  3.8666
15132SOL     OW46637   4.680   6.742   5.200  0.1115 -0.1880  0.3182
15132SOL    HW146638   4.595   6.706   5.228  0.4837  0.3251  2.1939
15132SOL    HW246639   4.737   6.666   5.194 -0.1808 -0.4004  0.1877
15133SOL     OW46640   1.545   5.517   5.552  0.3287 -0.1782 -0.6388
15133SOL    HW146641   1.612   5.514   5.621 -1.0523  0.0371  0.7210
15133SOL    HW246642   1.595   5.528   5.471  1.9768 -0.5292  0.3121
15134SOL     OW46643   2.443   3.312   2.983 -0.0220 -0.3199 -0.4386
15134SOL    HW146644   2.401   3.398   2.989  1.0876  0.1693  0.4873
15134SOL    HW246645   2.379   3.251   3.019  0.2239  0.4855  1.4452
15135SOL     OW46646   1.250   4.309   5.181  0.5144  0.1246  0.0180
15135SOL    HW146647   1.285   4.348   5.101 -2.0768  0.6434 -0.8849
15135SOL    HW246648   1.242   4.216   5.162  0.6791  0.1143 -0.0075
15136SOL     OW46649   2.341   2.628   8.235 -0.0115 -0.5909 -0.4459
15136SOL    HW146650   2.398   2.688   8.187  0.4569 -0.5905  0.1080
15136SOL    HW246651   2.369   2.636   8.326 -0.6572 -0.8619 -0.2240
15137SOL     OW46652   0.045   6.664   2.905 -0.1979  0.4706  0.0026
15137SOL    HW146653  -0.050   6.671   2.897 -0.4470 -0.9084  1.5412
15137SOL    HW246654   0.077   6.675   2.815 -1.9702 -1.4286 -0.9150
15138SOL     OW46655   6.292   4.010   2.748  0.3418 -0.0490 -0.7586
15138SOL    HW146656   6.314   4.049   2.832  1.0270 -0.4720 -0.7321
15138SOL    HW246657   6.340   3.927   2.747 -1.0080 -0.8325 -0.8587
15139SOL     OW46658   4.292   7.645   5.616  0.0788  0.0080 -0.3007
15139SOL    HW146659   4.349   7.574   5.591 -0.5954 -0.4531 -0.5461
15139SOL    HW246660   4.207   7.622   5.578 -1.1284 -1.0087  2.8533
15140SOL     OW46661   4.373   0.727   5.862 -0.5848  0.6362  0.2702
15140SOL    HW146662   4.410   0.728   5.950 -0.1151  0.1945  0.0776
15140SOL    HW246663   4.303   0.792   5.865 -1.5672 -0.4471  1.3939
15141SOL     OW46664   8.188   5.197   2.512  0.4327  0.2539  0.1633
15141SOL    HW146665   8.188   5.129   2.579  0.1868  0.2628  0.1739
15141SOL    HW246666   8.240   5.268   2.550  0.9698 -0.0644  0.0139
15142SOL     OW46667   2.291   1.778   4.572  0.1890 -0.1479  0.0199
15142SOL    HW146668   2.365   1.815   4.523  0.2819 -0.4756 -0.0862
15142SOL    HW246669   2.253   1.853   4.618 -0.1171  0.2275 -0.8346
15143SOL     OW46670   5.833   0.353   6.924  0.0552 -0.0198  0.6009
15143SOL    HW146671   5.883   0.321   6.849  0.7441  0.7841  0.7195
15143SOL    HW246672   5.860   0.444   6.935 -1.3120  0.3825  0.7661
15144SOL     OW46673   2.054   1.309   1.379 -0.5559  0.1602 -0.2454
15144SOL    HW146674   1.977   1.336   1.429 -0.6998  1.1679 -0.9941
15144SOL    HW246675   2.129   1.337   1.432 -0.7040 -0.3280  0.2226
15145SOL     OW46676   3.401   2.585   2.774  0.1274  0.4678 -0.4395
15145SOL    HW146677   3.467   2.619   2.715  1.3369 -1.5607 -0.3110
15145SOL    HW246678   3.389   2.653   2.839  3.1209  0.3237  0.3237
15146SOL     OW46679   7.221   7.345   6.711  0.0493 -0.0367  0.0558
15146SOL    HW146680   7.286   7.397   6.759 -0.2201 -0.4760  0.9089
15146SOL    HW246681   7.254   7.255   6.715  0.2315 -0.0108 -0.9355
15147SOL     OW46682   1.039   4.018   4.754 -0.4830  0.2174 -0.1862
15147SOL    HW146683   1.048   4.112   4.768 -1.6200  0.4758 -1.0566
15147SOL    HW246684   1.123   3.990   4.718 -0.7620  1.2603 -1.6862
15148SOL     OW46685   6.969   4.661   3.311 -0.0146 -0.3564 -0.3365
15148SOL    HW146686   6.906   4.722   3.273  0.5983  1.5621  1.6148
15148SOL    HW246687   7.054   4.703   3.297  0.4643 -1.0235  0.5600
15149SOL     OW46688   4.182   3.170   1.828 -0.4407 -0.3235  0.0497
15149SOL    HW146689   4.186   3.248   1.772  2.5277 -0.8503 -0.5320
15149SOL    HW246690   4.227   3.103   1.778  0.6786 -1.3020  2.3357
15150SOL     OW46691   2.930   5.680   7.291  0.4655 -0.1872  0.4578
15150SOL    HW146692   2.845   5.723   7.291  1.2725  1.4346 -1.1132
15150SOL    HW246693   2.918   5.603   7.348 -2.1725 -0.2776 -0.1842
15151SOL     OW46694   2.889   7.086   7.152  0.5151  0.3466  0.3357
15151SOL    HW146695   2.847   7.152   7.097  0.7282  0.0868 -0.1478
15151SOL    HW246696   2.921   7.020   7.090 -0.5556 -0.7059  0.8906
15152SOL     OW46697   3.576   6.750   4.024  0.1805  0.5117  0.0154
15152SOL    HW146698   3.668   6.759   4.047  0.3030  1.5304 -0.8312
15152SOL    HW246699   3.543   6.681   4.081  0.9186  1.7058  1.9158
15153SOL     OW46700   6.923   3.266   3.913  0.2444 -0.2332 -0.5312
15153SOL    HW146701   6.860   3.215   3.964 -0.6621  1.7089  0.3207
15153SOL    HW246702   7.008   3.249   3.954 -0.0276 -1.1051 -0.3165
15154SOL     OW46703   2.315   7.701   2.672  0.3892  0.4645  0.4049
15154SOL    HW146704   2.330   7.621   2.622 -1.7288 -0.5112  1.2936
15154SOL    HW246705   2.315   7.673   2.763  0.7284  1.6768  0.7919
15155SOL     OW46706   8.199   1.120   0.062  0.0755  0.2143 -0.1747
15155SOL    HW146707   8.213   1.041   0.114 -0.7989 -0.2185 -0.5957
15155SOL    HW246708   8.174   1.186   0.127  0.4805  0.0667  0.1359
15156SOL     OW46709   1.985   0.428   2.971 -0.0049 -0.0324  0.6374
15156SOL    HW146710   2.052   0.368   3.003 -0.6012 -0.3597  1.2807
15156SOL    HW246711   1.922   0.435   3.043  0.4038  1.8864  0.8300
15157SOL     OW46712   7.079   6.110   1.106 -0.1929 -0.2652 -0.1389
15157SOL    HW146713   7.040   6.089   1.021 -2.8451 -1.1344  1.2505
15157SOL    HW246714   7.056   6.036   1.162  2.1687 -0.0708  1.1820
15158SOL     OW46715   3.441   2.318   0.921 -0.6352  0.6214 -0.6837
15158SOL    HW146716   3.412   2.275   1.002 -0.5375  0.8852 -0.5066
15158SOL    HW246717   3.438   2.412   0.942 -0.0580  0.6667 -0.7976
15159SOL     OW46718   3.396   1.701   4.991 -0.1060 -1.0451  0.2101
15159SOL    HW146719   3.482   1.731   5.020  0.3791 -1.9437 -0.2683
15159SOL    HW246720   3.334   1.758   5.037  0.7945  1.8892 -2.0153
15160SOL     OW46721   0.678   6.117   0.317 -0.0394 -0.0543  0.0201
15160SOL    HW146722   0.737   6.117   0.393  1.4559  1.6814 -1.1005
15160SOL    HW246723   0.716   6.052   0.257 -1.1033 -1.2734  0.6453
15161SOL     OW46724   4.089   0.194   3.609  0.1866 -0.6818  0.2137
15161SOL    HW146725   4.062   0.276   3.652 -3.8134 -1.2511 -0.9863
15161SOL    HW246726   4.158   0.221   3.548 -1.0575  1.8376 -0.1633
15162SOL     OW46727   6.906   4.804   4.212  0.4226  0.2053 -0.6004
15162SOL    HW146728   6.871   4.863   4.144  0.5280  0.7992 -0.1477
15162SOL    HW246729   6.842   4.734   4.218 -0.1851  0.7655 -0.4847
15163SOL     OW46730   7.255   1.094   3.252  0.3771 -0.0079  0.2529
15163SOL    HW146731   7.306   1.109   3.172  0.0203  1.2191  0.2523
15163SOL    HW246732   7.277   1.004   3.277  0.4173 -0.4496 -1.2740
15164SOL     OW46733   1.417   0.161   3.001 -0.0375  0.7405  0.2306
15164SOL    HW146734   1.406   0.068   2.982 -1.1774  0.8264  0.4309
15164SOL    HW246735   1.412   0.166   3.096 -1.5512  1.1934  0.1346
15165SOL     OW46736   3.259   3.672   3.107  0.1669  0.0643 -0.6081
15165SOL    HW146737   3.221   3.713   3.030 -0.4465  0.8845  0.1357
15165SOL    HW246738   3.337   3.627   3.073 -0.7535 -0.5991 -1.9093
15166SOL     OW46739   4.599   0.896   1.907  0.1195 -0.3102  0.4648
15166SOL    HW146740   4.671   0.891   1.970  0.9640 -0.8526 -0.5137
15166SOL    HW246741   4.572   0.805   1.894  1.2452 -0.4088 -1.3874
15167SOL     OW46742   7.292   6.661   3.293 -0.2067  0.1652 -0.3456
15167SOL    HW146743   7.369   6.629   3.246  0.1094  0.7092 -0.2073
15167SOL    HW246744   7.238   6.702   3.225 -0.0924  0.3105 -0.3487
15168SOL     OW46745   6.738   6.696   8.186 -0.2210 -0.2355  0.1802
15168SOL    HW146746   6.803   6.749   8.139  0.5468 -0.0705  1.4295
15168SOL    HW246747   6.654   6.732   8.158  0.2820  1.1702  0.4496
15169SOL     OW46748   1.572   7.137   2.574 -0.4269  0.2997 -0.0605
15169SOL    HW146749   1.612   7.168   2.493 -0.8863  1.9277  0.3032
15169SOL    HW246750   1.645   7.130   2.635 -0.2467  0.2716 -0.2797
15170SOL     OW46751   0.956   7.675   2.350 -0.3102 -0.5613  0.1159
15170SOL    HW146752   0.937   7.746   2.410 -0.8866 -0.2797 -0.3920
15170SOL    HW246753   0.870   7.643   2.323 -0.0554 -1.0218 -0.1607
15171SOL     OW46754   7.828   7.730   0.674 -0.6896  0.2701 -0.1963
15171SOL    HW146755   7.889   7.680   0.620 -0.2993  0.6539 -0.1185
15171SOL    HW246756   7.758   7.669   0.695 -0.2922 -0.1971 -0.2251
15172SOL     OW46757   1.209   4.701   3.702  0.3217 -0.4837 -0.0453
15172SOL    HW146758   1.135   4.661   3.656 -1.3757  1.6955  0.7177
15172SOL    HW246759   1.277   4.711   3.635 -1.2084  0.3405 -1.5047
15173SOL     OW46760   8.279   5.592   1.576 -0.2349 -0.2325  0.0198
15173SOL    HW146761   8.374   5.587   1.570 -0.4021 -0.8406 -2.3681
15173SOL    HW246762   8.257   5.535   1.651  1.3576  1.1715  1.5965
15174SOL     OW46763   5.429   4.521   1.180  0.1218 -0.3263 -0.0434
15174SOL    HW146764   5.518   4.552   1.197 -0.1117 -0.1702  0.8970
15174SOL    HW246765   5.437   4.467   1.101  1.1883 -1.0178  0.5357
15175SOL     OW46766   1.669   7.322   6.886 -0.0424 -0.0988  0.3808
15175SOL    HW146767   1.610   7.274   6.828 -0.5987 -0.0185  0.8785
15175SOL    HW246768   1.745   7.263   6.896  0.4063  0.2159 -1.0349
15176SOL     OW46769   4.257   5.232   0.573  0.2702  0.7336 -0.0561
15176SOL    HW146770   4.199   5.239   0.497  1.3549  0.5047 -0.9136
15176SOL    HW246771   4.200   5.246   0.648 -0.9693  0.1674 -0.8747
15177SOL     OW46772   4.168   3.044   7.755  0.0114  0.3839 -0.3215
15177SOL    HW146773   4.157   3.100   7.677  0.8790 -0.7143 -1.2370
15177SOL    HW246774   4.149   2.956   7.724  0.1299 -0.0379  0.7847
15178SOL     OW46775   4.516   7.410   2.688 -0.3358  0.3792  0.1153
15178SOL    HW146776   4.599   7.395   2.643 -0.6956  0.8596 -0.7179
15178SOL    HW246777   4.451   7.362   2.636 -0.9694  2.0628 -0.6903
15179SOL     OW46778   8.140   3.996   5.560 -0.6796  0.6886  0.2712
15179SOL    HW146779   8.169   4.085   5.580  5.4956 -1.4208  1.8345
15179SOL    HW246780   8.148   3.989   5.465  1.5711  1.0415  0.4021
15180SOL     OW46781   0.875   7.156   6.502  0.2393 -0.9435  0.0266
15180SOL    HW146782   0.871   7.065   6.473  0.0611 -1.0977  0.5458
15180SOL    HW246783   0.794   7.170   6.551 -0.6598  0.0520 -1.6807
15181SOL     OW46784   8.136   5.533   5.901 -0.1115  0.2018  0.0253
15181SOL    HW146785   8.092   5.557   5.819 -0.5752 -0.1492  0.1672
15181SOL    HW246786   8.145   5.438   5.897  0.5910  0.2625  0.0254
15182SOL     OW46787   4.563   3.272   0.105 -0.3078  0.0250 -0.3222
15182SOL    HW146788   4.507   3.220   0.163  1.4222 -1.3236  0.1675
15182SOL    HW246789   4.573   3.218   0.027  2.7857 -1.1280  0.8178
15183SOL     OW46790   1.505   7.744   6.368 -0.0246 -0.0991  0.1371
15183SOL    HW146791   1.547   7.658   6.359 -0.6696 -0.2336 -2.0231
15183SOL    HW246792   1.439   7.731   6.437  0.6897 -1.0110  0.6601
15184SOL     OW46793   2.697   4.199   2.529 -0.3210 -0.1994  0.3933
15184SOL    HW146794   2.718   4.197   2.623  0.1070  0.6261  0.3199
15184SOL    HW246795   2.684   4.107   2.506  0.8867 -0.5300  0.9742
15185SOL     OW46796   1.929   3.277   2.812  0.2688  0.4685  0.1447
15185SOL    HW146797   1.953   3.364   2.781  1.9346  0.4023  1.1554
15185SOL    HW246798   1.926   3.286   2.907  0.8463 -0.6649  0.2791
15186SOL     OW46799   8.093   5.963   3.614  0.6512  0.4478 -0.2849
15186SOL    HW146800   8.085   6.057   3.602 -2.3479  0.2723 -0.0889
15186SOL    HW246801   8.065   5.948   3.704  1.0774 -0.6391 -0.3286
15187SOL     OW46802   0.944   3.803   4.454 -0.0458  0.6396  0.7365
15187SOL    HW146803   0.967   3.768   4.368 -0.5923  0.0541  0.8280
15187SOL    HW246804   1.017   3.777   4.511 -0.0414  0.3860  0.6171
15188SOL     OW46805   3.466   2.608   8.175  0.4839  0.6721  0.0563
15188SOL    HW146806   3.537   2.665   8.147 -0.2740  0.4968 -2.3103
15188SOL    HW246807   3.389   2.639   8.127 -0.8822  0.3118  1.9108
15189SOL     OW46808   5.582   1.403   4.854 -0.1443 -0.3289 -0.0436
15189SOL    HW146809   5.660   1.458   4.845 -1.2629  1.9730  3.4116
15189SOL    HW246810   5.552   1.390   4.764  2.1623  1.7426 -1.2044
15190SOL     OW46811   1.679   0.769   6.260  0.1537  0.2336  0.8248
15190SOL    HW146812   1.769   0.737   6.265  0.7638  0.9214 -3.4555
15190SOL    HW246813   1.681   0.855   6.300  1.2694 -0.0032  1.2929
15191SOL     OW46814   3.030   2.040   7.139 -0.0704  0.6118 -0.3418
15191SOL    HW146815   3.120   2.011   7.156 -0.5313 -1.6263 -1.4343
15191SOL    HW246816   3.039   2.124   7.094  1.3839  1.5465  1.6296
15192SOL     OW46817   7.985   1.721   5.619 -0.2070 -0.7609 -0.4052
15192SOL    HW146818   7.985   1.811   5.586 -0.0203 -0.8419 -0.6208
15192SOL    HW246819   7.989   1.666   5.541  0.5792 -0.9485 -0.2408
15193SOL     OW46820   4.556   5.525   6.863  0.9024 -0.7958  0.7579
15193SOL    HW146821   4.606   5.444   6.872  0.1481 -1.4191 -0.4675
15193SOL    HW246822   4.612   5.582   6.810  1.4469 -0.5066  1.6480
15194SOL     OW46823   7.229   0.127   2.971  0.2476  0.0611  0.2167
15194SOL    HW146824   7.322   0.109   2.957  0.0258 -1.6381  0.7888
15194SOL    HW246825   7.193   0.133   2.882  0.6938 -0.5134 -0.0106
15195SOL     OW46826   2.241   4.788   0.892 -0.1600  0.1012 -0.2621
15195SOL    HW146827   2.241   4.812   0.799 -0.2592 -2.4983 -0.9830
15195SOL    HW246828   2.157   4.819   0.926 -1.6062 -1.8532 -1.8950
15196SOL     OW46829   4.953   2.492   1.481  0.7064 -0.2873  0.6525
15196SOL    HW146830   5.041   2.482   1.517  0.3035 -1.9755  1.2336
15196SOL    HW246831   4.949   2.429   1.410  0.3712  0.6744 -0.1921
15197SOL     OW46832   7.817   2.743   6.457 -0.0179 -0.3519  0.0327
15197SOL    HW146833   7.834   2.738   6.551  0.2902 -2.4791 -0.1326
15197SOL    HW246834   7.742   2.802   6.450  1.8020  2.2210  1.3712
15198SOL     OW46835   5.505   0.295   2.064  0.5047 -0.0809  0.0111
15198SOL    HW146836   5.469   0.282   1.976  0.7081  0.0167 -0.0873
15198SOL    HW246837   5.428   0.312   2.119  0.3027 -0.9268 -0.0022
15199SOL     OW46838   1.906   2.470   2.671 -0.4721  0.3170  0.2728
15199SOL    HW146839   1.871   2.503   2.753  1.0063  1.6570  0.3736
15199SOL    HW246840   1.841   2.405   2.642 -2.0364  1.3340  1.4248
15200SOL     OW46841   2.962   6.934   1.236 -0.5156  0.1455  0.0427
15200SOL    HW146842   3.022   6.912   1.164 -1.1006  1.8731 -1.0080
15200SOL    HW246843   2.916   6.852   1.254 -1.1780 -0.0546 -2.3611
15201SOL     OW46844   6.035   1.801   7.475 -0.3576 -0.4151 -0.0146
15201SOL    HW146845   6.032   1.720   7.423 -0.1082 -0.1596 -0.4326
15201SOL    HW246846   6.104   1.785   7.540  0.3616 -0.1795 -0.7090
15202SOL     OW46847   6.749   3.517   0.574 -0.3669 -0.0326 -0.0396
15202SOL    HW146848   6.801   3.484   0.501  0.5414 -0.4266  0.7819
15202SOL    HW246849   6.795   3.594   0.605 -0.8458  0.2415  0.0008
15203SOL     OW46850   4.840   5.095   2.519 -0.9606  0.0503 -0.0064
15203SOL    HW146851   4.881   5.181   2.527 -1.7920  0.3592  1.0684
15203SOL    HW246852   4.825   5.084   2.425 -2.6295  1.9492 -0.0044
15204SOL     OW46853   6.672   5.175   3.955 -0.3329  0.0798  0.1573
15204SOL    HW146854   6.715   5.260   3.965  1.4310 -0.7941  0.1479
15204SOL    HW246855   6.664   5.163   3.860 -0.5332  0.2008  0.1576
15205SOL     OW46856   4.963   1.154   2.048  0.1762 -0.3938 -0.3565
15205SOL    HW146857   4.894   1.219   2.057 -0.6132 -0.7829 -3.1632
15205SOL    HW246858   4.994   1.140   2.138 -1.0872  2.2328  0.5585
15206SOL     OW46859   5.424   6.346   2.987 -0.0444  0.4193  0.1828
15206SOL    HW146860   5.355   6.280   2.992 -0.0629  0.6088  2.9507
15206SOL    HW246861   5.392   6.410   2.924 -1.1753 -0.8692 -0.5851
15207SOL     OW46862   4.839   2.894   0.742  0.0278 -0.3909  0.7848
15207SOL    HW146863   4.930   2.866   0.738  0.3419  0.6344  0.5309
15207SOL    HW246864   4.798   2.853   0.666  0.8546  1.0862 -0.5024
15208SOL     OW46865   0.425   5.498   0.271  0.2335 -0.1923  0.0830
15208SOL    HW146866   0.501   5.442   0.254 -1.5443 -2.9257  0.7790
15208SOL    HW246867   0.450   5.550   0.347  1.4793 -0.9724  0.2160
15209SOL     OW46868   7.821   1.995   2.559  0.4604 -0.0894  0.5114
15209SOL    HW146869   7.794   1.914   2.516 -0.5067  0.8593 -0.6957
15209SOL    HW246870   7.770   1.998   2.640  0.5630 -0.7185  0.6022
15210SOL     OW46871   4.170   0.364   3.017 -0.0551 -0.0784 -0.3719
15210SOL    HW146872   4.120   0.437   3.054 -0.4927 -0.0568 -0.9771
15210SOL    HW246873   4.168   0.380   2.922 -1.6701 -1.8025 -0.6669
15211SOL     OW46874   7.979   6.016   6.563  0.6146 -0.4741 -0.2268
15211SOL    HW146875   7.923   6.072   6.509  0.5931 -0.2517  0.0291
15211SOL    HW246876   7.942   5.928   6.552  0.2318 -0.3342 -0.0805
15212SOL     OW46877   2.000   1.193   3.145 -0.5256 -0.5606  0.0021
15212SOL    HW146878   1.923   1.137   3.154 -1.8907  1.3385  0.4393
15212SOL    HW246879   1.966   1.282   3.155  1.5651  0.3640 -0.8550
15213SOL     OW46880   5.888   3.387   5.154 -0.0683 -0.2322  0.0818
15213SOL    HW146881   5.889   3.406   5.247 -0.2080  1.6205 -0.2855
15213SOL    HW246882   5.963   3.434   5.119 -0.1831 -0.6873 -0.7916
15214SOL     OW46883   0.883   4.465   5.680 -0.3686  0.0806  0.0244
15214SOL    HW146884   0.792   4.460   5.710 -0.8796 -2.2002 -1.6930
15214SOL    HW246885   0.878   4.519   5.601  0.0258  1.1935  0.7519
15215SOL     OW46886   1.649   2.543   6.824 -0.5456 -0.1920  0.4188
15215SOL    HW146887   1.719   2.606   6.841  2.3783 -2.7136 -1.4487
15215SOL    HW246888   1.585   2.591   6.772  2.3779  0.9414 -2.3890
15216SOL     OW46889   2.010   3.482   3.577 -0.0235 -0.1365  0.3084
15216SOL    HW146890   2.089   3.524   3.612 -0.2057  1.1092 -0.7607
15216SOL    HW246891   1.982   3.538   3.505 -0.4666 -1.9089 -0.9424
15217SOL     OW46892   6.198   7.913   7.468 -0.4953 -0.4011  0.2200
15217SOL    HW146893   6.196   7.849   7.539  0.6054 -0.6368  0.0567
15217SOL    HW246894   6.187   7.998   7.511  0.6509 -0.5023  0.7322
15218SOL     OW46895   1.636   1.885   0.740  0.2452 -0.5316 -0.1019
15218SOL    HW146896   1.683   1.958   0.780 -0.8542  1.2376 -1.9637
15218SOL    HW246897   1.704   1.821   0.719  1.4879  0.8569 -0.3425
15219SOL     OW46898   3.519   3.715   2.653  0.0848 -0.0731  0.3890
15219SOL    HW146899   3.581   3.731   2.724 -0.1567 -1.0170  0.8105
15219SOL    HW246900   3.512   3.800   2.609  1.7541  0.0324  0.2717
15220SOL     OW46901   1.416   3.248   3.726 -0.3216 -0.2447  0.4948
15220SOL    HW146902   1.489   3.258   3.787  0.8171 -2.2136 -0.4984
15220SOL    HW246903   1.414   3.154   3.707 -0.2406  0.4283 -2.9966
15221SOL     OW46904   4.937   5.630   4.381  0.2187 -0.7376  0.0872
15221SOL    HW146905   4.998   5.649   4.310 -1.9007  0.7024 -1.4327
15221SOL    HW246906   4.992   5.615   4.457  2.4787 -0.1462 -1.3868
15222SOL     OW46907   3.857   4.611   6.586 -0.2872 -0.5040  0.6064
15222SOL    HW146908   3.869   4.617   6.681  2.6771  0.0206  0.2332
15222SOL    HW246909   3.851   4.517   6.569  0.4011 -0.6569  1.1758
15223SOL     OW46910   1.054   1.719   1.234  0.2232  0.4075  0.2018
15223SOL    HW146911   1.069   1.705   1.328 -1.7737 -0.3082  0.4380
15223SOL    HW246912   1.022   1.635   1.202  2.1413  0.2755 -1.4066
15224SOL     OW46913   2.302   4.307   7.604 -0.1053 -0.0737 -0.7079
15224SOL    HW146914   2.273   4.312   7.513 -1.4101  0.2432 -0.2880
15224SOL    HW246915   2.311   4.399   7.631  0.0366 -0.1628 -0.4522
15225SOL     OW46916   8.199   3.218   2.426  0.1805 -0.4445 -0.6736
15225SOL    HW146917   8.217   3.172   2.508  2.1110 -0.4849 -1.0839
15225SOL    HW246918   8.129   3.169   2.385  1.0154 -1.9966 -0.2799
15226SOL     OW46919   2.154   3.926   5.729  0.3333  0.5071 -0.0927
15226SOL    HW146920   2.189   3.938   5.817  1.1641 -1.2780 -0.1619
15226SOL    HW246921   2.110   4.009   5.709  1.3501  1.4352  1.4378
15227SOL     OW46922   6.769   2.451   5.265  0.2823 -0.5772 -0.4284
15227SOL    HW146923   6.710   2.380   5.290 -1.6508  0.2410 -2.5435
15227SOL    HW246924   6.854   2.424   5.299 -0.8601 -2.8317  0.7491
15228SOL     OW46925   3.770   4.284   2.573 -0.1739 -0.0357 -0.2826
15228SOL    HW146926   3.738   4.313   2.488 -0.0328 -0.1965 -0.3919
15228SOL    HW246927   3.864   4.273   2.560  0.3473  2.7836  0.6793
15229SOL     OW46928   4.994   2.965   4.998 -0.1209 -0.1519 -0.1624
15229SOL    HW146929   5.063   2.901   5.013 -0.6592 -1.0714 -1.4729
15229SOL    HW246930   4.999   2.984   4.904 -1.2589  0.2130 -0.1630
15230SOL     OW46931   4.248   7.176   0.478 -0.0927 -0.1141 -0.4592
15230SOL    HW146932   4.240   7.271   0.470 -0.9000 -0.4001 -4.2500
15230SOL    HW246933   4.321   7.154   0.420  1.1222 -1.7026  1.6106
15231SOL     OW46934   2.588   0.972   3.399  0.2807  0.1577 -0.3066
15231SOL    HW146935   2.609   1.054   3.355  1.5185  0.1887  0.3306
15231SOL    HW246936   2.492   0.972   3.406  0.2350  1.2342 -0.8852
15232SOL     OW46937   1.220   3.969   3.216 -0.2615  0.3413  0.8403
15232SOL    HW146938   1.283   3.966   3.288  0.9132 -1.0685 -0.2192
15232SOL    HW246939   1.182   3.881   3.213 -0.0985  0.2967 -0.4156
15233SOL     OW46940   1.518   6.153   1.240 -0.5626  0.1869  0.5581
15233SOL    HW146941   1.466   6.134   1.318 -1.2211 -1.7026 -0.3296
15233SOL    HW246942   1.541   6.068   1.205  0.7145  1.0260 -0.6842
15234SOL     OW46943   6.610   7.841   7.486 -0.0782 -0.1669 -0.7420
15234SOL    HW146944   6.580   7.932   7.485  1.7556  0.4497 -0.4717
15234SOL    HW246945   6.669   7.834   7.411  1.6498 -0.4704  0.6126
15235SOL     OW46946   1.607   2.466   3.225 -0.1825 -0.4369  0.4603
15235SOL    HW146947   1.562   2.550   3.216  0.8631  0.1880  1.0318
15235SOL    HW246948   1.668   2.479   3.297  1.1595 -1.1673 -0.5154
15236SOL     OW46949   7.642   3.008   0.546  0.0040 -1.0486  0.2902
15236SOL    HW146950   7.592   3.033   0.623  0.0678 -0.2847  0.0815
15236SOL    HW246951   7.581   2.955   0.494 -0.8438  0.5220 -0.3352
15237SOL     OW46952   6.471   2.578   2.077  0.4933  0.7065 -0.1524
15237SOL    HW146953   6.421   2.568   2.157 -0.4144  3.3940 -0.3295
15237SOL    HW246954   6.562   2.561   2.103  0.1412  1.0072  1.3152
15238SOL     OW46955   3.580   6.925   6.004  0.5931 -0.6291  0.1919
15238SOL    HW146956   3.654   6.886   5.956  1.3718  1.1038 -0.0627
15238SOL    HW246957   3.543   6.989   5.943 -0.5773 -0.8599  0.6466
15239SOL     OW46958   0.274   4.959   5.437  0.0450  0.2225 -0.2375
15239SOL    HW146959   0.357   5.007   5.435  0.4558 -0.4951 -0.6345
15239SOL    HW246960   0.294   4.881   5.489 -0.0103 -0.6327 -1.4906
15240SOL     OW46961   2.523   4.698   2.143 -0.6878  0.4258 -0.7097
15240SOL    HW146962   2.576   4.619   2.149 -2.8417 -0.9588  0.8958
15240SOL    HW246963   2.534   4.728   2.053  1.0998 -1.0056 -0.9955
15241SOL     OW46964   4.943   5.528   5.783  0.4772 -0.3057 -0.3912
15241SOL    HW146965   4.867   5.579   5.756  0.3202 -0.3466 -0.0252
15241SOL    HW246966   5.014   5.592   5.791  1.5074 -0.7899 -4.5915
15242SOL     OW46967   6.110   6.342   0.179 -0.1878 -0.5390 -0.4886
15242SOL    HW146968   6.051   6.417   0.172  0.2248 -0.0747  0.8691
15242SOL    HW246969   6.105   6.316   0.271  0.3290 -1.6349 -0.7628
15243SOL     OW46970   0.659   2.884   7.057  0.1266 -0.0046  0.0924
15243SOL    HW146971   0.702   2.970   7.064  1.2524 -0.6784  1.9871
15243SOL    HW246972   0.569   2.904   7.032  0.5866  1.6737 -0.3157
15244SOL     OW46973   5.537   4.486   4.574 -0.3209  0.0191  0.4690
15244SOL    HW146974   5.622   4.489   4.619 -0.7114 -1.5113  1.3705
15244SOL    HW246975   5.560   4.478   4.481  0.5709 -2.1210  0.8392
15245SOL     OW46976   5.924   2.286   0.497  0.3165 -0.3911 -0.3894
15245SOL    HW146977   5.926   2.254   0.407 -0.0852  0.7353 -0.8006
15245SOL    HW246978   6.010   2.263   0.533  0.6111 -0.5013 -1.1680
15246SOL     OW46979   4.642   5.345   7.293  0.4248  0.1464  0.2892
15246SOL    HW146980   4.591   5.322   7.371  0.6199  0.2764  0.4564
15246SOL    HW246981   4.578   5.344   7.222  0.8924 -3.3996 -0.1451
15247SOL     OW46982   6.423   6.168   5.888 -0.4063  0.3399 -0.3159
15247SOL    HW146983   6.398   6.206   5.804 -1.2463  0.2368 -0.1115
15247SOL    HW246984   6.513   6.137   5.874  0.4165  2.6495 -0.4107
15248SOL     OW46985   7.921   3.638   6.682  0.5324 -0.3851  0.5307
15248SOL    HW146986   7.921   3.702   6.753  1.1655  1.0441 -0.7240
15248SOL    HW246987   7.830   3.637   6.651  0.7674  0.8767 -0.2642
15249SOL     OW46988   6.357   1.377   7.861 -0.0783  0.5729 -0.5810
15249SOL    HW146989   6.294   1.375   7.789 -0.1058  0.6434 -0.5589
15249SOL    HW246990   6.384   1.286   7.872 -0.0294  0.5716 -0.7197
15250SOL     OW46991   2.003   3.040   3.215 -0.2122 -0.2966 -0.1823
15250SOL    HW146992   2.050   3.113   3.255  0.9768 -1.4556  0.5867
15250SOL    HW246993   2.011   2.969   3.279  1.9511 -2.2927 -2.5709
15251SOL     OW46994   8.017   4.702   3.257  0.1063 -0.3241 -0.6160
15251SOL    HW146995   8.109   4.726   3.271  0.0551 -0.9887  0.9576
15251SOL    HW246996   7.967   4.776   3.291  0.0135 -1.3369  1.5561
15252SOL     OW46997   3.973   0.483   5.912 -0.2571  0.1228 -0.1872
15252SOL    HW146998   4.068   0.490   5.904 -0.3265  2.3071  0.5517
15252SOL    HW246999   3.939   0.554   5.857 -1.4052  0.3493  0.7945
15253SOL     OW47000   7.827   1.862   6.962 -0.6308 -0.0041  0.6368
15253SOL    HW147001   7.814   1.910   7.044  1.9960 -0.5464  1.4276
15253SOL    HW247002   7.822   1.929   6.894 -0.8696  0.7640  1.3982
15254SOL     OW47003   1.468   0.255   1.443 -0.1371 -0.4649  0.1723
15254SOL    HW147004   1.508   0.222   1.523  2.6645 -1.8954 -1.7263
15254SOL    HW247005   1.403   0.189   1.419  0.7231 -1.2514 -0.0095
15255SOL     OW47006   2.085   7.624   7.477 -0.6674  0.2863  0.3707
15255SOL    HW147007   2.001   7.634   7.431 -0.0871  0.8074 -0.6082
15255SOL    HW247008   2.066   7.568   7.551 -1.6583 -0.5080 -0.4712
15256SOL     OW47009   3.903   0.721   3.077 -0.3334  0.2195 -0.5713
15256SOL    HW147010   3.875   0.811   3.093  0.2768  0.5246 -1.2004
15256SOL    HW247011   3.848   0.668   3.135 -1.0873  0.9448 -0.6172
15257SOL     OW47012   0.930   1.287   4.938 -0.3032 -0.0558 -0.5035
15257SOL    HW147013   1.001   1.244   4.985 -0.4804 -1.3919 -1.4114
15257SOL    HW247014   0.929   1.376   4.971  0.5119 -0.5730  0.9451
15258SOL     OW47015   4.471   2.854   1.188  0.4761  0.2432  0.1842
15258SOL    HW147016   4.402   2.788   1.176  1.2417 -0.7865  1.3296
15258SOL    HW247017   4.529   2.842   1.113 -0.7833  1.3635 -0.9813
15259SOL     OW47018   4.754   1.033   2.621  0.4305  0.2130 -0.4354
15259SOL    HW147019   4.772   1.109   2.565  0.1087 -0.1365 -1.0226
15259SOL    HW247020   4.754   1.068   2.710 -3.3089  1.6454 -0.8955
15260SOL     OW47021   0.233   1.040   6.354  0.1259  0.3874 -0.2981
15260SOL    HW147022   0.249   1.112   6.293  1.1495  0.0617 -0.4388
15260SOL    HW247023   0.140   1.023   6.348 -0.1259  1.6772 -0.2903
15261SOL     OW47024   0.059   2.576   8.272 -0.1064  0.3821  0.1244
15261SOL    HW147025   0.146   2.534   8.272 -0.8915 -1.2837 -0.2399
15261SOL    HW247026   0.059   2.630   8.351  0.8244 -0.5544  0.7830
15262SOL     OW47027   1.371   3.527   1.217 -0.1113 -0.3093 -0.1217
15262SOL    HW147028   1.450   3.476   1.234 -0.3750 -0.9554 -0.8129
15262SOL    HW247029   1.304   3.462   1.197 -0.6267  0.2713 -0.2986
15263SOL     OW47030   1.176   0.254   1.596 -0.1885  0.0372 -0.3822
15263SOL    HW147031   1.158   0.283   1.507 -1.1954 -0.3155 -0.2965
15263SOL    HW247032   1.205   0.164   1.588 -1.0367 -0.2469 -0.2878
15264SOL     OW47033   5.132   6.228   0.577 -0.2578 -0.1716  0.4933
15264SOL    HW147034   5.150   6.181   0.496 -3.6405  0.6487 -0.7893
15264SOL    HW247035   5.199   6.296   0.581  0.5067 -0.8022 -1.0981
15265SOL     OW47036   1.986   0.610   3.570  0.2077  0.4695  0.7144
15265SOL    HW147037   1.904   0.629   3.525  0.6175  5.7408  1.8449
15265SOL    HW247038   1.959   0.587   3.659 -0.1283 -0.3319  0.4111
15266SOL     OW47039   7.837   7.496   7.571  0.3208 -0.0768  0.6949
15266SOL    HW147040   7.882   7.577   7.548  0.9252  0.0124  2.1625
15266SOL    HW247041   7.806   7.510   7.660  0.0802 -1.3114  0.8123
15267SOL     OW47042   7.275   2.013   5.678 -0.2914  0.2213 -0.1399
15267SOL    HW147043   7.287   2.094   5.629  1.0816 -0.1093 -0.3702
15267SOL    HW247044   7.267   2.040   5.769 -0.2239  0.6361 -0.2575
15268SOL     OW47045   4.246   1.162   3.159 -0.2233  0.4468  0.5216
15268SOL    HW147046   4.171   1.139   3.105  1.6777 -1.1933 -1.4633
15268SOL    HW247047   4.254   1.091   3.222 -0.2680  0.5675  0.6650
15269SOL     OW47048   1.716   7.459   7.131 -0.0429  0.2744 -0.2058
15269SOL    HW147049   1.722   7.372   7.171 -1.1246 -0.1380 -0.9142
15269SOL    HW247050   1.720   7.442   7.037 -0.3048  0.9802 -0.3464
15270SOL     OW47051   6.863   5.680   3.387 -0.0358  0.7905 -0.0678
15270SOL    HW147052   6.828   5.744   3.449  1.1998  1.0153  0.3911
15270SOL    HW247053   6.844   5.718   3.301 -2.3750  0.1484  0.1299
15271SOL     OW47054   3.257   6.038   5.851  0.9405  0.0189 -0.1517
15271SOL    HW147055   3.277   5.959   5.801 -0.2132 -0.7791  0.6266
15271SOL    HW247056   3.177   6.071   5.812  1.1407  0.5155 -0.1412
15272SOL     OW47057   2.521   3.580   0.633 -0.2026  0.3985 -0.4180
15272SOL    HW147058   2.523   3.627   0.550  0.5341 -1.9474 -1.7886
15272SOL    HW247059   2.613   3.575   0.660  0.1176 -2.8608 -1.8765
15273SOL     OW47060   5.301   1.324   8.216  0.1506  0.0326  0.8057
15273SOL    HW147061   5.208   1.318   8.238  0.1322  1.0429  1.0392
15273SOL    HW247062   5.344   1.346   8.299  0.4562  0.7472  0.4666
15274SOL     OW47063   0.049   3.470   3.057 -0.0109  0.6712  0.4766
15274SOL    HW147064  -0.037   3.452   3.095  0.2908  2.9156  2.3113
15274SOL    HW247065   0.031   3.528   2.984 -0.1866 -0.2049 -0.1886
15275SOL     OW47066   0.510   5.188   2.958 -0.3082  0.2813 -0.3482
15275SOL    HW147067   0.466   5.103   2.965  0.5248 -0.2068 -0.8942
15275SOL    HW247068   0.537   5.209   3.048 -1.4950  0.5014 -0.0407
15276SOL     OW47069   6.362   5.099   7.100  0.1077 -0.0440  0.2950
15276SOL    HW147070   6.381   5.160   7.171  2.4172  0.3782 -0.6608
15276SOL    HW247071   6.344   5.015   7.144 -0.7934  0.7524  1.4753
15277SOL     OW47072   1.713   7.853   4.137 -0.0827 -0.1548 -0.1034
15277SOL    HW147073   1.749   7.923   4.083 -1.1063  0.5816  0.1535
15277SOL    HW247074   1.789   7.802   4.165  0.4879 -0.2922 -1.8715
15278SOL     OW47075   6.731   5.463   7.971  0.1808 -0.4516 -0.3036
15278SOL    HW147076   6.749   5.532   7.906  2.1250 -0.9621 -0.3616
15278SOL    HW247077   6.703   5.510   8.049 -0.5033  0.2835 -0.9870
15279SOL     OW47078   3.626   0.072   5.067 -0.6800  0.1112  0.3107
15279SOL    HW147079   3.552   0.048   5.011 -1.4446 -2.0836  2.1952
15279SOL    HW247080   3.586   0.101   5.149  0.4784  1.8538  0.2917
15280SOL     OW47081   6.952   3.151   0.093  0.0932 -0.0475 -0.2570
15280SOL    HW147082   7.032   3.118   0.134 -0.4775  1.6303  2.3347
15280SOL    HW247083   6.964   3.246   0.090 -0.4583 -0.0314 -2.8238
15281SOL     OW47084   4.391   3.316   0.444  0.2097  0.3651  0.4516
15281SOL    HW147085   4.465   3.327   0.504 -1.3479  0.6317  2.3900
15281SOL    HW247086   4.314   3.337   0.497 -1.3881 -1.4294 -1.0793
15282SOL     OW47087   1.810   7.861   0.402 -0.7471 -0.1609  0.0466
15282SOL    HW147088   1.901   7.848   0.430  0.5964  2.5614 -2.8271
15282SOL    HW247089   1.782   7.774   0.371  0.8170 -1.0205  0.9809
15283SOL     OW47090   8.302   0.914   4.081 -0.2537 -0.8389 -0.6425
15283SOL    HW147091   8.238   0.924   4.152  0.0683  3.4939 -0.8256
15283SOL    HW247092   8.252   0.929   4.001  0.5052  0.1242 -0.9414
15284SOL     OW47093   1.122   5.250   4.544 -0.1550 -0.0607  0.0799
15284SOL    HW147094   1.138   5.319   4.480  1.3721 -0.1861  0.3170
15284SOL    HW247095   1.096   5.174   4.492 -1.6405  0.6169 -0.1955
15285SOL     OW47096   0.225   1.683   6.642  0.4990  0.5849  0.0349
15285SOL    HW147097   0.227   1.778   6.638  0.2680  0.5853 -0.1094
15285SOL    HW247098   0.297   1.655   6.586  2.2640  0.7107  2.1676
15286SOL     OW47099   7.654   4.162   3.320  0.0332  0.0488 -0.1499
15286SOL    HW147100   7.732   4.177   3.373 -0.2497  2.1881 -0.2812
15286SOL    HW247101   7.597   4.108   3.375  0.4931  0.7393  1.0194
15287SOL     OW47102   3.323   2.387   5.582  0.7319 -0.0987 -0.4151
15287SOL    HW147103   3.396   2.421   5.530  0.6062 -1.2510 -1.3671
15287SOL    HW247104   3.261   2.354   5.517 -0.3964  0.3632  0.4056
15288SOL     OW47105   5.170   7.584   6.632 -0.7962  0.6597 -0.1219
15288SOL    HW147106   5.087   7.571   6.677 -1.0537 -0.4125 -0.8791
15288SOL    HW247107   5.146   7.617   6.545 -0.4614  0.0097 -0.4710
15289SOL     OW47108   6.888   0.798   6.043  0.7892  0.2576 -0.3497
15289SOL    HW147109   6.894   0.725   6.105  1.2793 -0.4009 -1.1715
15289SOL    HW247110   6.957   0.782   5.980 -0.3377  0.3971 -1.6379
15290SOL     OW47111   6.587   6.829   0.577  0.3032  0.7543 -0.3250
15290SOL    HW147112   6.553   6.801   0.662  1.9981 -2.3681 -0.6447
15290SOL    HW247113   6.665   6.880   0.598  0.6649  0.0705 -0.0038
15291SOL     OW47114   3.861   4.851   3.406 -0.4819  0.5359 -0.5250
15291SOL    HW147115   3.841   4.898   3.487  0.3850  0.2203 -0.1191
15291SOL    HW247116   3.784   4.798   3.389 -1.1320  1.4804 -0.5358
15292SOL     OW47117   7.334   6.291   4.288 -0.0822 -0.1270  0.3963
15292SOL    HW147118   7.259   6.234   4.268  0.2032  0.2299 -1.7843
15292SOL    HW247119   7.407   6.230   4.300  0.2643 -0.2442 -2.1227
15293SOL     OW47120   4.813   2.211   7.595  0.3063  0.6860  0.2381
15293SOL    HW147121   4.719   2.221   7.605  0.1988 -0.1348  0.0267
15293SOL    HW247122   4.843   2.180   7.680  0.3943  1.0109  0.3249
15294SOL     OW47123   4.640   3.341   0.557  0.0181 -0.6528 -0.1856
15294SOL    HW147124   4.681   3.264   0.595  0.8534 -0.0717  0.1037
15294SOL    HW247125   4.615   3.395   0.632 -1.2036 -0.9630 -0.3628
15295SOL     OW47126   6.753   0.551   4.151  0.0072 -0.0222  0.4266
15295SOL    HW147127   6.677   0.517   4.104  1.3868 -0.5163 -1.5236
15295SOL    HW247128   6.776   0.631   4.103  1.4753 -0.5559  0.2488
15296SOL     OW47129   2.832   2.467   6.443 -0.5426 -0.2266 -0.2423
15296SOL    HW147130   2.754   2.420   6.413 -1.5720  0.8997  0.6255
15296SOL    HW247131   2.817   2.558   6.415  0.0552  0.1656  0.7083
15297SOL     OW47132   2.281   4.141   3.309 -0.2660  0.6860  0.0754
15297SOL    HW147133   2.281   4.157   3.214  0.1054  1.4266  0.2017
15297SOL    HW247134   2.313   4.051   3.317 -1.2697  0.2517 -0.5561
15298SOL     OW47135   1.477   0.072   5.543 -0.3736 -0.4914  0.0397
15298SOL    HW147136   1.523  -0.009   5.522  0.3808 -0.3754  1.2058
15298SOL    HW247137   1.404   0.045   5.599  0.4602 -0.2774  1.2604
15299SOL     OW47138   0.243   3.955   5.045  0.1608  0.1750 -0.0670
15299SOL    HW147139   0.298   4.023   5.008  0.9677 -1.6228 -2.2563
15299SOL    HW247140   0.265   3.876   4.996 -0.8372 -1.6549  2.3195
15300SOL     OW47141   0.189   1.062   3.725  0.0402  0.5341  0.3808
15300SOL    HW147142   0.254   0.995   3.707  1.1075  1.9569 -1.2583
15300SOL    HW247143   0.187   1.069   3.821  3.0773  1.1685  0.4426
15301SOL     OW47144   4.868   6.417   6.881  0.1885  0.0827  0.3568
15301SOL    HW147145   4.909   6.332   6.872  1.7592  0.9889 -1.1483
15301SOL    HW247146   4.885   6.442   6.972 -1.0602 -1.5844  1.0653
15302SOL     OW47147   7.081   2.451   1.454 -0.3654 -0.3782 -0.6514
15302SOL    HW147148   7.029   2.382   1.415 -1.1089 -0.9850  1.3787
15302SOL    HW247149   7.119   2.498   1.379 -0.5395 -2.4286 -2.0508
15303SOL     OW47150   2.203   1.921   3.584  0.3385  0.1937  0.8362
15303SOL    HW147151   2.169   1.846   3.632 -0.9540 -0.4249 -1.0075
15303SOL    HW247152   2.150   1.995   3.614  0.3890  0.0493  1.2838
15304SOL     OW47153   2.890   3.423   5.734 -0.5940  0.0936  0.0880
15304SOL    HW147154   2.835   3.350   5.704 -1.5253  0.6583  0.3831
15304SOL    HW247155   2.957   3.382   5.788  0.9540 -0.9074 -2.5002
15305SOL     OW47156   5.921   6.227   6.350  0.3697  0.0604  0.6137
15305SOL    HW147157   5.884   6.172   6.419 -1.3086 -1.8879 -1.7575
15305SOL    HW247158   5.857   6.298   6.338  0.8578  0.6243  1.3204
15306SOL     OW47159   7.646   0.358   7.227 -0.2183  0.0717 -0.4142
15306SOL    HW147160   7.707   0.293   7.262  0.2769  0.7153 -0.0682
15306SOL    HW247161   7.694   0.399   7.155  0.1760  1.3439  0.5655
15307SOL     OW47162   1.496   1.288   2.622  0.9424 -0.1621  0.3735
15307SOL    HW147163   1.492   1.240   2.539  0.2586  1.0190 -0.2958
15307SOL    HW247164   1.420   1.257   2.671 -0.3351  1.2599 -0.6486
15308SOL     OW47165   3.255   4.952   4.357 -0.3555  0.3440  0.1943
15308SOL    HW147166   3.173   4.970   4.310  0.3758  0.2034 -1.1639
15308SOL    HW247167   3.279   4.863   4.330  0.8414  0.8116 -0.3042
15309SOL     OW47168   4.509   5.213   5.365 -0.2378  0.1791 -0.2775
15309SOL    HW147169   4.445   5.143   5.357 -1.0077  0.8492 -0.0712
15309SOL    HW247170   4.475   5.270   5.433  0.4398  0.6927 -0.3556
15310SOL     OW47171   5.594   6.724   7.750  0.0976  0.5637 -0.0654
15310SOL    HW147172   5.558   6.812   7.741 -0.2343  0.3594 -0.7624
15310SOL    HW247173   5.527   6.676   7.800 -0.0387  0.5162 -0.2937
15311SOL     OW47174   4.460   6.711   5.415 -0.6970 -0.3381  0.5262
15311SOL    HW147175   4.469   6.647   5.484  0.7699  0.0511  0.7242
15311SOL    HW247176   4.439   6.793   5.460  1.6260  0.2274  0.6961
15312SOL     OW47177   0.504   1.094   4.803 -0.2259 -0.4489 -0.5264
15312SOL    HW147178   0.532   1.163   4.743 -0.7931 -0.1597 -0.4618
15312SOL    HW247179   0.468   1.141   4.879  1.9844 -0.7873  0.7721
15313SOL     OW47180   7.057   8.215   7.367  0.1615 -0.0306 -0.3681
15313SOL    HW147181   6.996   8.260   7.309  0.1581  1.0906  0.4991
15313SOL    HW247182   7.005   8.147   7.409 -0.2050  0.1581 -0.5215
15314SOL     OW47183   2.676   3.446   2.948 -0.1386  0.2908 -0.1617
15314SOL    HW147184   2.647   3.508   2.881 -1.3377 -0.9134 -0.7990
15314SOL    HW247185   2.598   3.393   2.967  0.9514 -1.2756  0.0659
15315SOL     OW47186   1.475   5.283   4.512 -0.3649 -0.3889  0.4710
15315SOL    HW147187   1.462   5.191   4.537 -0.0301 -0.8199 -0.8559
15315SOL    HW247188   1.515   5.278   4.425 -0.2441  1.0210  0.4351
15316SOL     OW47189   1.364   6.993   5.169  0.1709  0.0079  0.0490
15316SOL    HW147190   1.435   7.056   5.158  0.0712  0.1039 -0.0419
15316SOL    HW247191   1.313   7.026   5.243  1.2847 -1.0501  1.3202
15317SOL     OW47192   4.069   8.106   5.482  0.3253 -0.3074  0.2555
15317SOL    HW147193   4.035   8.056   5.408  0.2898 -0.8158  0.6198
15317SOL    HW247194   4.050   8.197   5.459 -2.4701 -0.6428  1.0422
15318SOL     OW47195   6.540   3.362   7.416 -0.4867  0.1746  0.0876
15318SOL    HW147196   6.594   3.408   7.482 -1.3843  1.1975  0.1239
15318SOL    HW247197   6.503   3.288   7.464 -2.4269  1.8145  1.2094
15319SOL     OW47198   2.050   6.964   0.756  0.5731  0.3175  0.2243
15319SOL    HW147199   2.143   6.989   0.761  0.9255 -0.7413 -0.7990
15319SOL    HW247200   2.050   6.882   0.707 -0.6571 -1.2537  2.7800
15320SOL     OW47201   4.342   3.049   2.250 -0.2543  0.2833 -0.3995
15320SOL    HW147202   4.402   3.086   2.186 -0.4114  0.7509 -0.2760
15320SOL    HW247203   4.320   3.122   2.308  0.1363 -0.2080  0.3760
15321SOL     OW47204   7.551   0.321   2.418 -0.2600  0.2953  0.3728
15321SOL    HW147205   7.472   0.312   2.473 -1.5962 -1.2129 -1.7248
15321SOL    HW247206   7.561   0.415   2.406 -0.4886  0.6106  2.4118
15322SOL     OW47207   8.244   7.411   3.069  0.0641 -0.4728  0.1731
15322SOL    HW147208   8.149   7.423   3.067  0.0924 -0.1247  0.8382
15322SOL    HW247209   8.277   7.473   3.004 -0.1005  0.0222  0.5576
15323SOL     OW47210   5.810   0.661   5.775  0.0421 -0.2039 -0.0611
15323SOL    HW147211   5.864   0.676   5.853 -1.5400  1.6064  0.7326
15323SOL    HW247212   5.794   0.567   5.776  0.0237 -0.2178  1.8485
15324SOL     OW47213   3.319   0.295   3.069 -0.1964 -0.0461  0.1631
15324SOL    HW147214   3.286   0.260   2.986 -1.9190  0.1059  0.7529
15324SOL    HW247215   3.241   0.329   3.113  0.4905 -1.2406  2.3951
15325SOL     OW47216   4.517   7.301   2.363 -0.0804  0.5088 -0.2390
15325SOL    HW147217   4.564   7.376   2.402 -1.7948  0.4806  1.9709
15325SOL    HW247218   4.499   7.329   2.273 -0.1503  2.5293  0.3613
15326SOL     OW47219   5.724   4.544   7.409  0.5223 -0.1453 -0.1510
15326SOL    HW147220   5.730   4.600   7.332 -0.4943  0.6328  0.3327
15326SOL    HW247221   5.797   4.573   7.465  0.2399  0.4183 -0.0764
15327SOL     OW47222   2.511   1.887   8.305 -0.3115  0.5585 -0.7055
15327SOL    HW147223   2.556   1.887   8.221  0.5556  0.0794 -0.2553
15327SOL    HW247224   2.541   1.806   8.348 -0.2532  1.1081  0.3077
15328SOL     OW47225   0.314   3.827   5.991  0.5540 -0.0089  0.1592
15328SOL    HW147226   0.276   3.915   5.998 -2.2274 -0.9899 -1.7650
15328SOL    HW247227   0.368   3.831   5.912  1.2263  0.2502  0.6319
15329SOL     OW47228   2.167   3.677   8.244  0.2027 -0.0475 -0.3265
15329SOL    HW147229   2.243   3.661   8.299 -2.0493 -0.7954  2.7593
15329SOL    HW247230   2.123   3.592   8.240 -1.9202  0.9851  0.3064
15330SOL     OW47231   6.067   6.418   0.712  0.1531 -0.2980 -0.0313
15330SOL    HW147232   6.151   6.457   0.686 -0.5118  0.7012 -0.7678
15330SOL    HW247233   6.004   6.454   0.649 -0.9597 -0.4234  0.9880
15331SOL     OW47234   4.488   8.288   3.413 -0.0523 -0.0267  0.7079
15331SOL    HW147235   4.438   8.348   3.359 -0.1461 -0.1883  0.6161
15331SOL    HW247236   4.542   8.345   3.469  1.2784  0.1372 -0.7026
15332SOL     OW47237   5.273   1.112   3.836 -0.5677 -0.1373  0.1443
15332SOL    HW147238   5.330   1.135   3.909 -1.1924  0.3897  0.4585
15332SOL    HW247239   5.187   1.098   3.875 -0.8247 -0.1989 -0.4378
15333SOL     OW47240   3.428   7.002   3.611 -0.1093 -0.2195  0.5501
15333SOL    HW147241   3.420   7.098   3.610  0.8354 -0.1170  2.1130
15333SOL    HW247242   3.346   6.972   3.652  0.2180 -0.0011  1.3733
15334SOL     OW47243   0.496   2.080   0.005  0.3606  0.0666  0.2488
15334SOL    HW147244   0.583   2.057  -0.027  0.7693 -1.3372  2.2455
15334SOL    HW247245   0.511   2.137   0.080 -0.3304 -1.4129  1.5705
15335SOL     OW47246   7.981   7.603   0.498 -0.2835  0.2688  0.2806
15335SOL    HW147247   8.044   7.662   0.456 -0.8952  0.3663 -0.5107
15335SOL    HW247248   7.975   7.528   0.439 -0.4779 -0.0046  0.6438
15336SOL     OW47249   6.774   3.009   4.397 -0.3570 -0.2022  0.4776
15336SOL    HW147250   6.819   2.941   4.447 -0.0018 -0.9554 -0.8554
15336SOL    HW247251   6.841   3.074   4.377 -0.5459  0.2082  1.1399
15337SOL     OW47252   1.241   3.979   4.545  0.3821  0.2459  0.2589
15337SOL    HW147253   1.209   3.889   4.536  0.7422  0.1376  0.0415
15337SOL    HW247254   1.330   3.969   4.578 -0.1892  0.5717  1.9642
15338SOL     OW47255   2.839   5.476   7.058 -0.3619  0.4037 -0.2963
15338SOL    HW147256   2.757   5.454   7.102 -0.2967 -0.7554 -0.7194
15338SOL    HW247257   2.890   5.524   7.124 -0.4483 -0.9080  0.7565
15339SOL     OW47258   4.304   0.075   4.316 -0.2506 -0.2203  0.3686
15339SOL    HW147259   4.351   0.158   4.328 -1.6169  0.3320  2.2021
15339SOL    HW247260   4.260   0.084   4.231  1.5123 -0.0392 -0.5367
15340SOL     OW47261   5.118   6.365   1.089  0.3470  0.0560  0.1311
15340SOL    HW147262   5.091   6.332   1.003  3.0544 -0.6789 -0.4779
15340SOL    HW247263   5.191   6.424   1.071 -0.4286  1.5801  1.7764
15341SOL     OW47264   6.846   2.421   8.022 -0.8924 -0.6008 -0.6433
15341SOL    HW147265   6.849   2.517   8.022  0.2042 -0.6356 -0.7221
15341SOL    HW247266   6.753   2.401   8.006 -1.4218  0.4441  0.9935
15342SOL     OW47267   8.249   3.292   4.230  0.0336  0.0395 -0.5465
15342SOL    HW147268   8.185   3.253   4.171  1.1090 -1.4953 -0.7383
15342SOL    HW247269   8.203   3.300   4.313  0.3328 -3.5818  0.0780
15343SOL     OW47270   4.189   2.002   6.277 -0.1291 -0.0194  0.2859
15343SOL    HW147271   4.221   2.024   6.190  1.3666  0.4466  0.9365
15343SOL    HW247272   4.248   1.934   6.308 -2.3652 -2.2481 -0.1567
15344SOL     OW47273   6.593   7.248   8.160 -0.5997 -0.0473 -0.2539
15344SOL    HW147274   6.507   7.290   8.165  0.2756  1.6832  0.9989
15344SOL    HW247275   6.645   7.307   8.106 -0.4005 -1.4876 -1.6608
15345SOL     OW47276   6.835   6.052   1.309  0.3057 -0.5757 -0.5712
15345SOL    HW147277   6.840   6.026   1.401  2.5830  0.4248 -0.3890
15345SOL    HW247278   6.892   5.989   1.264  0.6419  0.0500 -1.0248
15346SOL     OW47279   7.555   8.257   4.369 -0.0749 -0.3973 -0.0266
15346SOL    HW147280   7.476   8.308   4.355 -0.2542 -0.1251  1.8499
15346SOL    HW247281   7.549   8.227   4.460  2.0318 -0.2755  0.1824
15347SOL     OW47282   0.506   4.835   2.727 -0.5080 -0.1273  0.2939
15347SOL    HW147283   0.531   4.802   2.640  2.9634 -1.5235  1.7324
15347SOL    HW247284   0.530   4.928   2.725 -0.5728 -0.1193 -0.2972
15348SOL     OW47285   3.872   6.383   4.352  0.2096 -0.0393 -0.0961
15348SOL    HW147286   3.853   6.310   4.410  2.2962 -1.2344 -0.8627
15348SOL    HW247287   3.927   6.442   4.404 -1.3466  0.9271  0.4718
15349SOL     OW47288   7.186   0.387   5.959 -0.3251 -0.6210  0.2722
15349SOL    HW147289   7.099   0.399   5.922 -0.2878 -0.0537  0.3744
15349SOL    HW247290   7.242   0.365   5.884 -0.9568 -3.0450  0.4695
15350SOL     OW47291   4.212   5.714   5.556 -0.3360 -0.0142  0.5082
15350SOL    HW147292   4.218   5.660   5.635 -0.9972 -0.7057  0.1012
15350SOL    HW247293   4.287   5.773   5.561 -0.2438 -0.2079  1.5361
15351SOL     OW47294   4.204   1.046   6.992  0.0660  0.0134  0.4787
15351SOL    HW147295   4.260   1.001   6.929  0.2582  0.5738  0.2472
15351SOL    HW247296   4.173   0.976   7.050 -0.5607 -0.6015 -0.5711
15352SOL     OW47297   6.235   6.659   7.006 -0.1774 -0.2844 -0.2849
15352SOL    HW147298   6.149   6.629   6.976  0.4904 -0.9226 -1.6353
15352SOL    HW247299   6.238   6.752   6.983 -0.5201 -0.2499 -0.1934
15353SOL     OW47300   4.327   4.199   7.446  0.4384 -0.4663 -0.1838
15353SOL    HW147301   4.345   4.293   7.455 -0.9755 -0.1077 -0.9366
15353SOL    HW247302   4.366   4.160   7.524 -1.7908  1.1623  1.8174
15354SOL     OW47303   1.721   1.073   1.010  0.7077  0.3189 -0.6703
15354SOL    HW147304   1.735   0.988   0.968  1.1722  1.0610 -2.0399
15354SOL    HW247305   1.806   1.095   1.048  0.2937 -0.3401  0.6453
15355SOL     OW47306   0.713   2.875   2.410  0.2495  0.5467  0.0780
15355SOL    HW147307   0.728   2.922   2.492  1.0791  1.1124 -0.3959
15355SOL    HW247308   0.624   2.899   2.384 -0.2523 -0.1382  1.1362
15356SOL     OW47309   1.077   7.464   2.475  0.0105 -0.4412 -0.0278
15356SOL    HW147310   1.123   7.444   2.393 -1.3876 -0.7652 -0.7509
15356SOL    HW247311   1.038   7.550   2.459  0.0448 -0.3428  0.4289
15357SOL     OW47312   0.570   7.746   6.273 -0.1941 -0.4596 -0.8842
15357SOL    HW147313   0.510   7.801   6.324 -0.3366 -0.6875 -0.8056
15357SOL    HW247314   0.587   7.670   6.329  0.4397 -0.2363 -0.7667
15358SOL     OW47315   6.976   4.377   7.270  0.7153  0.5225 -0.0257
15358SOL    HW147316   6.942   4.449   7.323 -1.0096 -0.1739 -0.1475
15358SOL    HW247317   6.938   4.391   7.184 -0.6357 -1.1888  0.2567
15359SOL     OW47318   7.395   2.732   2.169  0.4274  0.0529  0.1094
15359SOL    HW147319   7.322   2.725   2.231  0.3215 -0.3364 -0.0579
15359SOL    HW247320   7.427   2.642   2.160 -0.7247 -0.1758 -1.8168
15360SOL     OW47321   1.549   7.069   8.100 -0.1290  0.4177 -0.2062
15360SOL    HW147322   1.607   7.083   8.175  0.9265 -0.2499 -0.8829
15360SOL    HW247323   1.510   6.982   8.116  0.3180  0.1490 -0.5747
15361SOL     OW47324   3.369   7.760   3.686  0.1383  0.7055 -0.1250
15361SOL    HW147325   3.375   7.814   3.607  1.8223  0.6231 -0.0779
15361SOL    HW247326   3.316   7.685   3.660 -0.9817  1.6608 -0.6085
15362SOL     OW47327   4.874   3.899   1.734 -0.3394 -0.8755 -0.1542
15362SOL    HW147328   4.945   3.936   1.683  0.3702 -1.9270  0.0413
15362SOL    HW247329   4.850   3.819   1.687 -0.8373 -0.9473  0.2180
15363SOL     OW47330   3.097   0.825   0.910 -0.5368 -0.1599 -0.2727
15363SOL    HW147331   3.087   0.831   1.005 -0.1260  1.6119 -0.3257
15363SOL    HW247332   3.145   0.743   0.896 -0.4426 -0.3440  1.0611
15364SOL     OW47333   5.017   2.617   2.076  0.3163 -0.2201 -0.0763
15364SOL    HW147334   5.109   2.628   2.052 -0.0173 -1.4921 -2.0176
15364SOL    HW247335   5.017   2.550   2.144  0.7297 -1.0233 -0.8654
15365SOL     OW47336   1.586   0.439   0.903  0.0665  0.0843 -0.4809
15365SOL    HW147337   1.588   0.534   0.894 -0.1394  0.1746  0.3430
15365SOL    HW247338   1.535   0.424   0.983 -0.2462 -0.7299 -0.8366
15366SOL     OW47339   7.152   0.364   4.816  0.4442 -0.0750  0.0748
15366SOL    HW147340   7.247   0.353   4.809  0.4843 -1.5271  2.2338
15366SOL    HW247341   7.116   0.282   4.782  0.0896 -0.5039  1.4383
15367SOL     OW47342   1.315   1.888   8.203 -0.7724 -0.3248  0.1254
15367SOL    HW147343   1.354   1.853   8.283 -0.7740  1.1255  0.7677
15367SOL    HW247344   1.231   1.843   8.196 -0.3804 -1.1169  0.4536
15368SOL     OW47345   4.823   6.542   7.145 -0.3835 -0.4285 -0.5054
15368SOL    HW147346   4.737   6.516   7.180 -0.6812 -0.0494 -0.9523
15368SOL    HW247347   4.886   6.496   7.201 -0.8314  0.5778  0.8699
15369SOL     OW47348   7.343   2.867   8.124  0.1281 -0.6514  0.3454
15369SOL    HW147349   7.284   2.917   8.067 -0.1490  0.1110  1.2832
15369SOL    HW247350   7.368   2.791   8.071  1.8295  1.2760 -1.7286
15370SOL     OW47351   0.286   1.772   1.310 -0.2002 -0.2285  0.0629
15370SOL    HW147352   0.370   1.815   1.298  0.0348 -1.0154 -1.2198
15370SOL    HW247353   0.222   1.843   1.314  0.5243  0.3689  1.0070
15371SOL     OW47354   6.784   7.415   7.442 -0.1359 -0.1900 -0.1681
15371SOL    HW147355   6.800   7.475   7.369  0.5937 -1.0211 -0.6898
15371SOL    HW247356   6.872   7.394   7.475 -0.4830  1.0252  1.6507
15372SOL     OW47357   6.187   2.361   0.360 -0.4825 -0.1506 -0.0306
15372SOL    HW147358   6.154   2.446   0.390  1.0601  0.8934 -1.1489
15372SOL    HW247359   6.141   2.345   0.278 -1.6050 -0.9525  0.7528
15373SOL     OW47360   5.096   6.956   7.908  0.2856  0.1327 -0.2200
15373SOL    HW147361   5.162   7.025   7.909  0.6850 -0.2524  0.8632
15373SOL    HW247362   5.120   6.899   7.981  0.0709 -1.2537 -1.2011
15374SOL     OW47363   6.840   4.325   5.257 -0.0744 -0.2499  0.2824
15374SOL    HW147364   6.756   4.323   5.211  0.9639 -0.7182 -1.6602
15374SOL    HW247365   6.851   4.417   5.282 -0.8322 -0.0467 -0.1115
15375SOL     OW47366   6.564   3.577   2.460  0.0419 -0.1403  0.2610
15375SOL    HW147367   6.627   3.624   2.406 -0.2037 -3.0130 -2.7162
15375SOL    HW247368   6.483   3.629   2.455  0.2648  0.0610 -1.5128
15376SOL     OW47369   1.722   5.752   0.508 -0.2893 -0.6082  0.4700
15376SOL    HW147370   1.772   5.804   0.571  0.2646 -1.7742  0.9985
15376SOL    HW247371   1.632   5.757   0.539 -0.3009  0.3657  0.2934
15377SOL     OW47372   6.910   2.939   2.523 -0.9518  0.0670  0.0589
15377SOL    HW147373   6.872   2.971   2.604 -1.5446 -1.1452  0.2680
15377SOL    HW247374   6.904   3.013   2.463 -0.6745  0.9108  1.0567
15378SOL     OW47375   0.610   6.285   0.685 -0.1125 -0.1524 -0.6845
15378SOL    HW147376   0.609   6.378   0.660  0.1979  0.1496  0.3760
15378SOL    HW247377   0.657   6.242   0.614 -1.2617  0.3244 -1.7499
15379SOL     OW47378   1.888   7.160   7.087 -0.4767  0.3620 -0.2318
15379SOL    HW147379   1.957   7.202   7.035  2.0609 -1.4881  1.4898
15379SOL    HW247380   1.881   7.072   7.050 -1.6835  0.4368 -0.1772
15380SOL     OW47381   2.960   5.646   4.151  0.4359 -0.0291 -0.5376
15380SOL    HW147382   2.876   5.659   4.105  0.2293 -2.9502 -1.0644
15380SOL    HW247383   2.936   5.616   4.238  0.9064  2.4162  0.4685
15381SOL     OW47384   7.623   4.798   8.132 -0.1067  0.2785  0.5167
15381SOL    HW147385   7.586   4.880   8.100 -0.1973 -0.3883 -1.1253
15381SOL    HW247386   7.715   4.800   8.104 -0.4568 -0.7842 -0.7464
15382SOL     OW47387   4.507   8.077   2.642  0.1223  0.2240  0.1894
15382SOL    HW147388   4.535   8.168   2.651  0.3941  0.1502  0.0751
15382SOL    HW247389   4.576   8.026   2.683  0.1044  0.0508  0.0073
15383SOL     OW47390   0.475   4.731   1.684 -0.4671 -0.2327 -0.4376
15383SOL    HW147391   0.380   4.723   1.680 -0.5755  0.4007  0.5973
15383SOL    HW247392   0.490   4.799   1.750  0.7028 -0.4029 -0.5235
15384SOL     OW47393   3.933   4.071   3.174 -0.6209  0.6856 -0.5714
15384SOL    HW147394   3.870   4.133   3.210 -0.8170  0.4426 -0.4948
15384SOL    HW247395   3.919   3.991   3.223 -0.4312  0.5532 -0.7330
15385SOL     OW47396   1.532   0.758   4.400  0.1442 -0.1824 -0.2120
15385SOL    HW147397   1.570   0.733   4.484 -0.1211  1.1809  0.3223
15385SOL    HW247398   1.606   0.786   4.347  0.2520 -0.5375 -0.2473
15386SOL     OW47399   5.530   4.213   0.089 -0.4470 -0.3350 -0.3474
15386SOL    HW147400   5.486   4.263   0.157  0.0477  1.0637 -1.0426
15386SOL    HW247401   5.485   4.237   0.008  2.9615  2.8836 -1.4187
15387SOL     OW47402   6.191   2.379   7.231  0.2273  0.5159 -0.6464
15387SOL    HW147403   6.247   2.445   7.272 -0.9726  1.9317 -1.2595
15387SOL    HW247404   6.253   2.313   7.198  1.3858  0.9465  0.6187
15388SOL     OW47405   1.531   2.598   7.145 -0.3903  0.5223 -0.2114
15388SOL    HW147406   1.479   2.617   7.067 -0.1381  1.2863 -0.1911
15388SOL    HW247407   1.530   2.679   7.196 -0.2902  0.1265  0.4270
15389SOL     OW47408   6.479   0.856   4.483  0.2041  0.0965 -0.1330
15389SOL    HW147409   6.571   0.881   4.478 -0.4044  2.1545 -1.4798
15389SOL    HW247410   6.441   0.889   4.402 -2.1148  0.8847  1.2469
15390SOL     OW47411   1.242   0.143   6.247  0.2984 -0.2387 -0.0520
15390SOL    HW147412   1.258   0.177   6.335  0.3616 -2.1052  0.6663
15390SOL    HW247413   1.261   0.217   6.189  0.6377  0.8820  1.4693
15391SOL     OW47414   6.135   7.251   5.147  0.0837  0.4465  0.3206
15391SOL    HW147415   6.195   7.254   5.072 -0.0693 -1.4409  0.1011
15391SOL    HW247416   6.186   7.284   5.220  1.2262 -0.5920  0.0145
15392SOL     OW47417   4.512   3.667   5.803 -0.2853 -0.2334  0.3699
15392SOL    HW147418   4.510   3.590   5.860  1.1267 -0.8970 -0.4391
15392SOL    HW247419   4.480   3.738   5.858  0.7221 -0.9196  1.8888
15393SOL     OW47420   0.716   7.951   4.058 -0.3775  0.5200 -0.6034
15393SOL    HW147421   0.797   7.955   4.007  0.4906 -0.0886  0.6758
15393SOL    HW247422   0.744   7.920   4.144 -1.9588  0.4630 -0.0899
15394SOL     OW47423   5.949   4.762   6.141  0.5414 -0.5657  0.1238
15394SOL    HW147424   6.014   4.754   6.072  2.2616  0.2580  1.6242
15394SOL    HW247425   5.960   4.683   6.194  0.0647 -0.5903  0.1917
15395SOL     OW47426   6.919   5.052   1.753  0.0941  0.6460  0.3993
15395SOL    HW147427   6.981   5.040   1.681  1.0837 -0.2176  1.3734
15395SOL    HW247428   6.834   5.029   1.715  0.7577 -0.8920 -0.1963
15396SOL     OW47429   6.245   6.080   7.125 -0.1946 -0.2153  0.0225
15396SOL    HW147430   6.159   6.111   7.152 -1.1046 -1.9041 -0.8511
15396SOL    HW247431   6.303   6.155   7.139 -2.0626  1.4295 -0.7303
15397SOL     OW47432   6.057   2.320   1.322  0.2658 -0.2651 -0.3420
15397SOL    HW147433   6.091   2.251   1.265 -1.6905 -1.3636 -0.2175
15397SOL    HW247434   5.992   2.276   1.377  1.7235  0.8532  2.4358
15398SOL     OW47435   6.058   2.042   0.095 -0.2738 -0.2378 -0.1320
15398SOL    HW147436   6.138   2.094   0.097 -0.0921 -0.4479 -1.5712
15398SOL    HW247437   6.073   1.971   0.158  0.0243  0.6452  0.7963
15399SOL     OW47438   6.380   3.428   7.059  0.2123 -0.4912  0.2469
15399SOL    HW147439   6.343   3.511   7.029 -1.1034 -0.2797  2.4001
15399SOL    HW247440   6.465   3.452   7.097 -0.1872 -0.1086  0.9052
15400SOL     OW47441   4.797   7.895   1.754 -0.2953 -0.0329 -0.1866
15400SOL    HW147442   4.749   7.956   1.698 -2.0447 -0.9085  0.3213
15400SOL    HW247443   4.729   7.844   1.798  1.1031 -1.0584  0.8390
15401SOL     OW47444   3.334   2.995   6.624  0.1553 -0.5453  0.1296
15401SOL    HW147445   3.419   2.978   6.583 -0.3499  0.9165 -1.5589
15401SOL    HW247446   3.355   3.052   6.698  0.8053 -1.3195  0.5499
15402SOL     OW47447   4.368   2.207   8.292  0.1625 -0.0645 -0.1895
15402SOL    HW147448   4.378   2.116   8.321 -0.3388 -0.1550 -0.2867
15402SOL    HW247449   4.283   2.234   8.328  1.1266  0.9516  1.3419
15403SOL     OW47450   7.596   7.823   4.657  0.1976  0.0693  0.0231
15403SOL    HW147451   7.686   7.806   4.685 -0.6208 -1.4145  1.8906
15403SOL    HW247452   7.583   7.765   4.582  0.5138 -0.3859  0.3140
15404SOL     OW47453   1.184   2.818   2.707 -0.8153  0.0676  0.0084
15404SOL    HW147454   1.154   2.835   2.617 -0.3586 -2.5110 -0.6896
15404SOL    HW247455   1.274   2.786   2.696 -0.8683 -0.5748  1.3415
15405SOL     OW47456   6.936   6.334   4.034  0.2135 -0.2043 -0.0233
15405SOL    HW147457   6.873   6.266   4.011 -0.5870 -0.1366  1.8912
15405SOL    HW247458   6.904   6.413   3.989 -2.5841  0.4616  2.9922
15406SOL     OW47459   2.146   2.704   2.671  0.5010 -0.1314 -0.0340
15406SOL    HW147460   2.142   2.675   2.763 -0.8631  0.6156  0.1529
15406SOL    HW247461   2.239   2.696   2.648  1.1760  1.3500  1.9743
15407SOL     OW47462   7.876   7.840   4.783 -0.1063  0.0795  0.2127
15407SOL    HW147463   7.859   7.892   4.862  4.3699  1.5564  0.3503
15407SOL    HW247464   7.864   7.749   4.812  0.1189  0.6664  2.2294
15408SOL     OW47465   4.759   2.941   6.509  0.3518  0.1730 -0.0509
15408SOL    HW147466   4.699   2.870   6.530 -0.6226  0.6549 -1.1862
15408SOL    HW247467   4.708   3.021   6.525  1.0903  0.6092  0.1658
15409SOL     OW47468   4.567   5.693   4.176  0.3476 -0.3225 -0.1046
15409SOL    HW147469   4.525   5.608   4.193 -0.5517 -0.0804 -1.0176
15409SOL    HW247470   4.498   5.757   4.194  1.0037  0.2137  0.5042
15410SOL     OW47471   3.401   7.218   6.308 -0.0975  0.6022  0.3877
15410SOL    HW147472   3.353   7.235   6.389  0.0404  0.6161  0.4673
15410SOL    HW247473   3.491   7.202   6.336 -0.0984  0.3710  0.2578
15411SOL     OW47474   5.095   6.000   2.563 -0.4424  0.1602 -0.5453
15411SOL    HW147475   5.102   5.910   2.532  1.0417  0.3743 -0.8915
15411SOL    HW247476   5.029   5.998   2.632 -0.3252 -1.2001 -0.4798
15412SOL     OW47477   6.732   6.825   5.164  0.3454 -0.4019  0.0883
15412SOL    HW147478   6.778   6.881   5.101  1.9916 -0.1428  1.4710
15412SOL    HW247479   6.736   6.738   5.126  0.3028 -0.0585 -0.7129
15413SOL     OW47480   8.221   0.757   1.571 -0.5816  0.5739  0.1763
15413SOL    HW147481   8.276   0.680   1.587 -0.4254  0.5352 -0.5324
15413SOL    HW247482   8.272   0.811   1.510 -1.1034  0.7806 -0.0779
15414SOL     OW47483   0.900   7.906   5.874  0.3680 -0.0089 -0.1195
15414SOL    HW147484   0.816   7.891   5.917  0.4854 -0.7005 -0.1166
15414SOL    HW247485   0.944   7.972   5.928 -0.5375  1.0150 -0.6247
15415SOL     OW47486   8.266   5.363   6.283 -0.8432  0.1030  0.0949
15415SOL    HW147487   8.223   5.314   6.353 -1.8348 -0.9095 -1.1955
15415SOL    HW247488   8.329   5.420   6.328 -2.0153  0.0342  1.8414
15416SOL     OW47489   5.008   0.281   7.321  0.3536  0.1956 -0.0246
15416SOL    HW147490   5.035   0.372   7.336  0.5897 -0.2178  2.1896
15416SOL    HW247491   4.943   0.264   7.389  1.1980 -1.6891  0.3285
15417SOL     OW47492   6.374   0.697   6.171  0.4624  0.3255 -0.2298
15417SOL    HW147493   6.392   0.607   6.196 -0.6933 -0.7016 -2.9060
15417SOL    HW247494   6.451   0.723   6.120 -0.6942 -0.3915 -2.4312
15418SOL     OW47495   5.731   0.719   6.982 -0.2295  0.0333  0.0370
15418SOL    HW147496   5.667   0.785   7.007 -1.3219 -1.1684  0.4700
15418SOL    HW247497   5.812   0.768   6.968 -1.6105  1.8326 -2.1659
15419SOL     OW47498   3.536   5.844   0.396  0.1471  0.1896  0.2835
15419SOL    HW147499   3.589   5.819   0.321 -0.9500 -0.3518 -0.3203
15419SOL    HW247500   3.497   5.928   0.371  0.0548  0.1785  0.3886
15420SOL     OW47501   1.064   0.766   6.068  0.1911  0.9029  0.2174
15420SOL    HW147502   1.142   0.818   6.087  0.6940  0.6731 -1.1447
15420SOL    HW247503   1.066   0.754   5.973 -1.8576  1.4308  0.0852
15421SOL     OW47504   3.179   3.017   5.372  0.2298  0.3399  0.9843
15421SOL    HW147505   3.230   3.095   5.395 -1.5332  1.6751  0.4182
15421SOL    HW247506   3.106   3.017   5.434 -1.1359  0.5113 -0.6298
15422SOL     OW47507   0.085   5.775   0.158 -0.1364 -0.6635 -0.0473
15422SOL    HW147508   0.100   5.745   0.248  2.3163  0.2081 -0.1297
15422SOL    HW247509   0.068   5.694   0.109 -0.5674 -1.2350  1.0388
15423SOL     OW47510   4.506   4.601   4.588 -0.4602 -0.0414  0.2457
15423SOL    HW147511   4.421   4.559   4.578 -0.4523 -0.2334  0.9432
15423SOL    HW247512   4.491   4.692   4.564 -0.2616 -0.6242 -2.2127
15424SOL     OW47513   6.260   5.354   2.408 -0.4060 -0.4372 -0.2272
15424SOL    HW147514   6.263   5.435   2.358 -1.7166 -0.2582 -0.0467
15424SOL    HW247515   6.167   5.330   2.409 -0.1175 -1.5810  0.2882
15425SOL     OW47516   0.287   1.157   5.514  0.2764  0.5847  0.2619
15425SOL    HW147517   0.285   1.068   5.478 -0.5719  0.8326 -0.3267
15425SOL    HW247518   0.327   1.147   5.600 -0.3554 -0.4510  0.4421
15426SOL     OW47519   1.286   3.531   8.196  0.6696  0.3266 -0.0457
15426SOL    HW147520   1.194   3.527   8.220  0.8198  0.9146  0.6511
15426SOL    HW247521   1.308   3.442   8.170 -0.3993  0.4405 -1.3661
15427SOL     OW47522   3.105   2.141   1.039  0.0113 -0.6062 -0.1284
15427SOL    HW147523   3.143   2.146   1.126 -1.6120 -0.5363  0.5882
15427SOL    HW247524   3.161   2.079   0.992  1.1569 -0.2980  0.8195
15428SOL     OW47525   2.153   3.563   8.011 -0.0889 -0.6016  0.1690
15428SOL    HW147526   2.149   3.640   8.067  0.7560 -0.1432 -0.3847
15428SOL    HW247527   2.190   3.596   7.928 -0.9557 -1.3370 -0.5188
15429SOL     OW47528   5.085   2.783   0.562  0.1859 -0.4805  0.0750
15429SOL    HW147529   5.116   2.754   0.476 -0.8871 -0.6738 -0.2505
15429SOL    HW247530   5.100   2.707   0.619  1.6216 -0.0890  0.2465
15430SOL     OW47531   2.373   7.542   2.043 -0.1922  0.4431 -0.0770
15430SOL    HW147532   2.455   7.557   2.091  0.1524  0.1993 -0.5701
15430SOL    HW247533   2.384   7.454   2.006 -1.5945 -0.4766  1.6486
15431SOL     OW47534   5.925   4.156   1.725  0.5639 -1.1088 -0.6056
15431SOL    HW147535   6.008   4.136   1.769  0.7854  3.0113  1.0302
15431SOL    HW247536   5.949   4.168   1.633  1.7406 -0.4046 -0.2227
15432SOL     OW47537   4.331   0.003   0.011  0.3799 -0.1795  0.3868
15432SOL    HW147538   4.301  -0.028  -0.075  0.7501  0.1815  0.1280
15432SOL    HW247539   4.362   0.092  -0.005 -0.4531  0.2489  1.0794
15433SOL     OW47540   6.610   5.741   8.054  0.8635 -0.6012 -0.0174
15433SOL    HW147541   6.544   5.696   8.000 -0.7584  0.7989  0.7678
15433SOL    HW247542   6.563   5.768   8.133  1.7846  2.4210 -0.4251
15434SOL     OW47543   5.995   2.709   5.343 -0.6808 -0.2672  0.1192
15434SOL    HW147544   6.042   2.697   5.426 -2.2558  0.2348  1.1037
15434SOL    HW247545   6.062   2.697   5.276  0.8699  0.4259  1.4959
15435SOL     OW47546   2.907   5.950   4.571 -0.5721 -0.0821  0.1265
15435SOL    HW147547   2.826   5.919   4.611 -1.5609  0.2701 -1.5241
15435SOL    HW247548   2.878   6.015   4.507  1.0620  0.4118 -0.1298
15436SOL     OW47549   0.864   3.188   2.969 -0.0146 -0.0714  0.2431
15436SOL    HW147550   0.958   3.181   2.948  0.4770 -2.0475  2.8957
15436SOL    HW247551   0.835   3.098   2.980 -2.1430  0.5520 -0.0475
15437SOL     OW47552   2.196   1.501   7.252 -0.7793  0.3744  0.9755
15437SOL    HW147553   2.212   1.571   7.315  0.3284  1.4629 -0.5076
15437SOL    HW247554   2.134   1.539   7.189  1.4577  0.7877 -1.0431
15438SOL     OW47555   5.834   2.585   3.453 -0.1622 -0.3802 -0.2897
15438SOL    HW147556   5.747   2.615   3.429  0.9875  1.4968 -2.3738
15438SOL    HW247557   5.873   2.658   3.500 -0.4191 -1.9987  2.5184
15439SOL     OW47558   1.113   4.587   3.359  0.4477 -0.4483  0.0673
15439SOL    HW147559   1.192   4.641   3.350 -0.9275  1.6587  0.5430
15439SOL    HW247560   1.125   4.541   3.443  0.4418  1.0795  0.9171
15440SOL     OW47561   3.669   4.554   2.399 -0.0765  0.4771 -0.2308
15440SOL    HW147562   3.729   4.628   2.408  0.6458 -0.3317  2.0683
15440SOL    HW247563   3.591   4.591   2.358  1.3864  1.8598 -1.8667
15441SOL     OW47564   8.218   6.810   6.556 -0.0844 -0.3918 -0.1114
15441SOL    HW147565   8.279   6.825   6.629 -1.7250 -1.5660  1.5229
15441SOL    HW247566   8.260   6.741   6.504  0.4761 -0.4392  0.3969
15442SOL     OW47567   0.720   7.378   7.668  0.1059  0.5600  0.4121
15442SOL    HW147568   0.646   7.418   7.712  0.2676  0.8064  0.4612
15442SOL    HW247569   0.792   7.439   7.682  0.1899  0.5699 -0.0803
15443SOL     OW47570   6.379   1.810   7.320 -0.2596  0.6682 -0.1217
15443SOL    HW147571   6.469   1.798   7.350 -0.5081  2.5564  1.5141
15443SOL    HW247572   6.387   1.865   7.242  0.0663 -0.2125 -0.7218
15444SOL     OW47573   3.435   3.692   0.561  0.0151  0.3402 -0.2108
15444SOL    HW147574   3.520   3.648   0.547 -0.2909 -0.4338  0.3036
15444SOL    HW247575   3.458   3.775   0.601  0.5449  0.2034 -0.2152
15445SOL     OW47576   8.158   3.517   2.821 -0.5992  0.8424 -0.2917
15445SOL    HW147577   8.103   3.556   2.753  0.7412  0.5270 -1.5963
15445SOL    HW247578   8.247   3.548   2.800 -0.0174 -0.1570  0.6655
15446SOL     OW47579   1.126   5.405   1.843  0.1045 -0.2651  0.2489
15446SOL    HW147580   1.173   5.338   1.794  0.0402  0.8139 -1.3250
15446SOL    HW247581   1.034   5.383   1.832  0.1664 -1.6685  2.3046
15447SOL     OW47582   2.061   6.492   0.573  0.7192 -0.0482  0.1426
15447SOL    HW147583   1.983   6.485   0.518 -0.1839  1.6453  1.1382
15447SOL    HW247584   2.033   6.547   0.647  2.4065 -0.7565  1.3468
15448SOL     OW47585   7.850   5.590   8.298 -0.1515 -0.4037 -0.1841
15448SOL    HW147586   7.758   5.589   8.269 -0.6424 -2.9318  1.2682
15448SOL    HW247587   7.844   5.596   8.393  1.2439  0.9841 -0.1838
15449SOL     OW47588   2.106   4.339   2.594 -0.7369  0.1241 -0.6336
15449SOL    HW147589   2.098   4.350   2.499  1.3049  1.3971 -0.6804
15449SOL    HW247590   2.189   4.292   2.606 -0.1916  1.3593  0.5873
15450SOL     OW47591   4.052   4.622   3.152 -0.4164 -0.2687  0.3898
15450SOL    HW147592   4.135   4.582   3.180 -0.0928 -0.8993 -1.4348
15450SOL    HW247593   4.054   4.710   3.192 -1.0163 -1.8812  4.1795
15451SOL     OW47594   5.083   2.616   6.195 -0.4733  0.3596  0.1077
15451SOL    HW147595   5.067   2.547   6.131 -2.5951  1.1875 -0.2921
15451SOL    HW247596   5.078   2.698   6.145 -1.2928  0.9722  1.1638
15452SOL     OW47597   2.933   7.072   2.099 -0.1829 -0.7990  0.6995
15452SOL    HW147598   2.853   7.115   2.129 -0.6101 -0.9993 -0.1369
15452SOL    HW247599   2.948   7.002   2.163 -0.4071 -0.4562  1.1300
15453SOL     OW47600   2.800   6.177   5.547  0.1070  0.3469  0.4143
15453SOL    HW147601   2.764   6.219   5.625  0.6111  0.6271  0.4969
15453SOL    HW247602   2.856   6.243   5.507 -2.3119  1.2087 -1.7505
15454SOL     OW47603   2.111   0.821   1.949 -0.2956  0.4152 -0.1403
15454SOL    HW147604   2.111   0.910   1.915 -1.2072  0.7810  0.7883
15454SOL    HW247605   2.022   0.789   1.934 -0.1672 -0.0936  0.1549
15455SOL     OW47606   4.642   7.682   1.176  0.3749 -0.2369  0.0246
15455SOL    HW147607   4.735   7.667   1.192  0.4209 -1.0560 -0.9835
15455SOL    HW247608   4.609   7.598   1.144 -1.0196 -0.3667  1.7259
15456SOL     OW47609   1.447   0.558   5.327  0.0421  0.3550  0.2077
15456SOL    HW147610   1.426   0.468   5.350  2.6188  0.0144  1.3187
15456SOL    HW247611   1.378   0.610   5.369 -1.2452 -1.0305 -0.1344
15457SOL     OW47612   0.778   6.964   3.958 -0.1131 -0.1421  0.2071
15457SOL    HW147613   0.845   6.903   3.925  1.3485  1.5019  0.0772
15457SOL    HW247614   0.764   6.937   4.049  0.7149 -0.4924  0.2355
15458SOL     OW47615   4.285   4.475   2.932  0.0252 -0.9177 -0.3354
15458SOL    HW147616   4.267   4.522   2.850  0.2599  1.4934  0.9389
15458SOL    HW247617   4.376   4.446   2.923  0.7953  1.2802 -0.0847
15459SOL     OW47618   6.462   7.374   6.537 -0.5836 -0.3113  0.8151
15459SOL    HW147619   6.419   7.431   6.600 -2.8311 -0.5576 -0.4556
15459SOL    HW247620   6.534   7.427   6.502 -0.7154  0.6180  1.9386
15460SOL     OW47621   3.756   6.877   4.862 -0.3019 -0.2996 -0.5779
15460SOL    HW147622   3.730   6.880   4.954 -1.6958 -0.5952 -0.9549
15460SOL    HW247623   3.792   6.964   4.844  0.0800 -0.2789  0.2713
15461SOL     OW47624   2.746   3.836   4.217 -0.3924  0.4468 -0.3953
15461SOL    HW147625   2.784   3.795   4.139  1.2427  1.4820 -0.1626
15461SOL    HW247626   2.666   3.785   4.234 -0.9213  0.3889 -2.8838
15462SOL     OW47627   7.206   6.716   7.472 -0.1188 -0.3608 -0.1245
15462SOL    HW147628   7.187   6.665   7.393  0.3485  0.4212 -0.7493
15462SOL    HW247629   7.253   6.793   7.440 -1.6933  0.9775  0.6881
15463SOL     OW47630   7.303   2.159   0.733  0.4908 -0.7799  0.1832
15463SOL    HW147631   7.290   2.143   0.639  1.5860  0.4280 -0.1904
15463SOL    HW247632   7.216   2.186   0.764 -0.1115 -2.1763 -0.2674
15464SOL     OW47633   8.283   3.437   1.306 -0.3431  0.0240  0.6726
15464SOL    HW147634   8.370   3.399   1.297  0.4840  1.9792  0.1635
15464SOL    HW247635   8.288   3.489   1.387 -0.8273  0.6837  0.2804
15465SOL     OW47636   1.201   2.514   2.541 -0.0047  0.4645  0.2578
15465SOL    HW147637   1.186   2.554   2.455 -0.2273 -1.4786 -0.6280
15465SOL    HW247638   1.186   2.421   2.527  1.3115 -0.0476  2.0930
15466SOL     OW47639   8.078   2.049   4.457 -0.1458 -0.2900 -0.3243
15466SOL    HW147640   8.064   2.138   4.425 -2.0257  0.0633  1.3838
15466SOL    HW247641   8.151   2.058   4.520 -0.7904  0.1771  0.3632
15467SOL     OW47642   1.601   5.574   1.563 -1.1955 -0.7058 -0.4272
15467SOL    HW147643   1.543   5.637   1.604 -1.1185 -0.5075 -0.6222
15467SOL    HW247644   1.543   5.515   1.515 -1.3529 -1.4952  0.7200
15468SOL     OW47645   3.171   1.489   8.299 -0.1034  0.8908  0.6292
15468SOL    HW147646   3.143   1.561   8.355 -0.2780  0.8318  0.6212
15468SOL    HW247647   3.099   1.426   8.304 -0.0397  0.8046  0.4828
15469SOL     OW47648   4.970   0.011   0.790  0.4818 -0.3536  0.5556
15469SOL    HW147649   4.940   0.050   0.708 -0.0604 -0.1411  0.8599
15469SOL    HW247650   4.976   0.084   0.851  0.1013 -0.6466  0.9394
15470SOL     OW47651   7.809   3.231   5.262 -0.2952 -0.2379 -0.0608
15470SOL    HW147652   7.877   3.296   5.279  0.2774 -0.2064 -2.2096
15470SOL    HW247653   7.759   3.225   5.343  1.4720  0.7094  1.1191
15471SOL     OW47654   6.528   2.147   6.356 -0.0948 -0.2295  0.3536
15471SOL    HW147655   6.461   2.149   6.424  0.7501  0.2631  1.1708
15471SOL    HW247656   6.603   2.193   6.394  0.4557 -0.1397 -0.8255
15472SOL     OW47657   7.211   3.617   7.173  0.0599 -0.4290 -0.0512
15472SOL    HW147658   7.244   3.576   7.253  2.0378  2.6392  0.7966
15472SOL    HW247659   7.288   3.625   7.117 -0.5158  1.0148 -0.6587
15473SOL     OW47660   0.286   0.019   1.433 -0.1066  0.1219 -0.2182
15473SOL    HW147661   0.379   0.033   1.447  0.2564 -0.9604 -1.4414
15473SOL    HW247662   0.251   0.106   1.416  0.9403  0.3558 -1.2321
15474SOL     OW47663   6.503   7.867   3.609 -0.1751 -0.8630  0.2335
15474SOL    HW147664   6.559   7.909   3.675 -0.6010 -0.6480  0.4614
15474SOL    HW247665   6.551   7.788   3.584  0.3409 -0.5620  0.2549
15475SOL     OW47666   6.901   5.811   4.255  0.1763  0.1951  0.0781
15475SOL    HW147667   6.843   5.752   4.303  0.1893 -0.1280 -0.3044
15475SOL    HW247668   6.985   5.806   4.302  0.6767 -1.3888 -0.9392
15476SOL     OW47669   2.629   0.171   7.609 -0.2946  0.4032 -0.0189
15476SOL    HW147670   2.541   0.160   7.646  0.0989  0.2959  0.8950
15476SOL    HW247671   2.675   0.089   7.631 -0.1449  0.2131 -1.0065
15477SOL     OW47672   4.110   3.673   5.644  0.0961  0.4087  0.2720
15477SOL    HW147673   4.145   3.662   5.556 -1.2554 -0.0288 -0.2198
15477SOL    HW247674   4.044   3.604   5.653  0.5816  0.1197  1.8142
15478SOL     OW47675   1.944   2.890   2.993  0.5611 -0.0641  0.4590
15478SOL    HW147676   2.013   2.823   2.995 -1.8482 -2.6761  0.2847
15478SOL    HW247677   1.970   2.954   3.059  3.1698 -0.9738  0.3520
15479SOL     OW47678   5.624   6.237   6.170  0.3002 -0.1108  0.1589
15479SOL    HW147679   5.695   6.226   6.107 -1.2803 -1.7582 -1.4119
15479SOL    HW247680   5.596   6.147   6.190  0.2990  0.4161  2.6718
15480SOL     OW47681   2.105   5.023   6.424  0.0858  0.1869  0.1992
15480SOL    HW147682   2.087   4.987   6.511 -1.3485 -1.3240 -0.6950
15480SOL    HW247683   2.190   5.067   6.434 -0.2523  0.4032  2.4547
15481SOL     OW47684   1.028   7.237   1.963 -0.1216 -0.0281 -0.3184
15481SOL    HW147685   0.990   7.149   1.962 -0.9299  0.2021  3.5986
15481SOL    HW247686   1.109   7.227   2.013  1.2625  0.9309 -2.3073
15482SOL     OW47687   1.952   1.109   3.898  0.0151  0.9529 -0.0015
15482SOL    HW147688   1.874   1.078   3.852 -0.4004  1.3654  0.4086
15482SOL    HW247689   1.984   1.033   3.946  0.2103  0.6321 -0.6460
15483SOL     OW47690   4.109   3.776   4.567  0.3042  0.7886  0.2442
15483SOL    HW147691   4.071   3.688   4.565  1.1883  0.4125 -0.3261
15483SOL    HW247692   4.177   3.774   4.499  0.1960  1.9690  0.0911
15484SOL     OW47693   0.726   6.866   0.757  1.2813  0.2937  0.0199
15484SOL    HW147694   0.782   6.903   0.825  1.3573 -1.1497  0.7457
15484SOL    HW247695   0.648   6.835   0.803  0.9643  0.0569 -0.6587
15485SOL     OW47696   8.146   6.097   1.611  0.3450  0.2625 -0.3763
15485SOL    HW147697   8.193   6.142   1.540  0.8369  1.2073  0.5399
15485SOL    HW247698   8.150   6.004   1.587 -1.2988  0.7498 -2.6557
15486SOL     OW47699   3.911   4.693   4.633  0.5168 -0.4226 -0.3193
15486SOL    HW147700   3.842   4.742   4.677  0.1503  0.5409 -1.9136
15486SOL    HW247701   3.881   4.684   4.543  1.3443 -2.1657 -0.4532
15487SOL     OW47702   0.387   7.390   4.070  0.6721 -0.4832 -0.1423
15487SOL    HW147703   0.318   7.364   4.009  0.7136 -1.7827  0.3568
15487SOL    HW247704   0.445   7.314   4.073  1.9506  0.4747 -0.3084
15488SOL     OW47705   7.251   1.362   4.503  0.0219  0.4988 -0.2116
15488SOL    HW147706   7.279   1.275   4.532 -0.7442  0.4016  0.2175
15488SOL    HW247707   7.181   1.386   4.562 -1.7033  0.2021 -2.0834
15489SOL     OW47708   1.539   7.652   2.708 -0.4337  0.0981 -0.3121
15489SOL    HW147709   1.504   7.732   2.749 -0.3489 -1.0061  1.9918
15489SOL    HW247710   1.487   7.642   2.629 -2.2587  1.0260  0.7182
15490SOL     OW47711   4.955   3.597   7.404 -0.3230 -0.1817 -0.4272
15490SOL    HW147712   4.938   3.690   7.422  0.9129  0.2535 -1.4298
15490SOL    HW247713   4.873   3.553   7.426 -0.4689  0.9635  1.3947
15491SOL     OW47714   5.913   2.960   6.307  0.1628 -0.3768  0.6658
15491SOL    HW147715   5.854   2.909   6.251  1.4111 -1.8815  0.6773
15491SOL    HW247716   5.922   2.907   6.387  0.9198  0.2026  0.9719
15492SOL     OW47717   7.358   2.956   5.319  0.0555  0.0466 -0.4702
15492SOL    HW147718   7.441   2.932   5.278 -0.0514  1.3071 -1.4478
15492SOL    HW247719   7.321   3.022   5.261 -1.3714 -0.1012  0.2603
15493SOL     OW47720   7.781   0.135   6.016 -0.0203 -0.3901  0.1813
15493SOL    HW147721   7.697   0.156   5.975  0.8959  0.8902 -1.0863
15493SOL    HW247722   7.762   0.134   6.109 -0.9896  2.1574  0.0636
15494SOL     OW47723   1.838   0.072   1.719  0.4269 -0.1528  0.7050
15494SOL    HW147724   1.932   0.071   1.701  0.4025 -1.4282  0.5903
15494SOL    HW247725   1.829   0.131   1.794  1.1819  0.8320  0.0305
15495SOL     OW47726   4.218   2.503   4.124 -0.3393  0.0059  0.3896
15495SOL    HW147727   4.203   2.582   4.175 -2.1263  0.4805 -0.8125
15495SOL    HW247728   4.135   2.455   4.129 -0.5176  0.0319 -1.9998
15496SOL     OW47729   2.468   1.306   6.098 -0.2189 -0.1559  0.1946
15496SOL    HW147730   2.480   1.400   6.089  0.0341 -0.0721  1.2768
15496SOL    HW247731   2.441   1.294   6.189  1.9813 -1.3464  0.7338
15497SOL     OW47732   3.838   1.167   8.129  0.3619  0.3160 -0.1206
15497SOL    HW147733   3.858   1.188   8.220 -1.5105  0.0555  0.3685
15497SOL    HW247734   3.827   1.072   8.128 -1.0399  0.4681 -0.3212
15498SOL     OW47735   1.378   1.487   1.509  0.1216  0.1993  0.0448
15498SOL    HW147736   1.443   1.418   1.522  0.2211  0.2386 -0.2279
15498SOL    HW247737   1.317   1.451   1.445  0.5847  0.6302 -0.6601
15499SOL     OW47738   2.265   7.775   7.905  0.4336  0.0736  0.2020
15499SOL    HW147739   2.346   7.771   7.955  0.2798  0.4562  0.4855
15499SOL    HW247740   2.220   7.693   7.926  0.7878 -0.1812 -0.0287
15500SOL     OW47741   6.715   3.805   3.763 -0.1463 -0.1372 -0.1323
15500SOL    HW147742   6.695   3.849   3.846  0.2018  0.8201 -0.5459
15500SOL    HW247743   6.805   3.776   3.773 -0.2770 -0.4881  0.0261
15501SOL     OW47744   1.161   5.936   3.648  0.0118  0.6058 -0.2249
15501SOL    HW147745   1.072   5.946   3.613 -0.1911 -0.3296  0.0132
15501SOL    HW247746   1.150   5.882   3.726  0.7905  0.5366 -0.1646
15502SOL     OW47747   7.387   7.877   5.642 -0.3269 -0.3900 -0.0116
15502SOL    HW147748   7.382   7.826   5.723 -4.2553 -0.7868 -0.4067
15502SOL    HW247749   7.365   7.966   5.668  2.5509  0.3451  0.0108
15503SOL     OW47750   3.242   5.061   1.852  0.2350 -0.3474  0.4601
15503SOL    HW147751   3.265   4.990   1.912  1.7031 -0.1089  0.2059
15503SOL    HW247752   3.224   5.135   1.909 -0.0396 -0.5756  0.6736
15504SOL     OW47753   0.096   6.394   5.791 -0.1183 -0.3636  0.2565
15504SOL    HW147754   0.036   6.450   5.742  0.0099  0.2917  0.8551
15504SOL    HW247755   0.137   6.339   5.724 -0.6177 -0.0959 -0.2698
15505SOL     OW47756   1.588   6.938   6.136  0.2872 -0.3225  0.5064
15505SOL    HW147757   1.609   6.874   6.068  2.1145  0.9485 -0.1648
15505SOL    HW247758   1.539   7.006   6.090  1.4760  0.5122  0.4667
15506SOL     OW47759   2.707   8.172   1.339  0.0623  0.1096 -0.1794
15506SOL    HW147760   2.713   8.213   1.253 -0.2378  1.1722  0.3016
15506SOL    HW247761   2.650   8.096   1.325  1.0368 -0.4421 -1.1753
15507SOL     OW47762   5.773   3.007   5.292  0.2606 -0.1914 -0.3242
15507SOL    HW147763   5.684   3.044   5.296  0.3012  0.0690 -1.5593
15507SOL    HW247764   5.795   2.987   5.383 -0.7001  0.6257  0.0991
15508SOL     OW47765   5.125   1.976   7.578 -0.3483 -0.3276 -0.6775
15508SOL    HW147766   5.207   1.929   7.561 -0.7924 -1.0981 -0.6944
15508SOL    HW247767   5.153   2.065   7.601  0.5085 -0.6801 -0.3366
15509SOL     OW47768   4.866   3.574   1.090  0.2056 -0.6331  0.1599
15509SOL    HW147769   4.932   3.561   1.158  0.4494  1.6059  0.3891
15509SOL    HW247770   4.910   3.549   1.008  1.5523  1.3551  0.2425
15510SOL     OW47771   4.755   3.508   6.705 -0.7102 -0.0103  0.7336
15510SOL    HW147772   4.753   3.567   6.630  0.5827 -0.1467  0.5897
15510SOL    HW247773   4.780   3.423   6.669  1.6939  0.3229  1.5573
15511SOL     OW47774   4.066   5.872   6.556  0.0511 -0.1809 -0.3801
15511SOL    HW147775   4.015   5.792   6.559  2.0798 -1.5700 -1.4759
15511SOL    HW247776   4.124   5.868   6.632  1.7567 -0.9003 -1.6871
15512SOL     OW47777   0.842   7.883   1.083  0.0807  0.3706 -0.1443
15512SOL    HW147778   0.922   7.854   1.126 -0.4262  0.5432  0.9417
15512SOL    HW247779   0.868   7.961   1.033  0.5755  0.4625  0.2496
15513SOL     OW47780   2.533   6.261   5.460 -0.0946  0.2708 -0.0101
15513SOL    HW147781   2.472   6.202   5.504 -0.6321  0.6339 -0.2590
15513SOL    HW247782   2.620   6.227   5.482 -0.4162 -1.2837 -1.0753
15514SOL     OW47783   5.971   4.711   1.064  0.4708 -0.2926 -0.7518
15514SOL    HW147784   6.013   4.680   0.983  0.1095 -0.1629 -0.9890
15514SOL    HW247785   6.021   4.788   1.089  3.3436 -2.7825  1.5233
15515SOL     OW47786   1.642   1.333   4.660 -0.3974  0.2218 -0.0512
15515SOL    HW147787   1.671   1.273   4.728 -2.6555 -0.8921 -0.0252
15515SOL    HW247788   1.593   1.278   4.599 -0.1256  1.5570 -1.5065
15516SOL     OW47789   7.617   3.212   7.324  0.8682 -0.6629 -0.6613
15516SOL    HW147790   7.624   3.124   7.361  0.2691 -0.5566 -0.2873
15516SOL    HW247791   7.681   3.214   7.253  1.8531 -0.9450  0.2258
15517SOL     OW47792   1.793   6.179   1.670  0.6857 -0.3372  0.2110
15517SOL    HW147793   1.808   6.097   1.623 -0.7586  0.4377 -1.6671
15517SOL    HW247794   1.857   6.240   1.633 -0.1142  0.1348 -0.4165
15518SOL     OW47795   5.427   7.403   5.344 -0.5181  0.0613 -0.3569
15518SOL    HW147796   5.516   7.390   5.311 -0.8578  0.4718 -1.4462
15518SOL    HW247797   5.383   7.319   5.331  0.0469 -0.5175  1.2930
15519SOL     OW47798   3.318   0.382   5.317  0.3704 -0.3546  0.1414
15519SOL    HW147799   3.279   0.429   5.391  0.1657 -0.9779  0.4312
15519SOL    HW247800   3.276   0.420   5.240 -1.1374 -1.3068  0.4700
15520SOL     OW47801   0.744   0.163   0.740 -0.4769  0.6916 -0.3800
15520SOL    HW147802   0.824   0.112   0.752 -0.2383  1.1703  0.0920
15520SOL    HW247803   0.758   0.209   0.657 -0.4720  0.3872 -0.5470
15521SOL     OW47804   4.839   2.095   5.119  0.2364  0.0198 -0.0048
15521SOL    HW147805   4.776   2.118   5.050 -0.5285  1.0720  1.0163
15521SOL    HW247806   4.808   2.011   5.153 -0.6757  0.5760  0.5515
15522SOL     OW47807   2.725   7.283   3.326  0.4157  0.3139  0.0260
15522SOL    HW147808   2.750   7.349   3.261  1.1633 -0.0666 -0.0794
15522SOL    HW247809   2.765   7.202   3.294 -1.0629 -0.3493 -0.2103
15523SOL     OW47810   7.921   0.939   7.346 -0.1120  0.3347  0.0114
15523SOL    HW147811   7.924   0.939   7.441 -1.2839  2.1705  0.0653
15523SOL    HW247812   8.012   0.924   7.319  0.4431  1.1742  1.3989
15524SOL     OW47813   2.462   0.089   3.541 -0.5271 -0.1968 -0.1637
15524SOL    HW147814   2.521   0.049   3.478  0.0832  0.6957 -0.1750
15524SOL    HW247815   2.420   0.161   3.493  0.3962  0.8785  0.6102
15525SOL     OW47816   0.149   3.914   3.402  0.2872  0.0707  0.1188
15525SOL    HW147817   0.186   3.878   3.321  2.0094 -0.9546  1.3238
15525SOL    HW247818   0.218   3.970   3.437 -1.6877  3.2067 -0.7763
15526SOL     OW47819   3.230   6.484   5.244 -0.2508  0.4877 -0.3082
15526SOL    HW147820   3.224   6.566   5.194 -2.0993  1.1859  1.0199
15526SOL    HW247821   3.165   6.494   5.314  0.3913 -1.6080  0.6044
15527SOL     OW47822   6.408   6.473   6.402 -0.2583 -0.2529 -0.1681
15527SOL    HW147823   6.366   6.387   6.405 -0.4992 -0.1886 -1.4468
15527SOL    HW247824   6.496   6.458   6.438 -0.0651 -1.1913 -0.9824
15528SOL     OW47825   2.626   3.848   3.286  0.0450 -0.4976 -0.1407
15528SOL    HW147826   2.533   3.839   3.308 -0.1192 -2.1359 -1.4140
15528SOL    HW247827   2.630   3.923   3.226 -0.4076 -0.2276  0.1640
15529SOL     OW47828   0.271   6.502   3.223 -0.2713 -0.0254  0.8928
15529SOL    HW147829   0.214   6.479   3.149  1.4388  0.6846 -0.6935
15529SOL    HW247830   0.262   6.429   3.284  0.8508 -2.3148 -1.5589
15530SOL     OW47831   7.497   4.869   6.414  0.4783  0.3423  0.0874
15530SOL    HW147832   7.447   4.854   6.334 -0.6587  1.5102  0.5619
15530SOL    HW247833   7.439   4.921   6.470  0.8138 -1.4079  2.1302
15531SOL     OW47834   7.699   6.403   1.244 -0.5159  0.1795 -0.5460
15531SOL    HW147835   7.640   6.376   1.314 -1.5082 -3.9034 -2.7342
15531SOL    HW247836   7.786   6.402   1.284 -1.4532  2.0369  1.6298
15532SOL     OW47837   1.452   1.622   7.200  0.7515  0.2012 -0.0425
15532SOL    HW147838   1.424   1.688   7.263  0.9463 -0.2803  0.5612
15532SOL    HW247839   1.371   1.585   7.165  0.6372  0.0875  0.3418
15533SOL     OW47840   6.591   2.351   6.939 -0.4660 -0.5761 -0.0249
15533SOL    HW147841   6.672   2.402   6.937 -1.5617  1.1623 -0.9447
15533SOL    HW247842   6.584   2.312   6.852 -2.4091  2.2092 -1.1938
15534SOL     OW47843   1.390   6.886   2.226  0.2894  0.4695  0.3134
15534SOL    HW147844   1.378   6.792   2.216 -0.6010  0.6282 -0.1814
15534SOL    HW247845   1.421   6.916   2.141  0.3323  0.6556  0.3941
15535SOL     OW47846   3.768   2.346   6.743 -0.6187 -0.4301  0.0565
15535SOL    HW147847   3.679   2.335   6.776 -0.3733 -1.1238  0.5135
15535SOL    HW247848   3.760   2.340   6.648 -1.0843 -0.3067  0.0874
15536SOL     OW47849   5.524   3.294   8.092  0.1265 -0.1332  0.2620
15536SOL    HW147850   5.552   3.369   8.145 -1.3447 -0.9129  2.1986
15536SOL    HW247851   5.476   3.334   8.019  1.4472  0.9102 -0.0721
15537SOL     OW47852   6.886   4.240   0.087  0.0369 -0.1040  0.4287
15537SOL    HW147853   6.896   4.306   0.156 -3.5654 -1.0366  1.9665
15537SOL    HW247854   6.925   4.160   0.124  0.0386 -0.0582  0.5254
15538SOL     OW47855   8.019   3.420   1.441 -0.2913 -0.7760  0.4133
15538SOL    HW147856   8.070   3.409   1.361  0.8019  0.2357  0.9681
15538SOL    HW247857   8.072   3.381   1.509 -1.1473 -1.4798  0.6798
15539SOL     OW47858   3.586   3.605   7.286 -0.3738 -0.6970 -0.4120
15539SOL    HW147859   3.607   3.530   7.341 -0.2758 -1.0243 -0.8884
15539SOL    HW247860   3.596   3.572   7.197  1.6943  0.4529 -0.6302
15540SOL     OW47861   6.706   7.993   5.758  0.9510  0.1319  0.2761
15540SOL    HW147862   6.713   7.904   5.793  0.0757 -0.0261  0.0539
15540SOL    HW247863   6.635   7.989   5.694  2.0863  0.5748 -1.0441
15541SOL     OW47864   7.847   4.165   3.964 -0.2727 -0.1659  0.6763
15541SOL    HW147865   7.819   4.227   4.032 -0.0551  0.8878 -0.1715
15541SOL    HW247866   7.813   4.203   3.883  0.0215 -1.0762  0.1243
15542SOL     OW47867   3.642   4.947   3.590 -0.6653  0.1139 -0.4513
15542SOL    HW147868   3.730   4.984   3.598  0.1336 -1.4005 -2.0569
15542SOL    HW247869   3.595   5.008   3.533 -1.0072  1.4885  1.2554
15543SOL     OW47870   2.423   0.418   0.319  0.3377 -0.2402  0.1638
15543SOL    HW147871   2.361   0.490   0.334  2.2769  1.6725 -0.7319
15543SOL    HW247872   2.471   0.410   0.401 -0.4843 -1.1104  0.5582
15544SOL     OW47873   2.889   0.261   3.043  0.4761 -0.0837  0.3140
15544SOL    HW147874   2.954   0.315   3.088  0.6428 -0.5874  0.6810
15544SOL    HW247875   2.813   0.318   3.033  0.7341  0.2941  0.4912
15545SOL     OW47876   2.214   0.197   1.400 -0.5000 -0.4022  0.3021
15545SOL    HW147877   2.169   0.146   1.333 -0.8899  0.1642  0.1318
15545SOL    HW247878   2.157   0.192   1.477  0.7685 -2.5102  1.1706
15546SOL     OW47879   3.457   7.720   4.597  0.0061  0.6563 -0.6150
15546SOL    HW147880   3.404   7.715   4.517 -1.8306 -0.6355  0.6261
15546SOL    HW247881   3.519   7.648   4.590 -1.2615 -0.5232 -0.1704
15547SOL     OW47882   1.583   0.795   3.180 -0.0964  0.1923  0.0688
15547SOL    HW147883   1.523   0.867   3.162 -0.7986 -0.5800 -0.7986
15547SOL    HW247884   1.625   0.777   3.096  1.3038  0.6700  0.6577
15548SOL     OW47885   4.941   2.628   2.495  0.2168  0.0665 -0.2526
15548SOL    HW147886   4.882   2.559   2.525 -1.3439  0.7002 -1.7998
15548SOL    HW247887   4.895   2.709   2.517  2.1200  0.6713  1.7215
15549SOL     OW47888   4.157   6.261   1.860 -0.2672 -0.0057  0.0828
15549SOL    HW147889   4.182   6.323   1.928  0.6174  1.0400 -1.1682
15549SOL    HW247890   4.095   6.310   1.805 -1.0163 -0.8508  0.1721
15550SOL     OW47891   7.277   5.666   7.752 -0.1388 -0.2978 -0.1299
15550SOL    HW147892   7.183   5.659   7.732  0.1154 -1.6062 -0.9827
15550SOL    HW247893   7.320   5.635   7.673  0.9868 -1.2861  0.8520
15551SOL     OW47894   5.200   8.155   3.274  0.4111 -1.1257  0.1463
15551SOL    HW147895   5.116   8.182   3.236  1.7191  1.9708 -0.7090
15551SOL    HW247896   5.255   8.233   3.268  3.1463 -2.8918  1.3449
15552SOL     OW47897   2.355   6.588   4.201  0.2119  0.6174  0.5198
15552SOL    HW147898   2.393   6.501   4.204 -0.0068  0.3885 -2.5286
15552SOL    HW247899   2.384   6.629   4.283  1.6027 -1.7487  1.2568
15553SOL     OW47900   6.025   2.294   2.902 -0.3136 -0.4029 -0.0174
15553SOL    HW147901   6.104   2.280   2.955 -0.9926 -0.4006  1.0066
15553SOL    HW247902   5.972   2.356   2.953 -1.9005 -1.9724  0.3187
15554SOL     OW47903   2.964   5.002   8.265 -0.4002 -0.2093 -0.1811
15554SOL    HW147904   2.978   4.924   8.320 -1.4550  0.1178  0.5504
15554SOL    HW247905   3.047   5.013   8.219  0.1281 -1.1330  0.5281
15555SOL     OW47906   2.152   7.264   3.213 -0.3620  0.2204 -0.4808
15555SOL    HW147907   2.243   7.244   3.234 -0.7036 -2.9340 -1.7256
15555SOL    HW247908   2.113   7.179   3.193 -3.5862  1.5240 -0.0081
15556SOL     OW47909   7.749   3.388   4.594  0.0701 -0.3472 -0.0269
15556SOL    HW147910   7.767   3.413   4.503  2.2710  0.2452  0.5538
15556SOL    HW247911   7.829   3.346   4.624 -0.6980 -0.6670  1.6161
15557SOL     OW47912   3.621   2.742   3.032  0.5768  0.0682  0.4273
15557SOL    HW147913   3.620   2.795   3.112 -2.7039  0.5267  0.1359
15557SOL    HW247914   3.588   2.800   2.964  1.0380 -1.0656 -0.7815
15558SOL     OW47915   0.636   2.689   3.073  0.3527  0.2838 -0.6725
15558SOL    HW147916   0.655   2.641   3.154 -0.6593  0.6502 -0.1973
15558SOL    HW247917   0.580   2.630   3.023  0.4863  0.2920 -0.8277
15559SOL     OW47918   5.166   3.251   4.477 -0.0784 -0.1392 -0.1671
15559SOL    HW147919   5.254   3.264   4.441  0.3386 -0.9557  0.5365
15559SOL    HW247920   5.154   3.156   4.477 -0.4596 -0.1016  0.9072
15560SOL     OW47921   8.085   3.331   2.993  0.2938 -0.0330  0.0697
15560SOL    HW147922   7.997   3.322   2.956 -0.2868 -0.7625  1.5896
15560SOL    HW247923   8.128   3.395   2.937 -1.4036  0.7768 -0.3322
15561SOL     OW47924   7.962   2.449   3.073  0.2418 -0.2495 -0.1093
15561SOL    HW147925   7.885   2.429   3.128  0.7246 -0.4555  0.4978
15561SOL    HW247926   7.978   2.368   3.025  0.5930 -0.4752  0.3900
15562SOL     OW47927   3.110   2.243   6.144  0.1695 -1.2659  0.3292
15562SOL    HW147928   3.053   2.176   6.181 -1.3682 -0.3461 -0.2723
15562SOL    HW247929   3.117   2.309   6.213  0.4635 -1.3654  0.3912
15563SOL     OW47930   1.645   1.520   2.738  0.3262 -0.1670 -0.1531
15563SOL    HW147931   1.579   1.487   2.677  0.5006  0.7197 -0.8324
15563SOL    HW247932   1.657   1.449   2.801  0.0140 -1.0192 -1.0467
15564SOL     OW47933   4.111   8.047   1.231  0.1719 -0.4737 -0.3022
15564SOL    HW147934   4.145   7.964   1.263  2.1885  0.8921  1.2255
15564SOL    HW247935   4.103   8.035   1.136 -0.0114 -2.5461 -0.0362
15565SOL     OW47936   4.386   0.675   6.705 -0.9181 -0.2698 -0.7131
15565SOL    HW147937   4.382   0.717   6.620 -2.2483  2.5038  0.6482
15565SOL    HW247938   4.295   0.660   6.729 -0.5803 -0.7199  0.3555
15566SOL     OW47939   5.658   2.354   2.906  0.0302  0.7144 -0.2720
15566SOL    HW147940   5.738   2.399   2.879  2.4622 -3.2199 -0.0504
15566SOL    HW247941   5.663   2.352   3.002  0.1383 -0.3150 -0.2946
15567SOL     OW47942   4.243   4.118   1.083  0.0475  0.1538  0.2581
15567SOL    HW147943   4.152   4.127   1.053  0.0139  0.7625  0.5373
15567SOL    HW247944   4.289   4.191   1.042  0.9780 -1.6260 -1.9953
15568SOL     OW47945   7.873   1.807   0.359 -0.2572 -0.2376 -0.1080
15568SOL    HW147946   7.944   1.757   0.400  0.6456 -0.1037 -1.4633
15568SOL    HW247947   7.913   1.891   0.337 -0.4741 -0.6173 -2.0180
15569SOL     OW47948   8.101   5.447   7.473 -0.6438  0.0894 -0.4220
15569SOL    HW147949   8.124   5.537   7.449  0.8583  0.2074  1.3609
15569SOL    HW247950   8.166   5.393   7.428 -1.2436 -0.0860 -1.0906
15570SOL     OW47951   6.392   6.226   4.764 -0.0467 -0.1896  0.2864
15570SOL    HW147952   6.359   6.147   4.721  2.5922 -0.8022 -0.6582
15570SOL    HW247953   6.487   6.217   4.763  0.2609  2.4972  1.1547
15571SOL     OW47954   3.330   6.364   2.946 -0.5640 -0.1508  0.1419
15571SOL    HW147955   3.266   6.328   3.007 -0.8644 -0.2111 -0.2113
15571SOL    HW247956   3.406   6.384   3.001 -0.1573 -1.8959  0.2451
15572SOL     OW47957   6.572   6.902   1.485  0.0981  0.5559  0.1954
15572SOL    HW147958   6.668   6.897   1.488  0.1613  1.1381 -0.6361
15572SOL    HW247959   6.543   6.815   1.512  0.8905 -0.0679 -0.9462
15573SOL     OW47960   0.044   5.881   0.837  0.2377  0.9136 -0.3859
15573SOL    HW147961  -0.037   5.868   0.886  0.0107  1.0763 -0.7173
15573SOL    HW247962   0.112   5.843   0.893 -0.3032 -0.9213 -0.9414
15574SOL     OW47963   1.711   4.286   6.690  0.0534  0.0643  0.1996
15574SOL    HW147964   1.747   4.371   6.712  1.5207  0.2054 -2.6327
15574SOL    HW247965   1.768   4.223   6.734  0.3825  0.4641  0.3416
15575SOL     OW47966   0.893   1.027   8.238 -0.3752  0.1704  0.1590
15575SOL    HW147967   0.966   0.981   8.280  0.3830  1.5359  0.3862
15575SOL    HW247968   0.836   0.958   8.206  1.2430 -0.9461 -0.3890
15576SOL     OW47969   0.063   2.808   2.090  0.4122  0.2244  0.1423
15576SOL    HW147970  -0.001   2.746   2.124  0.9772  0.2580  1.2857
15576SOL    HW247971   0.148   2.771   2.114  0.8103  0.5571 -0.7049
15577SOL     OW47972   4.232   1.601   7.916 -0.3512 -0.1805 -0.5759
15577SOL    HW147973   4.251   1.657   7.991  1.7151 -0.1736 -1.0767
15577SOL    HW247974   4.138   1.585   7.922 -0.6790  1.9109  0.5507
15578SOL     OW47975   6.220   4.948   2.666  0.0234 -0.3110  0.7574
15578SOL    HW147976   6.229   4.920   2.575 -1.1340 -0.3956  0.6605
15578SOL    HW247977   6.234   5.043   2.664 -1.8417 -0.0249  0.1971
15579SOL     OW47978   2.943   2.819   1.354  0.1147 -0.1324 -0.0069
15579SOL    HW147979   2.988   2.886   1.406 -0.1770 -0.7943  1.1262
15579SOL    HW247980   2.916   2.864   1.274  0.3452  0.9800  0.5324
15580SOL     OW47981   0.451   5.897   1.215  0.2763 -0.1843 -0.2976
15580SOL    HW147982   0.478   5.941   1.296  1.1923 -0.5684 -0.3952
15580SOL    HW247983   0.496   5.812   1.218  1.7523  0.5195 -2.0840
15581SOL     OW47984   7.377   6.500   3.926  0.4857 -0.6461  0.3507
15581SOL    HW147985   7.418   6.572   3.879 -0.7055  0.6740  1.3155
15581SOL    HW247986   7.299   6.480   3.875  1.7270 -2.4590 -0.9009
15582SOL     OW47987   7.347   1.380   5.636  0.8679 -0.1338  0.0776
15582SOL    HW147988   7.352   1.461   5.586  0.7222  1.5962  2.7708
15582SOL    HW247989   7.292   1.401   5.712  0.8854 -2.7238  0.8716
15583SOL     OW47990   6.243   6.067   4.087 -0.8104 -0.7821 -0.0531
15583SOL    HW147991   6.259   6.053   3.993  1.1797 -1.3910  0.3662
15583SOL    HW247992   6.149   6.084   4.092 -1.0160 -1.1287 -2.1146
15584SOL     OW47993   3.397   3.516   2.898  0.0310 -0.2846  0.2034
15584SOL    HW147994   3.429   3.430   2.924  0.6228 -0.2439 -0.3611
15584SOL    HW247995   3.418   3.522   2.805 -1.9147 -0.3744 -0.2651
15585SOL     OW47996   3.483   4.358   8.027 -0.0442 -0.1023 -0.2432
15585SOL    HW147997   3.416   4.326   7.966  0.0558 -1.3269  0.2796
15585SOL    HW247998   3.547   4.402   7.971  0.8384 -2.5514 -1.2461
15586SOL     OW47999   4.793   3.223   6.153 -0.1990 -0.2917 -0.1873
15586SOL    HW148000   4.854   3.150   6.164  0.1143  0.3386  2.4009
15586SOL    HW248001   4.847   3.297   6.126  0.2347  0.3154  2.2885
15587SOL     OW48002   0.432   0.495   1.868 -0.2364 -1.0383 -0.2898
15587SOL    HW148003   0.424   0.403   1.844  0.0279 -1.5210  1.4049
15587SOL    HW248004   0.477   0.494   1.953  2.1399  0.7600 -1.4463
15588SOL     OW48005   3.074   0.707   0.029 -0.8806 -0.5296  0.3219
15588SOL    HW148006   3.151   0.650   0.029 -0.2332  0.2827  2.7628
15588SOL    HW248007   3.111   0.796   0.025 -1.6474 -0.1113  2.2009
15589SOL     OW48008   7.977   0.704   4.597  0.2226 -0.2148 -0.6990
15589SOL    HW148009   7.948   0.737   4.512 -1.1779 -1.1309 -0.5906
15589SOL    HW248010   8.001   0.613   4.581  0.0077 -0.3763 -0.1356
15590SOL     OW48011   7.636   1.939   3.449  0.6229 -0.0343 -0.3259
15590SOL    HW148012   7.635   1.961   3.356 -0.5299  1.5442  0.0402
15590SOL    HW248013   7.715   1.981   3.483  0.9166 -0.4122 -0.5324
15591SOL     OW48014   6.052   3.222   4.708 -0.3538  0.2131 -0.1934
15591SOL    HW148015   6.113   3.191   4.642 -1.8578  0.9106 -1.9585
15591SOL    HW248016   6.042   3.149   4.769  1.3138 -0.3084 -0.5358
15592SOL     OW48017   2.997   5.644   2.976 -0.5905  0.1242  0.5492
15592SOL    HW148018   2.952   5.624   3.058 -1.1311 -0.0960  0.1984
15592SOL    HW248019   2.928   5.648   2.910 -0.4459  2.6856  0.5002
15593SOL     OW48020   2.441   0.549   2.888  0.2676 -0.2199 -0.3787
15593SOL    HW148021   2.360   0.563   2.839 -0.3972  0.6958  0.9521
15593SOL    HW248022   2.425   0.469   2.939 -0.4462  0.8972  1.1725
15594SOL     OW48023   6.174   4.859   1.406 -0.2295 -0.0050  0.3438
15594SOL    HW148024   6.089   4.895   1.431 -0.7350  0.4584 -1.8771
15594SOL    HW248025   6.236   4.930   1.424 -0.3942 -0.1069  1.3452
15595SOL     OW48026   6.134   4.127   6.780  0.5661 -0.1792  0.2312
15595SOL    HW148027   6.163   4.143   6.870  0.3407 -0.7595  0.4054
15595SOL    HW248028   6.179   4.194   6.728 -0.1183  0.8371  0.9240
15596SOL     OW48029   3.414   6.922   2.036 -0.2442  0.1086  0.0528
15596SOL    HW148030   3.464   6.986   2.087 -0.6666 -0.3836  1.0975
15596SOL    HW248031   3.384   6.971   1.959  1.0944  0.6394 -0.1489
15597SOL     OW48032   7.867   0.158   3.613  0.0477  0.3091  0.5303
15597SOL    HW148033   7.801   0.226   3.599 -0.9565 -1.4428 -3.8686
15597SOL    HW248034   7.824   0.094   3.671 -1.6315 -0.1062 -1.1443
15598SOL     OW48035   1.057   6.112   0.266  0.1028 -0.1342  0.0971
15598SOL    HW148036   0.976   6.126   0.316 -0.1547  2.0554 -0.8826
15598SOL    HW248037   1.029   6.110   0.175  1.0289 -0.5303 -0.1861
15599SOL     OW48038   3.365   7.162   1.906  0.1544 -0.3037  0.0907
15599SOL    HW148039   3.317   7.238   1.874 -0.1675 -0.1565  0.9228
15599SOL    HW248040   3.453   7.172   1.868  0.0847  0.4256  0.1078
15600SOL     OW48041   7.280   7.796   8.167  0.3335  0.1604 -0.2520
15600SOL    HW148042   7.371   7.779   8.189 -0.0387 -0.1189  1.0631
15600SOL    HW248043   7.230   7.770   8.244 -0.8552  0.4278 -0.9096
15601SOL     OW48044   3.101   7.870   8.052 -0.2523  0.6805 -0.1927
15601SOL    HW148045   3.051   7.833   8.125  0.4266 -0.0314 -0.0818
15601SOL    HW248046   3.181   7.817   8.049 -0.0405  1.0511 -1.1192
15602SOL     OW48047   4.462   2.970   6.396  0.1223 -0.8379  0.3497
15602SOL    HW148048   4.495   3.055   6.424 -1.3895  0.2563 -1.1229
15602SOL    HW248049   4.490   2.910   6.465  1.1428  0.8474  1.4421
15603SOL     OW48050   5.670   4.965   8.244  0.2570  0.8709  0.3277
15603SOL    HW148051   5.611   4.971   8.169  1.4011  1.0816 -0.5754
15603SOL    HW248052   5.671   5.054   8.280  0.2689  0.9472  0.1437
15604SOL     OW48053   3.489   5.097   4.398  0.0436 -0.3652  0.3650
15604SOL    HW148054   3.405   5.051   4.400 -0.6903  0.8740 -1.4326
15604SOL    HW248055   3.485   5.152   4.320  1.8276  1.0455  1.2284
15605SOL     OW48056   6.207   2.557   4.324 -0.4417 -0.7559  0.2306
15605SOL    HW148057   6.183   2.586   4.236 -0.3120  0.8886  0.7191
15605SOL    HW248058   6.126   2.521   4.360 -0.5822 -1.1106 -0.4227
15606SOL     OW48059   7.248   2.442   7.081  0.6758 -0.2317  0.0523
15606SOL    HW148060   7.331   2.458   7.126 -1.0972  0.6202  3.1868
15606SOL    HW248061   7.232   2.349   7.092  0.3418 -0.0608  1.0825
15607SOL     OW48062   1.426   1.737   1.395  0.0097 -0.8043 -0.5000
15607SOL    HW148063   1.454   1.702   1.311  1.3666 -2.0135  0.4241
15607SOL    HW248064   1.407   1.659   1.448  0.5006 -0.0909  0.7453
15608SOL     OW48065   4.593   1.860   1.466  0.6021  0.2748  0.5456
15608SOL    HW148066   4.502   1.848   1.439  0.5541 -0.1103  0.8689
15608SOL    HW248067   4.587   1.894   1.555  0.7687  0.5778  0.4381
15609SOL     OW48068   0.416   5.818   2.089  0.1189 -0.4008 -0.5634
15609SOL    HW148069   0.355   5.890   2.075 -1.5184 -1.6805 -0.1460
15609SOL    HW248070   0.422   5.810   2.184  1.7581  0.3805 -0.5838
15610SOL     OW48071   0.765   6.143   6.346  0.2825  0.4243  0.0587
15610SOL    HW148072   0.731   6.070   6.295 -2.3892  0.1090  2.1834
15610SOL    HW248073   0.774   6.109   6.435  1.1774  2.0347  0.6193
15611SOL     OW48074   0.968   6.298   7.563  0.3148 -0.0413  0.5228
15611SOL    HW148075   0.975   6.243   7.486  1.1693 -1.3807  1.5200
15611SOL    HW248076   1.044   6.357   7.558 -0.2070  0.5707 -0.1813
15612SOL     OW48077   1.123   1.151   5.368 -0.0903 -0.5678 -0.2152
15612SOL    HW148078   1.125   1.169   5.274  1.1913  2.3606  0.3141
15612SOL    HW248079   1.036   1.181   5.396 -0.1683 -0.6889 -0.3245
15613SOL     OW48080   8.176   1.965   5.374 -0.0243 -0.2934 -0.1532
15613SOL    HW148081   8.083   1.961   5.354  0.2289  1.4009 -1.7378
15613SOL    HW248082   8.185   2.039   5.434  0.0515 -1.6820  1.5962
15614SOL     OW48083   6.272   6.100   1.418 -0.0216 -0.0960  0.1932
15614SOL    HW148084   6.220   6.050   1.481 -1.2178  0.8242 -0.0382
15614SOL    HW248085   6.280   6.043   1.342 -0.2738 -0.4414  0.4288
15615SOL     OW48086   6.333   2.507   6.799 -0.5389 -0.2007 -0.2780
15615SOL    HW148087   6.248   2.467   6.781  0.0812 -1.6051 -0.1246
15615SOL    HW248088   6.370   2.455   6.870  1.3119 -0.8903 -1.6949
15616SOL     OW48089   4.562   5.559   2.032  0.1306 -0.3096 -0.6314
15616SOL    HW148090   4.608   5.557   2.116 -0.2506  0.6207 -0.3927
15616SOL    HW248091   4.574   5.472   1.996  1.2450 -0.3740 -0.1185
15617SOL     OW48092   4.130   5.080   2.056  0.2070  0.3056 -0.1421
15617SOL    HW148093   4.084   5.054   2.136  0.1782  1.7431  0.3163
15617SOL    HW248094   4.100   5.169   2.038  0.7802  0.2686 -1.3338
15618SOL     OW48095   5.466   4.969   2.255  0.1149 -0.6075 -0.3087
15618SOL    HW148096   5.546   4.921   2.234 -0.3769 -1.0559 -1.2089
15618SOL    HW248097   5.496   5.059   2.271  1.0912 -1.3067  1.8987
15619SOL     OW48098   6.843   1.938   6.294 -0.0807  0.2818 -0.1852
15619SOL    HW148099   6.899   2.005   6.255  1.3212 -0.0182  1.2650
15619SOL    HW248100   6.756   1.955   6.257  0.8118  1.1826 -1.9297
15620SOL     OW48101   6.444   4.234   4.804 -0.1293  0.0090  0.1504
15620SOL    HW148102   6.474   4.175   4.874  1.3629  1.4845  0.7935
15620SOL    HW248103   6.507   4.221   4.733  0.1654  0.7266  0.2669
15621SOL     OW48104   7.614   7.254   5.616  0.4643  0.1559 -0.1191
15621SOL    HW148105   7.528   7.258   5.575 -0.5992 -1.4696  1.8786
15621SOL    HW248106   7.598   7.270   5.709  2.6434  2.2268 -0.0389
15622SOL     OW48107   0.136   1.652   2.183  0.2385 -0.1280  0.4373
15622SOL    HW148108   0.092   1.582   2.232  0.3141 -1.9419 -2.0057
15622SOL    HW248109   0.228   1.642   2.205  0.3573 -1.3904 -0.5969
15623SOL     OW48110   7.052   7.620   5.852 -0.1238 -0.7217  0.1344
15623SOL    HW148111   7.088   7.708   5.846  0.8934 -1.2766 -2.1371
15623SOL    HW248112   6.958   7.631   5.836  0.2028 -0.1946 -1.4993
15624SOL     OW48113   2.101   4.232   5.447 -0.0895 -0.0680 -0.1587
15624SOL    HW148114   2.182   4.260   5.404 -0.8233  3.4795  0.6017
15624SOL    HW248115   2.032   4.252   5.383 -0.5895 -0.7460  0.1649
15625SOL     OW48116   4.162   3.358   1.273 -0.0590  0.1530 -0.1203
15625SOL    HW148117   4.131   3.293   1.211  0.4982 -1.3005  1.0884
15625SOL    HW248118   4.116   3.338   1.355  1.5699  0.0429  0.7908
15626SOL     OW48119   3.770   5.412   5.501 -0.6559  0.0198 -0.1756
15626SOL    HW148120   3.858   5.451   5.508 -0.9818  0.7527 -0.0716
15626SOL    HW248121   3.781   5.339   5.440 -0.2300  0.8704 -1.1350
15627SOL     OW48122   4.857   5.561   6.267  0.0610 -0.6097 -0.0844
15627SOL    HW148123   4.833   5.471   6.245  0.8052 -1.1501  1.2548
15627SOL    HW248124   4.942   5.574   6.224 -0.8988  0.0910 -1.8164
15628SOL     OW48125   3.227   1.441   0.254 -0.3355  1.0312 -0.0918
15628SOL    HW148126   3.201   1.532   0.239 -0.5005  1.0452  0.2749
15628SOL    HW248127   3.204   1.396   0.173 -0.7980  1.1992 -0.0548
15629SOL     OW48128   3.303   5.170   6.267 -0.1706  0.0391  0.2656
15629SOL    HW148129   3.398   5.180   6.272 -0.1001 -0.1433 -0.6320
15629SOL    HW248130   3.283   5.182   6.174 -1.0696  0.4728  0.5113
15630SOL     OW48131   0.798   4.169   8.204 -0.2544  0.0700 -0.3673
15630SOL    HW148132   0.753   4.149   8.286  0.4021  1.4226  0.3529
15630SOL    HW248133   0.874   4.111   8.204 -0.0667  0.3104  0.1555
15631SOL     OW48134   5.347   2.069   1.919  0.6241 -0.2331 -0.1973
15631SOL    HW148135   5.419   2.123   1.888 -0.1223  0.1155 -1.3445
15631SOL    HW248136   5.390   1.990   1.953  1.6244  0.5044  0.2755
15632SOL     OW48137   8.152   0.337   7.057 -0.6535 -0.9790  0.7447
15632SOL    HW148138   8.228   0.290   7.091  0.3664  0.3469  0.3285
15632SOL    HW248139   8.161   0.425   7.093 -0.0521  0.1961 -2.1792
15633SOL     OW48140   1.764   1.467   4.268  0.6141 -0.5414 -0.0963
15633SOL    HW148141   1.795   1.437   4.353 -0.2817 -0.0707  0.4031
15633SOL    HW248142   1.786   1.396   4.208 -0.3316 -1.6501  0.8416
15634SOL     OW48143   2.312   7.567   2.902 -0.6482  0.3962  0.2027
15634SOL    HW148144   2.235   7.540   2.952 -1.2071 -0.8010 -1.2604
15634SOL    HW248145   2.381   7.575   2.967 -1.7785  0.5554  1.3998
15635SOL     OW48146   6.655   4.799   7.422 -0.6273  0.2961  0.0131
15635SOL    HW148147   6.697   4.885   7.424 -0.2506  0.1075  0.3491
15635SOL    HW248148   6.651   4.772   7.514  0.6490 -0.7100 -0.2085
15636SOL     OW48149   4.327   1.197   6.669 -0.1106  0.3872  0.2438
15636SOL    HW148150   4.397   1.156   6.618 -0.8304  0.6078 -0.9148
15636SOL    HW248151   4.373   1.235   6.744  0.8751 -0.4337  0.0769
15637SOL     OW48152   4.439   5.916   7.112 -0.1255  0.3061 -0.2520
15637SOL    HW148153   4.498   5.842   7.127 -0.5947 -0.2489 -1.0656
15637SOL    HW248154   4.372   5.881   7.053 -1.0915  1.0109  0.4190
15638SOL     OW48155   4.385   7.393   8.232  0.4512 -0.2580  0.3176
15638SOL    HW148156   4.330   7.365   8.306 -1.2019  1.7729 -0.0983
15638SOL    HW248157   4.413   7.482   8.255 -0.1395  0.4297 -1.5139
15639SOL     OW48158   4.311   1.478   4.067  0.3132  0.0063  0.5821
15639SOL    HW148159   4.282   1.387   4.078  0.5712 -0.2020 -0.4085
15639SOL    HW248160   4.234   1.524   4.033  0.8882 -0.3760 -1.2800
15640SOL     OW48161   0.577   6.771   6.153  0.7572  0.0032  0.3583
15640SOL    HW148162   0.583   6.832   6.227  1.3726  1.0275 -0.5222
15640SOL    HW248163   0.524   6.818   6.088 -0.3039 -1.1346  0.3736
15641SOL     OW48164   3.726   0.559   5.459  0.7392 -0.5205 -0.0370
15641SOL    HW148165   3.756   0.544   5.549  1.5589 -1.1590 -0.4065
15641SOL    HW248166   3.797   0.525   5.404  0.6397  0.6875 -0.9205
15642SOL     OW48167   5.665   3.169   2.810  0.1621 -0.1940 -0.2266
15642SOL    HW148168   5.721   3.246   2.802 -0.0766 -0.0108 -0.1636
15642SOL    HW248169   5.713   3.110   2.868 -0.3401  0.5578  0.9931
15643SOL     OW48170   5.821   3.912   4.657 -0.2178 -0.8914 -0.2484
15643SOL    HW148171   5.740   3.873   4.690 -0.0215 -2.1523 -1.2255
15643SOL    HW248172   5.869   3.939   4.735 -1.9744  0.7028  0.3215
15644SOL     OW48173   1.034   5.095   6.915  0.4246 -0.4314  0.6843
15644SOL    HW148174   1.059   5.022   6.972 -2.0806 -1.7426  0.2054
15644SOL    HW248175   0.942   5.112   6.937 -0.8218 -1.3902 -3.3190
15645SOL     OW48176   6.580   5.146   3.173  0.3577 -0.5668 -0.0883
15645SOL    HW148177   6.607   5.236   3.154 -1.8266 -0.1439 -1.4343
15645SOL    HW248178   6.585   5.101   3.089  0.1276 -1.3465  0.3059
15646SOL     OW48179   0.505   7.504   7.801 -0.2700  0.9611  0.2267
15646SOL    HW148180   0.488   7.508   7.896 -1.1354 -0.6714  0.1463
15646SOL    HW248181   0.480   7.591   7.769 -0.7860  1.2419  1.3647
15647SOL     OW48182   8.212   6.961   3.879 -0.1535 -0.0937 -0.8436
15647SOL    HW148183   8.293   6.979   3.927 -0.0457 -0.6337 -0.8184
15647SOL    HW248184   8.238   6.959   3.787 -0.1771 -0.0567 -0.8514
15648SOL     OW48185   8.271   3.332   5.967 -0.3860  0.0947  0.6254
15648SOL    HW148186   8.239   3.249   5.932 -0.9051  0.8807 -0.8043
15648SOL    HW248187   8.330   3.366   5.900 -1.7786  1.8711  0.2631
15649SOL     OW48188   2.864   7.084   3.177 -0.4425  0.3858  0.7828
15649SOL    HW148189   2.910   7.032   3.111 -2.7252 -0.4465 -0.2476
15649SOL    HW248190   2.879   7.037   3.259 -2.0876 -1.7417 -0.0598
15650SOL     OW48191   7.533   4.457   8.233 -0.1976  0.2760 -0.3468
15650SOL    HW148192   7.602   4.454   8.167  1.4310 -0.8791  1.3685
15650SOL    HW248193   7.525   4.367   8.264 -1.1518  0.7387  0.7933
15651SOL     OW48194   4.164   1.145   6.316 -0.4162  0.1862 -0.0172
15651SOL    HW148195   4.113   1.218   6.281 -3.2355 -2.2607 -1.2262
15651SOL    HW248196   4.110   1.068   6.298  3.5039 -2.4700 -0.9138
15652SOL     OW48197   1.569   4.727   5.563  0.2277 -0.1869 -0.2825
15652SOL    HW148198   1.540   4.717   5.472  1.0904 -1.2803 -0.4407
15652SOL    HW248199   1.664   4.712   5.560 -0.1389 -3.1457  1.2385
15653SOL     OW48200   5.751   2.757   2.670  0.6194 -0.4148 -0.3368
15653SOL    HW148201   5.661   2.788   2.678  1.1697  1.6817 -1.8471
15653SOL    HW248202   5.802   2.819   2.722  1.5137  0.1444 -1.8414
15654SOL     OW48203   4.238   7.356   7.565 -0.0553  0.2591  0.1861
15654SOL    HW148204   4.222   7.399   7.481  1.7129 -0.2312 -0.4214
15654SOL    HW248205   4.152   7.323   7.591 -1.1245  2.6115 -0.1716
15655SOL     OW48206   4.928   0.687   0.552  0.6049 -0.0394  0.5481
15655SOL    HW148207   4.866   0.754   0.525  0.3280 -0.0359  1.1727
15655SOL    HW248208   4.882   0.604   0.537  0.5420 -0.0469  0.7833
15656SOL     OW48209   0.539   0.394   8.177  0.5811  0.1442  0.3053
15656SOL    HW148210   0.529   0.440   8.261  4.0530  2.5031 -0.4363
15656SOL    HW248211   0.510   0.458   8.111  3.4134  0.5942 -0.5981
15657SOL     OW48212   1.744   6.765   3.759  0.4449 -0.0068  0.3855
15657SOL    HW148213   1.780   6.848   3.790  0.0382 -0.4448  2.1321
15657SOL    HW248214   1.650   6.773   3.774  0.3805 -0.6960  0.3550
15658SOL     OW48215   2.187   4.739   7.911 -0.0681  0.5375 -0.3166
15658SOL    HW148216   2.108   4.790   7.891 -1.0238 -0.7639  0.0496
15658SOL    HW248217   2.171   4.653   7.871 -0.3019 -0.8336  2.5486
15659SOL     OW48218   3.695   4.754   7.326  0.2475 -0.7646 -0.0873
15659SOL    HW148219   3.615   4.713   7.359 -0.3377 -0.3154 -0.9458
15659SOL    HW248220   3.764   4.690   7.343 -0.6263 -2.0164 -1.2279
15660SOL     OW48221   4.519   2.966   7.909 -0.5450 -0.4448 -0.3887
15660SOL    HW148222   4.567   2.903   7.856 -0.3015 -0.2282 -0.4243
15660SOL    HW248223   4.454   2.913   7.956  0.2279 -0.8409  0.2344
15661SOL     OW48224   4.686   1.995   4.649 -0.1326 -0.7046 -0.4069
15661SOL    HW148225   4.746   2.020   4.719 -0.1080 -1.3177 -0.2041
15661SOL    HW248226   4.742   1.981   4.573 -0.2029  0.3716 -0.6673
15662SOL     OW48227   2.439   3.827   4.689  0.4015  0.1772  0.3184
15662SOL    HW148228   2.438   3.801   4.597 -0.7462  1.4656 -0.0475
15662SOL    HW248229   2.372   3.774   4.731  0.1206  0.4161  0.1724
15663SOL     OW48230   4.353   5.304   0.964 -0.9110 -0.3491 -0.5603
15663SOL    HW148231   4.390   5.216   0.952  0.4819  0.1975 -0.3646
15663SOL    HW248232   4.429   5.361   0.970 -1.7724  0.6957  0.7124
15664SOL     OW48233   0.887   4.823   6.313 -0.0991  0.3355  0.1175
15664SOL    HW148234   0.931   4.888   6.369  2.1647 -2.2569  1.4854
15664SOL    HW248235   0.822   4.783   6.371 -0.2377  0.1163 -0.1909
15665SOL     OW48236   1.085   6.150   4.344  0.7461  0.6070  0.5520
15665SOL    HW148237   0.989   6.154   4.347  0.6212 -2.1672  1.5274
15665SOL    HW248238   1.113   6.231   4.385 -1.1974  0.8200  1.5332
15666SOL     OW48239   2.130   8.060   0.945 -0.9307  0.0321  0.2829
15666SOL    HW148240   2.042   8.076   0.912 -0.4874  0.2026 -0.8514
15666SOL    HW248241   2.184   8.124   0.899 -0.1957 -0.1452  0.8923
15667SOL     OW48242   4.025   5.606   4.708  0.3941  0.0394  0.3441
15667SOL    HW148243   4.026   5.516   4.742 -0.8761 -0.2378 -0.3554
15667SOL    HW248244   4.065   5.658   4.778 -0.9107 -0.7384  1.6876
15668SOL     OW48245   8.296   0.529   8.165 -0.5125  0.6617 -0.7541
15668SOL    HW148246   8.353   0.571   8.101 -0.9934  3.2562  0.4556
15668SOL    HW248247   8.229   0.486   8.113  0.8114  0.1504 -2.0733
15669SOL     OW48248   4.406   8.264   1.390  0.3324  0.0466  0.2810
15669SOL    HW148249   4.412   8.263   1.295  0.6582 -0.6637  0.3120
15669SOL    HW248250   4.493   8.241   1.421  0.2477  0.3449  0.7532
15670SOL     OW48251   3.920   7.690   5.749 -0.5767 -0.1395 -0.1930
15670SOL    HW148252   3.848   7.636   5.717  0.5422 -1.4560 -0.5426
15670SOL    HW248253   3.881   7.742   5.819 -1.8544 -0.8951 -0.3249
15671SOL     OW48254   4.500   5.877   6.376  0.2974  0.8593  0.4464
15671SOL    HW148255   4.561   5.864   6.303  0.4456  0.0769  0.7087
15671SOL    HW248256   4.414   5.887   6.334  0.4613  0.9598  0.1352
15672SOL     OW48257   5.148   8.132   7.868 -0.7098  0.2000  0.3330
15672SOL    HW148258   5.063   8.171   7.848 -0.2420  0.6184 -0.8945
15672SOL    HW248259   5.139   8.099   7.957 -1.7949  1.2313  0.6152
15673SOL     OW48260   1.272   7.487   1.462 -0.1519  0.3443 -0.3095
15673SOL    HW148261   1.299   7.436   1.386  0.9627 -0.1579  0.4094
15673SOL    HW248262   1.216   7.428   1.512 -1.2584  0.8277 -0.9559
15674SOL     OW48263   0.133   1.593   2.801  0.0967 -0.7592  0.4506
15674SOL    HW148264   0.164   1.618   2.714 -0.4896  1.7583  0.9208
15674SOL    HW248265   0.102   1.675   2.840 -0.4645 -1.9949  2.7017
15675SOL     OW48266   7.111   6.401   6.932  0.0033  0.4145 -0.0431
15675SOL    HW148267   7.151   6.353   7.004 -0.6003 -0.0900 -0.0370
15675SOL    HW248268   7.184   6.426   6.876  0.1849 -1.8629 -0.8587
15676SOL     OW48269   1.908   1.706   4.170 -0.2977  0.5972  0.0495
15676SOL    HW148270   1.849   1.647   4.216  0.3877 -0.2046 -0.0704
15676SOL    HW248271   1.963   1.648   4.117 -0.1949  1.4091 -0.7510
15677SOL     OW48272   5.799   6.935   5.339 -0.6779  0.2464  0.0678
15677SOL    HW148273   5.737   6.862   5.344 -0.7327  0.2959  0.1145
15677SOL    HW248274   5.848   6.930   5.421  2.4329 -2.4837 -1.8223
15678SOL     OW48275   2.037   6.788   3.675  0.3110  0.1740  0.1361
15678SOL    HW148276   1.943   6.783   3.689  0.7474 -1.4819  2.8778
15678SOL    HW248277   2.063   6.868   3.721  0.1859  0.9174 -1.0719
15679SOL     OW48278   2.808   0.994   7.959 -1.0301 -0.1372 -0.0769
15679SOL    HW148279   2.729   0.949   7.930 -0.3765 -1.3874  0.0544
15679SOL    HW248280   2.855   0.929   8.013  0.9150 -0.0215 -1.5577
15680SOL     OW48281   1.104   8.180   0.461  0.4348 -0.3973  0.5625
15680SOL    HW148282   1.026   8.234   0.445  0.1018 -0.5499  1.6007
15680SOL    HW248283   1.178   8.237   0.440  0.0255 -0.4993 -1.1550
15681SOL     OW48284   3.290   4.471   8.191  0.1702 -0.6053 -0.2238
15681SOL    HW148285   3.358   4.416   8.152 -0.8937 -0.8611 -1.7534
15681SOL    HW248286   3.225   4.481   8.122 -0.5898  0.9606  0.6962
15682SOL     OW48287   2.639   0.933   2.363  0.0456  0.0552 -0.3399
15682SOL    HW148288   2.556   0.978   2.347  0.8571  1.3887 -0.8371
15682SOL    HW248289   2.614   0.841   2.374 -1.3017  0.1414 -2.3598
15683SOL     OW48290   3.596   0.186   2.092  0.7020 -0.3291 -0.2759
15683SOL    HW148291   3.647   0.105   2.089  2.2062  0.5679  0.5764
15683SOL    HW248292   3.569   0.195   2.183 -1.2722 -0.9358 -0.7601
15684SOL     OW48293   2.384   4.705   5.109  0.1148 -0.4403  0.1441
15684SOL    HW148294   2.444   4.726   5.038  0.5903 -2.4245 -0.0762
15684SOL    HW248295   2.380   4.785   5.162  2.2037  0.0252 -0.3475
15685SOL     OW48296   1.292   6.869   5.528 -0.4764  0.3739 -0.3067
15685SOL    HW148297   1.383   6.851   5.554 -0.3102  1.0837 -0.3698
15685SOL    HW248298   1.253   6.783   5.516 -0.3247  0.0334  1.4970
15686SOL     OW48299   1.196   5.005   3.072  0.2137  0.4332  0.3747
15686SOL    HW148300   1.180   5.084   3.020 -1.5175 -1.2520 -1.7356
15686SOL    HW248301   1.109   4.978   3.103  0.6091 -1.3587 -0.0166
15687SOL     OW48302   6.818   1.062   6.830 -0.2921 -0.1440 -0.2711
15687SOL    HW148303   6.868   0.987   6.800 -1.6627 -1.8559  1.6413
15687SOL    HW248304   6.855   1.084   6.915 -0.9965  0.2675 -0.0605
15688SOL     OW48305   7.465   0.519   6.609 -0.2627  0.3644 -0.0676
15688SOL    HW148306   7.399   0.450   6.612 -1.5825  1.6025 -0.2588
15688SOL    HW248307   7.420   0.598   6.638  1.1787  1.1964 -0.0092
15689SOL     OW48308   5.814   1.740   4.695 -0.0053 -0.4642  0.0202
15689SOL    HW148309   5.729   1.771   4.725 -0.4298 -0.8539 -0.7600
15689SOL    HW248310   5.830   1.790   4.615  0.0568 -1.0681 -0.3513
15690SOL     OW48311   4.528   7.659   3.780  0.1650  0.0516 -0.1556
15690SOL    HW148312   4.496   7.674   3.869  2.3473 -1.9703  1.0194
15690SOL    HW248313   4.556   7.568   3.779  0.4699  0.1256 -2.8483
15691SOL     OW48314   4.334   1.850   3.794  0.2509 -0.1077 -0.1374
15691SOL    HW148315   4.413   1.898   3.768 -1.0394  2.5606  0.6586
15691SOL    HW248316   4.272   1.866   3.723 -0.8344  1.0840  1.0344
15692SOL     OW48317   2.585   6.026   4.266 -0.1161  0.4470 -0.2073
15692SOL    HW148318   2.531   6.041   4.189 -2.2535 -1.6559  0.8105
15692SOL    HW248319   2.618   5.937   4.256  1.7844  1.1004  0.0301
15693SOL     OW48320   5.323   1.967   1.394  0.1707  0.6359 -0.2226
15693SOL    HW148321   5.310   1.882   1.435  1.2728  0.6350  0.1219
15693SOL    HW248322   5.245   2.017   1.417  0.2741  0.2661  0.9423
15694SOL     OW48323   6.643   6.551   5.328 -0.1705  0.5395  0.3293
15694SOL    HW148324   6.651   6.521   5.418 -0.7779  2.6244  1.1133
15694SOL    HW248325   6.599   6.479   5.282 -0.1909 -0.3861  1.7845
15695SOL     OW48326   4.070   2.926   1.598  0.0805 -0.4894  0.7689
15695SOL    HW148327   4.080   2.839   1.638  0.9905 -0.1882  1.1967
15695SOL    HW248328   3.995   2.965   1.643 -2.2335 -2.1955 -1.4532
15696SOL     OW48329   4.939   2.471   3.839 -0.0949 -0.9222  0.2114
15696SOL    HW148330   5.002   2.510   3.779  1.3642 -2.2644  0.8606
15696SOL    HW248331   4.903   2.545   3.888  1.6827 -0.2429  0.5092
15697SOL     OW48332   8.062   1.086   7.083 -0.7389 -0.2086 -0.7358
15697SOL    HW148333   8.087   1.047   7.167  0.3015  1.0630 -0.4464
15697SOL    HW248334   8.106   1.031   7.017 -1.3347 -1.0405 -0.4431
15698SOL     OW48335   3.188   7.656   4.844  0.1069 -0.6056 -0.2691
15698SOL    HW148336   3.209   7.626   4.932 -1.9854 -1.5860 -0.0787
15698SOL    HW248337   3.121   7.723   4.856  2.1036  1.5892 -0.9393
15699SOL     OW48338   2.156   5.727   3.598  0.3206  0.0275  0.2693
15699SOL    HW148339   2.177   5.791   3.530  0.3463  0.2053  0.4399
15699SOL    HW248340   2.061   5.731   3.607  0.4593  1.2815  1.4525
15700SOL     OW48341   4.468   1.402   2.067 -0.0639  0.1916 -0.0316
15700SOL    HW148342   4.448   1.366   1.981 -0.4245  0.4377 -0.0520
15700SOL    HW248343   4.384   1.402   2.113  0.1139  0.1279  0.2964
15701SOL     OW48344   6.024   1.758   4.876 -0.2634  0.2696 -0.8370
15701SOL    HW148345   5.961   1.752   4.805 -0.7303  2.1975 -0.6042
15701SOL    HW248346   5.978   1.805   4.946  1.4167  1.7596 -0.6852
15702SOL     OW48347   4.453   3.022   0.812 -0.3380 -0.0677  0.4139
15702SOL    HW148348   4.471   2.940   0.766 -0.4816  1.2755 -2.1070
15702SOL    HW248349   4.374   3.005   0.863  1.0889 -2.2650  1.9436
15703SOL     OW48350   8.269   7.211   5.561  0.2185  0.6545 -0.1594
15703SOL    HW148351   8.199   7.261   5.603  0.4223  0.0535  0.9056
15703SOL    HW248352   8.346   7.266   5.570  0.0034  1.0758 -0.8496
15704SOL     OW48353   2.249   3.124   2.407 -0.9015 -0.2840 -0.6053
15704SOL    HW148354   2.315   3.059   2.429  0.2218  0.3779 -1.9290
15704SOL    HW248355   2.296   3.207   2.405 -1.8248  0.2404 -1.2210
15705SOL     OW48356   5.628   1.227   5.072 -0.0301 -1.0450 -0.0898
15705SOL    HW148357   5.601   1.153   5.018  0.4740 -0.9464 -0.4751
15705SOL    HW248358   5.608   1.304   5.019 -3.0307 -0.7398  1.3480
15706SOL     OW48359   0.441   3.109   1.045 -0.0062 -0.1050  0.4912
15706SOL    HW148360   0.438   3.203   1.062 -2.4589  0.1829 -1.3011
15706SOL    HW248361   0.386   3.071   1.114 -1.2648  0.0679 -0.3923
15707SOL     OW48362   1.426   6.765   7.761 -0.0863  0.2768  0.2064
15707SOL    HW148363   1.502   6.724   7.803 -0.3736 -1.9131 -1.3182
15707SOL    HW248364   1.462   6.842   7.718  1.2620 -0.6740 -0.4009
15708SOL     OW48365   1.193   6.526   0.553 -0.4432  0.5280  0.0846
15708SOL    HW148366   1.186   6.526   0.457  1.6292  0.1495 -0.0960
15708SOL    HW248367   1.145   6.604   0.580 -0.5680  0.9629 -1.3180
15709SOL     OW48368   2.020   3.533   1.229  1.0305  0.3756 -0.0375
15709SOL    HW148369   1.939   3.567   1.267  0.4936  0.5779 -1.3238
15709SOL    HW248370   1.995   3.450   1.189  1.7248 -0.1513  0.6152
15710SOL     OW48371   1.927   6.123   0.809  0.6774  0.2923  0.2720
15710SOL    HW148372   1.927   6.134   0.714  0.1718 -0.6869  0.1578
15710SOL    HW248373   1.998   6.060   0.826 -0.8780 -1.4805  0.3084
15711SOL     OW48374   3.432   5.897   1.249 -0.3429  0.3984  0.5641
15711SOL    HW148375   3.487   5.851   1.312  0.5864 -1.3154 -1.4225
15711SOL    HW248376   3.347   5.854   1.254  0.3320 -1.1350 -0.8075
15712SOL     OW48377   7.340   7.829   0.841  0.0140 -0.5320  0.5044
15712SOL    HW148378   7.351   7.857   0.932  0.5551 -0.8725  0.5480
15712SOL    HW248379   7.294   7.745   0.847 -1.8144  0.4340  0.3640
15713SOL     OW48380   0.130   7.699   7.909  0.5481 -0.3484  0.7360
15713SOL    HW148381   0.191   7.747   7.853 -1.3211  0.3467 -0.7289
15713SOL    HW248382   0.134   7.744   7.993  0.2386  1.1702 -0.0587
15714SOL     OW48383   3.133   5.508   1.169  0.1175 -0.8952 -0.7437
15714SOL    HW148384   3.093   5.430   1.208 -0.4490 -0.8064 -1.1519
15714SOL    HW248385   3.205   5.473   1.115 -0.5714 -1.1867 -1.4790
15715SOL     OW48386   4.248   6.052   3.763 -0.1450  0.0581 -0.3648
15715SOL    HW148387   4.207   6.118   3.708  0.1501 -0.1586 -0.8431
15715SOL    HW248388   4.218   6.074   3.852 -1.1359  0.0181 -0.6779
15716SOL     OW48389   3.028   7.467   6.837  0.0213  0.5570  0.2244
15716SOL    HW148390   2.997   7.556   6.856  0.0452  0.5866  0.1282
15716SOL    HW248391   3.061   7.472   6.747  1.1007  0.7343  0.6267
15717SOL     OW48392   0.790   2.658   4.712 -0.1542  0.0923  0.3317
15717SOL    HW148393   0.802   2.612   4.630  1.1622 -0.7914  1.0127
15717SOL    HW248394   0.772   2.749   4.687  0.7033 -0.0805 -0.9062
15718SOL     OW48395   5.529   8.109   1.805  0.1184  0.1273  0.6300
15718SOL    HW148396   5.446   8.145   1.837 -0.3509 -0.2833 -0.1276
15718SOL    HW248397   5.530   8.128   1.712 -1.1152 -3.6159 -0.2369
15719SOL     OW48398   7.504   6.767   6.876  0.3787 -0.5764 -0.1088
15719SOL    HW148399   7.599   6.773   6.877  0.3642 -0.3180  2.2791
15719SOL    HW248400   7.480   6.784   6.785  2.5267  0.9025 -0.4426
15720SOL     OW48401   3.262   0.581   6.827 -0.5474  0.4216  0.2235
15720SOL    HW148402   3.168   0.563   6.829  0.0922 -3.6559 -1.4210
15720SOL    HW248403   3.300   0.504   6.785  3.3053  3.0113 -1.3373
15721SOL     OW48404   5.992   3.472   5.407 -0.1744 -0.0009 -0.6886
15721SOL    HW148405   5.948   3.413   5.468 -1.9356  1.7246 -0.2336
15721SOL    HW248406   6.054   3.521   5.461 -2.5015  2.2973  0.0005
15722SOL     OW48407   5.685   6.599   6.807 -0.1848  0.2623  0.3752
15722SOL    HW148408   5.702   6.651   6.885 -2.3505  2.5353 -0.6004
15722SOL    HW248409   5.758   6.616   6.749  0.5551 -0.0736  1.1944
15723SOL     OW48410   0.082   0.074   3.027  0.0344  0.1711  0.0312
15723SOL    HW148411   0.117  -0.000   2.978 -0.8722 -0.6478  0.6162
15723SOL    HW248412   0.149   0.142   3.017  1.5653 -1.2021  0.7129
15724SOL     OW48413   3.575   0.281   2.347  0.1992 -0.0433  0.6003
15724SOL    HW148414   3.545   0.227   2.420  0.0240 -1.3244 -0.4055
15724SOL    HW248415   3.547   0.370   2.369 -1.6068 -0.7383  1.1377
15725SOL     OW48416   1.860   3.714   8.121  0.2028 -0.6357 -0.4318
15725SOL    HW148417   1.933   3.765   8.086  0.0427 -0.6833 -0.8343
15725SOL    HW248418   1.813   3.776   8.177 -0.4001 -0.1291 -1.4861
15726SOL     OW48419   0.633   1.168   6.590 -0.7100  0.1639 -0.6821
15726SOL    HW148420   0.589   1.202   6.668 -1.3522  0.0334 -0.9842
15726SOL    HW248421   0.576   1.099   6.558 -1.3080  1.3180 -2.2090
15727SOL     OW48422   0.419   3.356   1.138  0.4547  0.3078  0.0137
15727SOL    HW148423   0.513   3.376   1.140  0.2804  1.1223  0.5816
15727SOL    HW248424   0.380   3.432   1.095 -0.0624  0.4929  0.7932
15728SOL     OW48425   2.767   0.011   8.220  0.3971  0.3192  0.5686
15728SOL    HW148426   2.776   0.054   8.136  1.6929  0.2854  0.6803
15728SOL    HW248427   2.855   0.013   8.258 -0.0353 -0.2412  1.6312
15729SOL     OW48428   5.697   5.246   0.027 -0.3234  0.5302  0.5916
15729SOL    HW148429   5.751   5.225   0.104 -0.0510  1.7561  0.7530
15729SOL    HW248430   5.608   5.252   0.061 -0.6000 -1.7252  0.2828
15730SOL     OW48431   4.550   6.302   4.405  0.2270 -0.2175 -0.3591
15730SOL    HW148432   4.582   6.212   4.408 -0.3486 -0.4259 -0.2516
15730SOL    HW248433   4.467   6.296   4.356  0.9866  0.5023 -1.7941
15731SOL     OW48434   1.962   4.199   1.366 -0.4650  0.5341  0.4573
15731SOL    HW148435   1.912   4.247   1.431 -1.0162 -0.9109  1.1200
15731SOL    HW248436   2.033   4.158   1.415  0.8441  1.8190 -0.3283
15732SOL     OW48437   7.462   3.305   4.264  0.7799  0.0212  0.8484
15732SOL    HW148438   7.412   3.281   4.186  2.6720 -0.0716 -0.3702
15732SOL    HW248439   7.421   3.386   4.294 -1.2510 -0.9975  0.9696
15733SOL     OW48440   3.573   6.685   5.731 -0.0405  0.3950 -0.3113
15733SOL    HW148441   3.571   6.593   5.757 -1.7555  0.4729 -0.1031
15733SOL    HW248442   3.616   6.729   5.804  1.5915 -0.3435 -0.8003
15734SOL     OW48443   4.590   1.938   7.793 -0.0994 -0.0893  0.1692
15734SOL    HW148444   4.599   1.935   7.698 -2.1158 -0.3419 -0.0389
15734SOL    HW248445   4.540   1.859   7.815  0.7795 -0.2817  1.4855
15735SOL     OW48446   3.240   3.775   3.576 -0.1724 -0.1798 -0.0165
15735SOL    HW148447   3.254   3.836   3.504 -0.3002 -0.2726 -0.1205
15735SOL    HW248448   3.167   3.812   3.625 -0.7909 -0.6831 -0.5544
15736SOL     OW48449   5.878   4.602   4.377 -0.1136 -0.1984 -0.3361
15736SOL    HW148450   5.918   4.550   4.446 -2.1870 -0.5662  0.6206
15736SOL    HW248451   5.939   4.675   4.363  0.4552 -0.2689  1.6913
15737SOL     OW48452   5.733   3.058   3.941 -0.4273 -0.2905  0.2427
15737SOL    HW148453   5.700   3.137   3.899  1.7451  0.7446  0.4205
15737SOL    HW248454   5.784   3.090   4.015 -0.1146 -1.8995  0.7318
15738SOL     OW48455   7.139   4.562   0.742 -0.3322 -0.3058 -0.4915
15738SOL    HW148456   7.220   4.517   0.769 -0.2844 -0.7056 -1.2772
15738SOL    HW248457   7.125   4.628   0.810  1.3785  0.6552 -1.0344
15739SOL     OW48458   2.347   5.929   5.396  0.1320 -0.3041  0.0586
15739SOL    HW148459   2.432   5.887   5.391  1.0032  0.9706  2.9622
15739SOL    HW248460   2.295   5.887   5.328  3.1195 -0.9652 -1.8903
15740SOL     OW48461   5.652   7.959   1.969 -0.0195 -0.1890 -0.4752
15740SOL    HW148462   5.678   7.872   1.938  0.7034  0.1573 -0.8614
15740SOL    HW248463   5.614   8.001   1.892 -2.0638 -0.8010  0.1597
15741SOL     OW48464   5.093   2.130   1.997 -0.4630 -0.1145  0.2204
15741SOL    HW148465   5.104   2.176   2.081 -1.1547  0.1087  0.1930
15741SOL    HW248466   5.180   2.127   1.959 -0.0332 -0.7289  1.2191
15742SOL     OW48467   5.352   0.050   5.838 -0.2196 -0.0157  0.3363
15742SOL    HW148468   5.270   0.068   5.884 -0.7214 -0.1280 -0.4958
15742SOL    HW248469   5.407   0.006   5.903  0.4446  3.0012  1.9291
15743SOL     OW48470   0.802   1.084   0.862  0.0043  0.1966 -0.4901
15743SOL    HW148471   0.741   1.010   0.858  1.4864 -1.0924  0.5115
15743SOL    HW248472   0.787   1.131   0.780 -0.9882 -1.1783 -1.1193
15744SOL     OW48473   2.387   6.206   7.914  0.3222  0.1063  0.0691
15744SOL    HW148474   2.412   6.121   7.952  1.6944  0.5501  0.1917
15744SOL    HW248475   2.469   6.242   7.881 -0.1127  1.7534  0.7384
15745SOL     OW48476   1.971   6.007   1.154  0.1369  0.3656  0.1952
15745SOL    HW148477   1.911   5.933   1.145  1.7801 -1.1487  1.2519
15745SOL    HW248478   2.013   5.994   1.239  3.3216  0.3262 -1.2932
15746SOL     OW48479   6.175   0.179   5.967  0.3478  0.6146 -0.1691
15746SOL    HW148480   6.259   0.186   6.012  0.2725 -0.4264  0.1510
15746SOL    HW248481   6.115   0.234   6.018  0.2592 -0.5662  1.0150
15747SOL     OW48482   0.896   1.927   4.926  0.5647 -0.3390 -0.0683
15747SOL    HW148483   0.924   1.868   4.855 -1.2106 -0.9574 -0.2856
15747SOL    HW248484   0.870   2.007   4.882 -1.1166 -0.9358 -0.2074
15748SOL     OW48485   2.913   1.395   1.060 -0.2667  0.5885  0.1171
15748SOL    HW148486   2.831   1.424   1.019  0.2935  1.8441 -0.1419
15748SOL    HW248487   2.885   1.340   1.133 -1.3080 -0.3870 -1.0021
15749SOL     OW48488   3.561   1.969   4.592  0.2718 -0.6740 -0.4216
15749SOL    HW148489   3.604   1.911   4.530  0.7974 -0.5563 -0.1696
15749SOL    HW248490   3.509   1.911   4.648  0.8145 -0.9024 -0.1558
15750SOL     OW48491   5.518   2.112   5.254 -0.1654 -0.2375  0.1803
15750SOL    HW148492   5.435   2.080   5.219 -0.1233  1.0512 -1.1674
15750SOL    HW248493   5.503   2.122   5.348 -1.0365 -1.5054  0.1812
15751SOL     OW48494   0.343   3.572   6.090  0.3109 -0.1288 -0.0345
15751SOL    HW148495   0.318   3.664   6.089  2.5875  0.5548  0.8914
15751SOL    HW248496   0.262   3.524   6.074 -0.7084  2.0669 -1.7200
15752SOL     OW48497   6.525   2.727   2.856  0.0764  0.1572  0.1820
15752SOL    HW148498   6.589   2.662   2.884  1.4755  1.4166 -0.0484
15752SOL    HW248499   6.574   2.785   2.799 -0.6327  2.6352  2.0338
15753SOL     OW48500   7.196   1.938   4.635 -0.5896 -0.2484  0.0281
15753SOL    HW148501   7.141   1.960   4.710  0.6100 -0.8256  1.0833
15753SOL    HW248502   7.284   1.965   4.660  0.1039 -1.9377 -0.5194
15754SOL     OW48503   7.727   4.926   6.259 -0.1860 -0.6114 -0.7116
15754SOL    HW148504   7.649   4.904   6.311  0.4122  0.5812  0.7080
15754SOL    HW248505   7.746   5.017   6.281  0.7629 -0.4420 -2.1740
15755SOL     OW48506   1.235   2.204   6.589  0.1917 -0.0733 -0.5046
15755SOL    HW148507   1.156   2.211   6.642  0.4871 -1.5180  0.1434
15755SOL    HW248508   1.222   2.267   6.518 -2.3990 -1.6229 -1.5040
15756SOL     OW48509   8.023   2.233   6.314  0.0243  0.1361  0.3240
15756SOL    HW148510   8.008   2.281   6.395 -0.6373  2.3245 -1.0635
15756SOL    HW248511   8.088   2.167   6.337  0.8234  1.5780  2.3242
15757SOL     OW48512   6.241   6.351   4.444  0.6608  0.1684 -0.0126
15757SOL    HW148513   6.182   6.281   4.473  1.1525 -0.2732 -0.0712
15757SOL    HW248514   6.183   6.425   4.426  0.2858  0.2554  1.4798
15758SOL     OW48515   6.651   0.420   7.885 -0.4925 -0.1511 -0.2985
15758SOL    HW148516   6.578   0.454   7.936 -0.5765 -1.2903  0.3359
15758SOL    HW248517   6.652   0.326   7.902  0.0072 -0.4226 -1.7151
15759SOL     OW48518   3.534   6.113   0.348 -0.2827 -0.0140  0.7547
15759SOL    HW148519   3.559   6.205   0.334  0.0157 -0.2342 -0.1916
15759SOL    HW248520   3.567   6.093   0.435  1.1505  0.2844  0.2992
15760SOL     OW48521   5.734   7.310   1.792  0.8842  0.0245  0.0131
15760SOL    HW148522   5.684   7.281   1.868 -0.2312 -0.1144 -0.7591
15760SOL    HW248523   5.668   7.333   1.727  1.7737  2.7094  0.0076
15761SOL     OW48524   2.493   4.563   0.966  0.5544  0.1278 -0.0976
15761SOL    HW148525   2.474   4.653   0.993 -0.6265 -0.9399  2.8801
15761SOL    HW248526   2.561   4.534   1.027 -1.2075 -1.9286  0.9683
15762SOL     OW48527   7.408   5.699   4.285 -0.0511  0.1176 -0.4349
15762SOL    HW148528   7.463   5.681   4.208  0.2404 -0.8476 -0.0133
15762SOL    HW248529   7.342   5.630   4.282  0.4644 -0.4323  0.6478
15763SOL     OW48530   6.899   1.188   6.355  0.5367 -0.7636 -0.3258
15763SOL    HW148531   6.912   1.269   6.304  2.6660 -1.2704 -0.6412
15763SOL    HW248532   6.857   1.128   6.293 -0.5471 -0.1081 -0.2532
15764SOL     OW48533   8.145   7.787   5.038  0.0862  0.1718  0.3260
15764SOL    HW148534   8.174   7.878   5.039  0.4230  0.0893 -0.9520
15764SOL    HW248535   8.072   7.785   4.976  1.4455 -0.8173 -1.2793
15765SOL     OW48536   4.808   2.009   0.294  0.4114 -0.0851 -0.1406
15765SOL    HW148537   4.773   2.008   0.383  2.3556  2.0113  0.6883
15765SOL    HW248538   4.896   1.972   0.302  0.3734 -0.4675 -1.3192
15766SOL     OW48539   0.458   7.229   3.555 -0.3552 -0.4986 -0.1803
15766SOL    HW148540   0.526   7.181   3.602  1.1297  1.6316 -0.0271
15766SOL    HW248541   0.454   7.186   3.469  1.4094 -0.5158 -0.2890
15767SOL     OW48542   2.474   6.623   5.989 -0.4123 -0.1764  0.2060
15767SOL    HW148543   2.466   6.719   5.985  1.0013 -0.0267  0.8037
15767SOL    HW248544   2.416   6.592   5.919 -0.0268  1.1629 -0.7438
15768SOL     OW48545   0.371   3.623   1.054 -0.2258 -0.9940 -0.8104
15768SOL    HW148546   0.297   3.633   0.993  0.6913 -1.3104 -1.9859
15768SOL    HW248547   0.438   3.682   1.020  0.9459 -2.4938 -1.1155
15769SOL     OW48548   3.677   7.427   3.172  0.5084  0.3359  0.0466
15769SOL    HW148549   3.761   7.383   3.153  0.2768  0.1792 -0.6302
15769SOL    HW248550   3.648   7.388   3.254  0.8907  0.0684  0.0592
15770SOL     OW48551   4.094   6.609   7.208 -0.2852 -0.3391 -0.2401
15770SOL    HW148552   4.165   6.655   7.164 -0.2937 -0.0198  0.0754
15770SOL    HW248553   4.053   6.555   7.139  0.0767 -0.3016 -0.4833
15771SOL     OW48554   4.568   8.065   0.710  0.1229 -0.1443 -0.1099
15771SOL    HW148555   4.531   8.080   0.798 -0.1915  0.5838 -0.3583
15771SOL    HW248556   4.579   8.153   0.674  1.7264 -0.3706 -0.1995
15772SOL     OW48557   6.932   4.492   1.558  0.0927  0.2001  0.2172
15772SOL    HW148558   6.962   4.551   1.488  2.1774 -0.8072  0.2109
15772SOL    HW248559   6.841   4.473   1.536 -0.3327  2.7114 -0.2626
15773SOL     OW48560   0.161   2.432   3.541  0.2247  0.2517  0.3300
15773SOL    HW148561   0.106   2.354   3.537  1.4826 -0.6775  1.0638
15773SOL    HW248562   0.118   2.488   3.606 -1.0184  0.4559 -0.6441
15774SOL     OW48563   5.664   5.642   5.008  0.4238  0.0165  0.2900
15774SOL    HW148564   5.671   5.701   4.933 -0.2332 -1.8029 -1.2386
15774SOL    HW248565   5.754   5.615   5.027  0.3841 -1.3015 -1.3211
15775SOL     OW48566   7.854   7.634   3.910  0.0365  0.1546 -0.4002
15775SOL    HW148567   7.814   7.596   3.988  0.8833  0.5977  0.2566
15775SOL    HW248568   7.826   7.726   3.911  1.5041  0.5921  0.3445
15776SOL     OW48569   2.034   6.058   1.847 -0.0833  0.4244 -0.6627
15776SOL    HW148570   1.952   6.041   1.893 -0.5223  1.0659 -1.2027
15776SOL    HW248571   2.077   6.126   1.898 -0.5599  1.1193 -1.1647
15777SOL     OW48572   0.428   3.188   1.528 -0.1749 -0.4221  0.1393
15777SOL    HW148573   0.334   3.184   1.511 -0.1494 -0.0835 -0.0865
15777SOL    HW248574   0.435   3.185   1.624 -0.5034  1.1964  0.2333
15778SOL     OW48575   4.013   8.000   2.760 -0.2720 -0.3804 -0.3393
15778SOL    HW148576   3.960   7.923   2.779  0.4342 -0.5578  0.9362
15778SOL    HW248577   4.096   7.965   2.726 -0.6048 -0.1243 -1.4638
15779SOL     OW48578   0.986   1.515   5.061 -0.0314  0.2869 -0.5773
15779SOL    HW148579   1.004   1.490   5.151 -0.7696  0.0704 -0.4828
15779SOL    HW248580   0.943   1.600   5.068  1.7112  1.2101 -0.8489
15780SOL     OW48581   5.972   5.737   1.721 -0.2811 -0.1411 -0.4281
15780SOL    HW148582   5.963   5.642   1.730 -1.0523  0.0426  0.8586
15780SOL    HW248583   5.915   5.773   1.789 -2.6055  1.2983 -3.0257
15781SOL     OW48584   6.260   4.681   0.486 -0.2698  0.9142 -0.1648
15781SOL    HW148585   6.189   4.627   0.519  0.2797  0.0782 -0.3326
15781SOL    HW248586   6.226   4.718   0.405 -0.3870  0.2317 -0.4311
15782SOL     OW48587   3.680   1.989   3.993 -0.5516 -0.1379  0.4913
15782SOL    HW148588   3.669   1.918   3.930  1.5787 -0.3186  0.2771
15782SOL    HW248589   3.628   1.964   4.069  0.3096 -2.0151  0.4845
15783SOL     OW48590   7.163   0.581   7.078 -0.2726  0.0801  0.1480
15783SOL    HW148591   7.210   0.657   7.111  0.1870 -0.1678  0.0729
15783SOL    HW248592   7.082   0.578   7.129  0.5802 -0.4973  1.4975
15784SOL     OW48593   6.872   1.897   7.875  0.0088  0.3693 -0.0857
15784SOL    HW148594   6.799   1.915   7.934  0.2091 -0.7503  0.5075
15784SOL    HW248595   6.922   1.979   7.872 -1.7077  1.4241 -1.1378
15785SOL     OW48596   0.348   5.702   4.427  0.3952  0.0568 -0.3629
15785SOL    HW148597   0.369   5.790   4.457 -0.6212  0.5418 -1.0291
15785SOL    HW248598   0.351   5.648   4.506  0.2439  0.8372  0.1801
15786SOL     OW48599   2.615   2.371   0.221 -0.4067 -0.1461 -0.3013
15786SOL    HW148600   2.658   2.289   0.247  0.5276  0.6801  0.7954
15786SOL    HW248601   2.644   2.386   0.131  1.6434  0.4073  0.4271
15787SOL     OW48602   1.850   6.568   5.018 -0.0996 -0.1569  0.0348
15787SOL    HW148603   1.931   6.519   4.999 -0.0671 -0.3734  0.7178
15787SOL    HW248604   1.877   6.659   5.021  0.1902 -0.2551  0.5941
15788SOL     OW48605   2.166   3.557   3.181 -0.0225  0.3866  0.0736
15788SOL    HW148606   2.208   3.476   3.212 -0.0337  0.2204 -0.3423
15788SOL    HW248607   2.099   3.576   3.247 -0.6168 -0.4369 -0.2790
15789SOL     OW48608   7.664   3.631   7.600  0.1991 -0.2283  0.2282
15789SOL    HW148609   7.610   3.709   7.612 -0.5129 -0.6768 -0.0265
15789SOL    HW248610   7.601   3.559   7.595  0.8817 -0.8788  0.9863
15790SOL     OW48611   0.078   6.264   2.018  0.1359 -0.5117 -0.4254
15790SOL    HW148612   0.096   6.341   1.964  1.8738 -1.0695 -0.6713
15790SOL    HW248613   0.000   6.225   1.978  1.1939 -0.7287 -2.3348
15791SOL     OW48614   3.555   6.325   1.915 -0.1235 -0.0687  0.2743
15791SOL    HW148615   3.631   6.372   1.883 -0.8919  2.7957  2.4506
15791SOL    HW248616   3.482   6.360   1.865 -0.6664  0.9066  1.7233
15792SOL     OW48617   4.038   4.082   0.527  0.2701 -0.1169 -0.0015
15792SOL    HW148618   4.075   4.162   0.490 -0.1997  1.2356  2.3274
15792SOL    HW248619   3.948   4.079   0.494  0.8879 -0.7342 -1.6540
15793SOL     OW48620   1.857   6.816   4.137 -0.6105 -0.4272 -0.3447
15793SOL    HW148621   1.858   6.749   4.069 -0.3645 -1.0660  0.2895
15793SOL    HW248622   1.764   6.825   4.160 -0.9782  1.3594 -2.2920
15794SOL     OW48623   1.338   2.815   7.965  0.4765 -0.3761  0.3489
15794SOL    HW148624   1.372   2.810   8.054  0.5389  0.0557  0.3515
15794SOL    HW248625   1.358   2.730   7.926  2.9600  0.4044 -0.1479
15795SOL     OW48626   7.615   1.536   1.982 -0.5642 -0.3373 -0.1418
15795SOL    HW148627   7.631   1.588   2.061 -2.4384 -2.9556  2.0831
15795SOL    HW248628   7.686   1.472   1.980 -1.5928 -1.5307  0.5707
15796SOL     OW48629   3.823   5.297   4.252  0.5164 -0.4226 -0.1460
15796SOL    HW148630   3.869   5.311   4.335  0.0264  2.8570 -0.3478
15796SOL    HW248631   3.732   5.323   4.271  0.2067 -0.4887 -1.5020
15797SOL     OW48632   1.766   7.071   3.865 -0.4041  0.6973 -0.3820
15797SOL    HW148633   1.806   7.158   3.870 -0.4379  0.6937 -0.0422
15797SOL    HW248634   1.687   7.084   3.813  0.1530  0.6639 -1.2362
15798SOL     OW48635   3.337   3.191   0.166  0.1891 -0.2715  0.7108
15798SOL    HW148636   3.378   3.247   0.100  0.6897 -0.6216  0.7245
15798SOL    HW248637   3.248   3.226   0.174 -0.6066 -1.5692 -1.7401
15799SOL     OW48638   1.526   6.768   4.793  0.3113 -0.7167  0.0110
15799SOL    HW148639   1.433   6.789   4.786  0.3278 -0.2039  1.1250
15799SOL    HW248640   1.568   6.821   4.725 -0.0021  0.5439  0.7791
15800SOL     OW48641   1.743   0.458   0.348 -0.4993  0.6465 -0.5961
15800SOL    HW148642   1.809   0.427   0.287 -1.5740 -1.1102 -0.8901
15800SOL    HW248643   1.782   0.447   0.435  0.0094  0.6677 -0.8266
15801SOL     OW48644   5.656   6.032   7.108 -0.8648  0.2956  0.7370
15801SOL    HW148645   5.704   6.026   7.191 -0.2464  1.7647  0.5167
15801SOL    HW248646   5.647   6.127   7.093 -3.2903  0.0532  0.4486
15802SOL     OW48647   1.642   3.962   0.948  0.1188 -0.3110 -0.4251
15802SOL    HW148648   1.672   4.045   0.984  0.6098 -0.4360 -0.5395
15802SOL    HW248649   1.567   3.938   1.001 -1.1460  1.0984 -1.5221
15803SOL     OW48650   3.391   6.247   5.726  0.3513  0.3062  0.0973
15803SOL    HW148651   3.370   6.170   5.780  1.2049 -1.0577 -1.4576
15803SOL    HW248652   3.419   6.210   5.642  2.0956  2.2788 -0.2248
15804SOL     OW48653   7.427   6.038   7.280  0.2545  0.2551 -0.2552
15804SOL    HW148654   7.419   6.020   7.186 -0.0623  1.4302 -0.4584
15804SOL    HW248655   7.449   6.131   7.284  0.3933  0.1727  0.8370
15805SOL     OW48656   2.124   4.534   1.259  1.2199 -0.3972  0.1826
15805SOL    HW148657   2.115   4.513   1.166 -1.4252 -1.2067  0.5540
15805SOL    HW248658   2.162   4.455   1.298 -1.6150 -1.7226  0.3943
15806SOL     OW48659   7.955   1.676   1.108  0.3377 -0.2562  0.2840
15806SOL    HW148660   7.872   1.719   1.126  0.2409 -1.0980  1.8926
15806SOL    HW248661   7.978   1.704   1.019 -1.3815  0.4139  0.0420
15807SOL     OW48662   7.141   4.521   2.978 -0.3970 -0.3426 -0.1128
15807SOL    HW148663   7.165   4.613   2.992 -2.3259  0.0678  0.6279
15807SOL    HW248664   7.222   4.480   2.948  1.1063  1.1072  1.8119
15808SOL     OW48665   0.231   8.009   1.030 -0.6201 -0.7310  0.0061
15808SOL    HW148666   0.267   8.008   0.942 -0.4430 -0.4204  0.0716
15808SOL    HW248667   0.223   8.102   1.051  0.4443 -0.8018  0.7665
15809SOL     OW48668   2.600   1.532   2.822  0.3722  0.3024  0.8100
15809SOL    HW148669   2.636   1.461   2.770 -0.0533 -1.1803  2.5014
15809SOL    HW248670   2.516   1.552   2.780  0.6263  0.0146  0.1545
15810SOL     OW48671   1.102   3.887   5.570 -0.6611 -0.0543 -0.1545
15810SOL    HW148672   1.128   3.808   5.617  1.3399 -0.0544 -1.2106
15810SOL    HW248673   1.141   3.959   5.620  1.9333 -0.0862 -2.0391
15811SOL     OW48674   6.311   0.170   1.049 -0.5902 -0.2580 -0.1291
15811SOL    HW148675   6.327   0.082   1.084  1.6090 -0.1206 -0.7482
15811SOL    HW248676   6.310   0.227   1.126 -1.0805 -0.6677  0.1782
15812SOL     OW48677   4.812   7.355   8.150 -0.5576 -0.5065 -0.2901
15812SOL    HW148678   4.732   7.310   8.177  0.6483 -1.5556  1.7099
15812SOL    HW248679   4.883   7.295   8.175  0.8372  0.0991 -2.6008
15813SOL     OW48680   7.600   7.335   7.537 -0.3189  0.1612 -0.3033
15813SOL    HW148681   7.588   7.310   7.628  2.2708 -2.4189 -0.5924
15813SOL    HW248682   7.681   7.386   7.536 -1.6879  2.4341 -0.8416
15814SOL     OW48683   5.853   1.226   6.007  0.3753 -0.0646 -0.9869
15814SOL    HW148684   5.933   1.276   5.989  1.4406 -1.9260 -1.6531
15814SOL    HW248685   5.882   1.135   6.008 -1.2071 -0.5946  1.8722
15815SOL     OW48686   3.298   0.517   4.598 -0.5188 -0.0435  0.0490
15815SOL    HW148687   3.321   0.426   4.617  1.8258  0.7721  1.3160
15815SOL    HW248688   3.350   0.539   4.521 -3.0908 -0.5357 -1.8971
15816SOL     OW48689   0.442   0.392   0.576  0.5682 -0.2040  0.0094
15816SOL    HW148690   0.440   0.474   0.526  2.9510  0.6379  1.2242
15816SOL    HW248691   0.534   0.368   0.579  0.2681 -1.1206  2.5803
15817SOL     OW48692   3.843   3.751   3.890 -0.6143 -0.1381 -0.6966
15817SOL    HW148693   3.798   3.705   3.961 -0.4168  0.8026  0.0448
15817SOL    HW248694   3.827   3.843   3.907 -0.0358  0.1215 -1.5286
15818SOL     OW48695   8.132   1.594   3.407  0.0684 -0.1932 -0.3889
15818SOL    HW148696   8.170   1.668   3.454 -1.4369  0.8638 -0.7910
15818SOL    HW248697   8.204   1.558   3.355  1.0201  0.4465  0.4904
15819SOL     OW48698   7.027   2.466   3.164 -0.4330  0.1644  0.1370
15819SOL    HW148699   7.040   2.543   3.219 -1.2537  1.0722 -0.9426
15819SOL    HW248700   7.017   2.500   3.075  1.2160 -1.3100 -0.6526
15820SOL     OW48701   6.456   3.530   1.981 -0.4298  0.0084  0.0189
15820SOL    HW148702   6.426   3.601   2.037 -0.4956  0.1952 -0.2509
15820SOL    HW248703   6.550   3.544   1.972 -0.3865 -0.1359  0.2431
15821SOL     OW48704   3.472   0.684   5.535  1.2862  0.2286 -0.3836
15821SOL    HW148705   3.558   0.643   5.527  1.4114  0.5760 -0.8599
15821SOL    HW248706   3.447   0.670   5.626  1.0673 -1.4335 -0.6817
15822SOL     OW48707   3.045   0.830   1.169 -0.7061  0.1584  0.3370
15822SOL    HW148708   3.132   0.842   1.207 -1.0677 -2.7140  2.2452
15822SOL    HW248709   3.010   0.753   1.214 -4.2159  1.2107 -0.4475
15823SOL     OW48710   2.805   4.810   7.161  0.4129  0.1876  0.7393
15823SOL    HW148711   2.866   4.758   7.110 -0.5730 -0.6743  0.4315
15823SOL    HW248712   2.844   4.814   7.249  2.1354  1.7200 -0.0588
15824SOL     OW48713   2.808   4.314   6.445  0.0822 -0.1273 -0.4303
15824SOL    HW148714   2.866   4.290   6.518 -0.8323 -3.8232 -0.8264
15824SOL    HW248715   2.843   4.267   6.370 -0.9143  1.0501 -1.6544
15825SOL     OW48716   6.261   7.331   5.387 -0.7642 -0.0242  0.4027
15825SOL    HW148717   6.203   7.383   5.443 -0.5384 -0.3943  0.9918
15825SOL    HW248718   6.314   7.281   5.449  0.3799  0.5283 -0.1272
15826SOL     OW48719   0.522   7.681   0.203 -0.1973 -0.5293 -0.1884
15826SOL    HW148720   0.553   7.760   0.159 -0.3131 -0.1519  0.4107
15826SOL    HW248721   0.601   7.633   0.227 -0.1327 -0.7694 -0.8603
15827SOL     OW48722   7.498   0.630   2.536 -0.1186 -0.1991  0.0658
15827SOL    HW148723   7.462   0.710   2.497 -1.3696 -0.5781  0.4337
15827SOL    HW248724   7.586   0.624   2.499 -1.1587 -0.3878 -2.5275
15828SOL     OW48725   1.032   0.145   4.744 -0.6876  0.0162  0.1688
15828SOL    HW148726   0.992   0.187   4.819 -1.1832 -0.8177  0.3756
15828SOL    HW248727   0.969   0.078   4.717 -0.1622 -0.2172 -0.5043
15829SOL     OW48728   4.410   7.159   1.440 -0.7079 -0.2353  0.3315
15829SOL    HW148729   4.462   7.084   1.471 -1.9341 -1.2058  0.0494
15829SOL    HW248730   4.358   7.124   1.368 -1.1522  0.9390  0.0820
15830SOL     OW48731   1.851   4.679   3.980  0.3817 -0.1036 -0.6289
15830SOL    HW148732   1.849   4.709   4.071  0.4253  0.5544 -0.8419
15830SOL    HW248733   1.898   4.748   3.933  2.7606 -1.6915 -0.6971
15831SOL     OW48734   7.761   1.105   2.121 -0.2175 -0.0954 -0.1384
15831SOL    HW148735   7.818   1.029   2.113  0.2970  0.2601  0.0796
15831SOL    HW248736   7.798   1.156   2.193 -1.1540 -0.1510  0.3964
15832SOL     OW48737   6.577   7.170   6.762 -0.6051  0.3200 -0.1586
15832SOL    HW148738   6.527   7.207   6.690  0.3105 -1.2110 -1.6286
15832SOL    HW248739   6.650   7.230   6.774 -0.7134  0.5363 -0.5579
15833SOL     OW48740   6.511   5.129   4.173 -0.3420 -0.5220 -0.4040
15833SOL    HW148741   6.553   5.049   4.204 -0.5650 -0.3120  0.4416
15833SOL    HW248742   6.554   5.148   4.090  1.6346  0.0150  0.7263
15834SOL     OW48743   4.550   1.016   0.947 -0.4710  0.0526 -0.2573
15834SOL    HW148744   4.578   1.103   0.978  0.0539 -0.3089  0.2886
15834SOL    HW248745   4.486   0.987   1.011 -2.6218  1.1441 -1.8374
15835SOL     OW48746   5.464   3.983   1.135 -0.2721 -0.0627  0.1749
15835SOL    HW148747   5.431   3.912   1.191 -0.2311  0.0591  0.3519
15835SOL    HW248748   5.528   4.029   1.189  1.4419 -1.3158 -0.7390
15836SOL     OW48749   5.513   2.689   2.213 -0.6085 -0.2071 -0.9312
15836SOL    HW148750   5.561   2.737   2.280  1.0992 -0.1373 -2.1857
15836SOL    HW248751   5.564   2.701   2.133 -1.0353 -2.7067 -1.6295
15837SOL     OW48752   3.755   4.394   2.818 -0.0759 -0.0111  0.1257
15837SOL    HW148753   3.756   4.388   2.723  0.7399  0.5686  0.0876
15837SOL    HW248754   3.837   4.440   2.840  0.3914 -1.3206  1.1762
15838SOL     OW48755   2.869   4.578   0.787 -0.0256  0.9362  0.1931
15838SOL    HW148756   2.954   4.561   0.746 -1.0964 -1.6342 -1.1083
15838SOL    HW248757   2.880   4.661   0.833  2.6302  1.5572 -1.4753
15839SOL     OW48758   4.623   3.137   3.774 -0.3845  0.5999  0.0610
15839SOL    HW148759   4.683   3.174   3.708  0.9429 -0.0944  0.8594
15839SOL    HW248760   4.680   3.102   3.841 -1.6794 -0.9634  0.3751
15840SOL     OW48761   5.738   2.913   4.857  0.2764  0.0830  0.2398
15840SOL    HW148762   5.743   2.957   4.772 -0.5698 -1.8868 -0.8653
15840SOL    HW248763   5.776   2.826   4.841  1.0986  0.0645  2.1479
15841SOL     OW48764   3.699   0.574   1.200  0.1961  0.3265  0.5180
15841SOL    HW148765   3.706   0.482   1.224  0.8489  0.0063 -0.8312
15841SOL    HW248766   3.757   0.620   1.261 -0.5863 -0.0715  1.5781
15842SOL     OW48767   2.384   7.369   8.153  0.1699  0.2237  0.2077
15842SOL    HW148768   2.414   7.295   8.206 -1.2754 -0.4498  0.1087
15842SOL    HW248769   2.463   7.400   8.109  1.0892 -0.2549  1.4624
15843SOL     OW48770   2.366   5.346   2.750  0.0136 -0.6841  0.6304
15843SOL    HW148771   2.380   5.441   2.747  0.0827 -0.5583  3.3658
15843SOL    HW248772   2.442   5.309   2.703 -0.2881  0.6070 -0.9001
15844SOL     OW48773   7.660   3.781   1.086  0.3437  0.0859  0.4495
15844SOL    HW148774   7.722   3.726   1.133  0.0157  0.2286  1.0546
15844SOL    HW248775   7.680   3.767   0.993  1.7030  0.6461  0.6584
15845SOL     OW48776   4.777   0.901   1.255 -0.2002  0.0461  0.1839
15845SOL    HW148777   4.785   0.828   1.317  2.1468 -0.0465 -0.2125
15845SOL    HW248778   4.818   0.869   1.175  0.2635  1.5693 -0.2057
15846SOL     OW48779   4.233   5.470   4.954  0.0883  0.3054  0.0763
15846SOL    HW148780   4.243   5.426   5.038  1.2636  1.4956  0.5770
15846SOL    HW248781   4.321   5.502   4.933 -0.5206  1.4223 -0.8230
15847SOL     OW48782   4.689   0.376   1.203  0.3446 -0.0922 -0.5075
15847SOL    HW148783   4.785   0.372   1.203  0.3065 -1.5347  0.1160
15847SOL    HW248784   4.661   0.285   1.212 -1.0849  0.3600 -0.1363
15848SOL     OW48785   7.634   3.739   0.107 -0.0505 -0.4871  0.1277
15848SOL    HW148786   7.726   3.731   0.084  0.1373  0.7864  0.3782
15848SOL    HW248787   7.604   3.649   0.118  0.9638 -0.9403 -0.7054
15849SOL     OW48788   0.156   6.591   4.220 -0.3632  0.0953 -0.4284
15849SOL    HW148789   0.182   6.547   4.301 -1.0948  2.3295  1.0634
15849SOL    HW248790   0.209   6.670   4.217 -0.6672  0.2641 -1.9179
15850SOL     OW48791   8.201   0.349   6.059 -0.4086  0.1197 -0.1130
15850SOL    HW148792   8.120   0.317   6.022  0.2374 -1.1576 -0.4372
15850SOL    HW248793   8.258   0.272   6.064  0.9829  1.1006 -0.4348
15851SOL     OW48794   3.142   6.636   3.917  0.3994  0.3591  0.1519
15851SOL    HW148795   3.069   6.575   3.912 -0.1587  1.1041 -1.1000
15851SOL    HW248796   3.101   6.722   3.918  1.1839  0.7163  1.8871
15852SOL     OW48797   5.603   1.520   0.436  0.3301  0.0230 -0.0241
15852SOL    HW148798   5.514   1.508   0.468  0.4443 -0.0066  0.2810
15852SOL    HW248799   5.613   1.614   0.426  0.3895  0.0492  0.2949
15853SOL     OW48800   2.212   0.568   1.865 -0.2866  0.0681  0.4817
15853SOL    HW148801   2.182   0.645   1.914 -0.5339 -0.7535  1.6632
15853SOL    HW248802   2.210   0.497   1.929 -0.0688 -0.9279 -0.5911
15854SOL     OW48803   7.794   5.338   6.932  0.0098  0.4082  0.5697
15854SOL    HW148804   7.861   5.338   6.865  0.0058  1.0512  0.5625
15854SOL    HW248805   7.827   5.279   7.000 -0.6072 -1.3111 -0.5964
15855SOL     OW48806   5.514   1.972   0.785 -0.4508 -0.3641  0.2204
15855SOL    HW148807   5.603   1.943   0.764  0.5514  2.7907 -0.2031
15855SOL    HW248808   5.482   2.011   0.703 -0.9944  1.4137  1.2590
15856SOL     OW48809   5.253   2.308   8.039  0.3354  0.0311 -0.0285
15856SOL    HW148810   5.293   2.394   8.026 -1.4071  0.7891 -0.5343
15856SOL    HW248811   5.308   2.247   7.989 -0.2243  1.3410 -2.3221
15857SOL     OW48812   4.164   1.607   6.286 -0.0220 -0.6340 -0.6262
15857SOL    HW148813   4.106   1.621   6.360  2.1304  1.3491  0.7515
15857SOL    HW248814   4.247   1.577   6.325  1.4418  1.3355 -2.1024
15858SOL     OW48815   3.198   7.460   1.610 -0.4968  0.3194  0.1426
15858SOL    HW148816   3.248   7.406   1.549 -0.6473  1.4897 -1.0278
15858SOL    HW248817   3.114   7.415   1.617 -0.2925 -0.1052 -0.0976
15859SOL     OW48818   3.496   2.874   4.257 -0.1433  0.1255 -0.1559
15859SOL    HW148819   3.530   2.786   4.277  0.1045  0.1412 -0.5033
15859SOL    HW248820   3.555   2.908   4.190  0.9897  1.3770  1.4411
15860SOL     OW48821   5.842   8.254   7.917 -0.3947 -0.5907 -0.1811
15860SOL    HW148822   5.807   8.237   7.830  0.2506  0.3156 -0.6296
15860SOL    HW248823   5.812   8.343   7.938  3.2926  1.0668 -1.4606
15861SOL     OW48824   1.821   6.908   7.019 -0.2599 -0.5084  0.1328
15861SOL    HW148825   1.820   6.853   7.098  0.2964 -0.2849  0.2936
15861SOL    HW248826   1.863   6.854   6.952 -0.1425 -0.4573  0.1644
15862SOL     OW48827   0.581   7.883   1.139  0.2449 -0.2071  0.2355
15862SOL    HW148828   0.677   7.882   1.135  0.2227 -3.0800 -0.1600
15862SOL    HW248829   0.554   7.905   1.050  0.5127 -1.5113 -0.1676
15863SOL     OW48830   1.428   4.252   6.595  0.1182 -0.4115  0.3305
15863SOL    HW148831   1.405   4.190   6.664  0.7910 -0.6257  0.3646
15863SOL    HW248832   1.517   4.280   6.616  0.6190 -1.0623 -0.8697
15864SOL     OW48833   0.320   7.238   7.706 -0.4112 -0.0802 -0.2110
15864SOL    HW148834   0.365   7.319   7.680  2.8164 -1.6047  0.3792
15864SOL    HW248835   0.286   7.202   7.625  1.6918 -0.1771 -1.0856
15865SOL     OW48836   3.101   0.523   7.596 -0.4521 -0.1192  0.1028
15865SOL    HW148837   3.159   0.571   7.537 -0.5785 -0.9015 -0.6687
15865SOL    HW248838   3.044   0.472   7.538 -0.3282 -1.1874  0.9029
15866SOL     OW48839   7.543   6.112   8.242 -0.2832  0.2097 -0.2190
15866SOL    HW148840   7.546   6.017   8.238 -1.2396  0.2388 -2.0237
15866SOL    HW248841   7.450   6.133   8.235 -0.2310  1.2304  1.7351
15867SOL     OW48842   0.978   0.505   4.736 -0.0180 -0.0566 -0.1324
15867SOL    HW148843   1.050   0.554   4.698 -0.2269  1.5310  1.4379
15867SOL    HW248844   0.917   0.492   4.664  0.6406  0.8643 -0.8737
15868SOL     OW48845   5.251   2.901   4.532 -0.0116  0.0836  0.1926
15868SOL    HW148846   5.248   2.924   4.440  1.2468 -1.6609 -0.3093
15868SOL    HW248847   5.164   2.867   4.552 -0.2242  0.2906 -0.3988
15869SOL     OW48848   2.622   6.216   4.980 -0.2132 -0.0136  0.0245
15869SOL    HW148849   2.687   6.218   4.909  1.1738 -0.8640  1.2450
15869SOL    HW248850   2.667   6.254   5.055 -1.3875  0.0679  0.6958
15870SOL     OW48851   3.167   0.119   4.072 -0.3472  0.3706  0.8182
15870SOL    HW148852   3.231   0.058   4.037 -1.7641 -0.9298  0.4570
15870SOL    HW248853   3.212   0.204   4.072  1.4911 -0.5937  0.9614
15871SOL     OW48854   7.619   5.336   1.140  0.5584 -0.3942 -0.4726
15871SOL    HW148855   7.588   5.300   1.056 -0.5570  0.1326 -0.2999
15871SOL    HW248856   7.714   5.328   1.136  0.4322 -1.7328 -1.1798
15872SOL     OW48857   1.449   2.721   5.879  0.7501  1.1086 -0.0586
15872SOL    HW148858   1.397   2.725   5.799 -0.3177  2.2354  0.6709
15872SOL    HW248859   1.440   2.808   5.917 -2.4556 -0.6758  3.5979
15873SOL     OW48860   3.342   2.572   1.276 -0.0417 -0.1206  0.1479
15873SOL    HW148861   3.307   2.632   1.342 -1.4501  0.2646 -0.9248
15873SOL    HW248862   3.328   2.485   1.312 -0.2136  0.1129  0.6402
15874SOL     OW48863   2.090   5.121   2.588  0.2935  0.1286 -0.4995
15874SOL    HW148864   2.109   5.188   2.653 -0.7866  0.4882 -0.5534
15874SOL    HW248865   2.072   5.169   2.508  2.0032 -0.3275 -1.1824
15875SOL     OW48866   3.033   1.095   0.593 -0.5639  0.3453  0.2334
15875SOL    HW148867   3.023   1.158   0.664 -0.7299  0.7410 -0.1362
15875SOL    HW248868   3.110   1.126   0.545 -0.8889  0.5017 -0.1887
15876SOL     OW48869   0.644   4.566   7.108 -0.1514 -0.2440  0.3661
15876SOL    HW148870   0.641   4.510   7.031  0.3988 -2.8497  2.1882
15876SOL    HW248871   0.725   4.616   7.099  0.5177 -1.4118 -0.1691
15877SOL     OW48872   0.807   0.941   2.595  0.0089 -0.2758 -0.5435
15877SOL    HW148873   0.866   0.974   2.663  1.2322 -1.4724 -1.0136
15877SOL    HW248874   0.767   1.020   2.558  0.7858  0.5025  0.2577
15878SOL     OW48875   7.445   6.453   3.508 -0.1833 -0.6447  0.1574
15878SOL    HW148876   7.437   6.476   3.416  0.8722  1.7949  0.6265
15878SOL    HW248877   7.366   6.490   3.549 -0.2188 -0.9400  0.3541
15879SOL     OW48878   3.024   1.350   8.035 -1.1496 -0.2681 -0.0537
15879SOL    HW148879   2.979   1.305   7.963 -0.6504 -0.4109 -0.2799
15879SOL    HW248880   3.101   1.389   7.994 -0.3707 -1.1204  0.5632
15880SOL     OW48881   5.018   5.163   7.416 -0.3320 -0.1450  0.1914
15880SOL    HW148882   5.017   5.198   7.505  0.5260 -1.7896  0.8684
15880SOL    HW248883   4.927   5.142   7.398 -0.6092  0.8348  0.4177
15881SOL     OW48884   6.428   4.977   5.828 -0.2887  0.0088  0.3699
15881SOL    HW148885   6.336   4.988   5.848 -0.6994  0.3494 -1.5856
15881SOL    HW248886   6.474   5.020   5.900 -1.6729  1.0373  0.6501
15882SOL     OW48887   7.424   4.061   3.100 -0.4557  0.3685  0.0315
15882SOL    HW148888   7.441   4.150   3.130 -0.4384 -0.1850  1.7329
15882SOL    HW248889   7.415   4.010   3.180 -1.0863 -1.0541 -0.9136
15883SOL     OW48890   4.550   4.293   2.860  0.0798  0.0601  0.1663
15883SOL    HW148891   4.573   4.378   2.899  0.9595 -0.5054  0.9132
15883SOL    HW248892   4.617   4.279   2.792 -0.0422 -0.0492  0.0680
15884SOL     OW48893   2.088   5.178   0.936  0.2047 -0.7183 -0.1905
15884SOL    HW148894   2.155   5.246   0.940 -1.4830  0.9541  0.6414
15884SOL    HW248895   2.111   5.126   0.859  3.2170 -1.0288  0.8728
15885SOL     OW48896   8.092   7.039   6.048  0.5270  0.1063  0.0549
15885SOL    HW148897   8.053   6.962   6.088 -0.7432  0.5994 -0.2143
15885SOL    HW248898   8.177   7.009   6.015  0.5337 -0.8900  0.9527
15886SOL     OW48899   5.463   6.923   6.788  0.1420  0.0870 -0.1040
15886SOL    HW148900   5.512   6.936   6.869 -0.3392  0.8874  0.0670
15886SOL    HW248901   5.520   6.868   6.734  0.4396 -0.5028  0.7938
15887SOL     OW48902   6.501   2.351   5.058 -0.0508  0.3516  0.3411
15887SOL    HW148903   6.557   2.274   5.046 -0.8216  0.2074 -2.7556
15887SOL    HW248904   6.560   2.418   5.093  0.8768 -1.2862  2.0153
15888SOL     OW48905   1.107   3.847   1.452  0.5647  0.2149  0.5795
15888SOL    HW148906   1.135   3.938   1.458 -1.4090  1.0266 -1.4873
15888SOL    HW248907   1.042   3.837   1.521 -1.2847  1.2350 -0.9620
15889SOL     OW48908   8.237   5.511   5.419 -0.3325 -0.0923 -0.5013
15889SOL    HW148909   8.164   5.483   5.363 -1.2191 -0.0708  0.6100
15889SOL    HW248910   8.254   5.435   5.475  0.0426  0.1382 -0.2993
15890SOL     OW48911   1.164   6.524   5.838 -0.1233  0.0901 -0.4549
15890SOL    HW148912   1.105   6.559   5.905 -0.8857  0.2357 -1.1878
15890SOL    HW248913   1.150   6.429   5.842  0.8046 -0.0145  0.4818
15891SOL     OW48914   2.517   7.898   7.075  0.3170 -0.0028 -0.0927
15891SOL    HW148915   2.446   7.937   7.024  0.2323  0.5586  0.4497
15891SOL    HW248916   2.514   7.805   7.054 -0.4665  0.0495 -0.2006
15892SOL     OW48917   5.644   3.346   5.695 -0.5327 -0.4000  0.2024
15892SOL    HW148918   5.609   3.279   5.636  0.1097  0.7193 -1.4829
15892SOL    HW248919   5.599   3.427   5.670  1.0441  0.4462  0.0276
15893SOL     OW48920   2.757   7.565   7.346  0.1669  0.2904 -0.3171
15893SOL    HW148921   2.806   7.647   7.344 -0.1224  0.5002  1.0036
15893SOL    HW248922   2.671   7.587   7.311  0.2214  0.4589 -0.3449
15894SOL     OW48923   7.526   0.697   7.365  0.1918 -0.0302  0.1532
15894SOL    HW148924   7.583   0.773   7.366  0.8558 -0.4825 -1.4350
15894SOL    HW248925   7.477   0.703   7.447  1.1447  1.3967  0.6490
15895SOL     OW48926   5.755   1.484   3.958 -0.0535 -0.1183 -0.0769
15895SOL    HW148927   5.765   1.390   3.973  0.5595  0.2158  1.7746
15895SOL    HW248928   5.843   1.513   3.934 -0.4247 -0.1491 -1.5061
15896SOL     OW48929   3.011   6.327   7.811 -0.0229 -0.1946 -0.0571
15896SOL    HW148930   2.958   6.249   7.805 -0.8927  0.2731  1.3215
15896SOL    HW248931   3.099   6.295   7.832 -0.5945 -0.7626  1.5707
15897SOL     OW48932   6.878   4.964   3.046  0.2582 -0.0580  0.0985
15897SOL    HW148933   6.864   5.053   3.013  2.1968  0.1614 -0.2312
15897SOL    HW248934   6.911   4.977   3.135  0.2439 -0.4587  0.1638
15898SOL     OW48935   4.851   0.969   4.245  0.1954  0.1676  0.5700
15898SOL    HW148936   4.944   0.983   4.263  0.4096 -0.2300 -0.2165
15898SOL    HW248937   4.850   0.917   4.165 -0.7234  0.6035  0.3012
15899SOL     OW48938   2.763   4.647   8.203  0.0909 -0.1403 -0.3849
15899SOL    HW148939   2.806   4.562   8.194 -0.2547 -0.4567  0.7854
15899SOL    HW248940   2.798   4.700   8.132  0.9572 -1.0032 -0.6090
15900SOL     OW48941   1.962   7.366   5.322  0.1636 -0.2299  0.3084
15900SOL    HW148942   1.915   7.424   5.262  0.8097 -1.2502 -1.2257
15900SOL    HW248943   2.036   7.418   5.353 -0.4300  0.4579  0.5825
15901SOL     OW48944   3.015   6.827   0.756 -0.2354  0.2706  0.4063
15901SOL    HW148945   2.939   6.871   0.719  0.3303  1.6780  0.8743
15901SOL    HW248946   3.090   6.871   0.717  0.3520  0.5733  1.8379
15902SOL     OW48947   7.215   3.428   2.329  0.4001 -0.3610 -0.1121
15902SOL    HW148948   7.282   3.492   2.354  1.4387 -1.0923 -0.9882
15902SOL    HW248949   7.222   3.422   2.234 -0.1758 -1.2476 -0.1023
15903SOL     OW48950   0.777   3.365   0.546  0.3640 -0.2124 -0.3280
15903SOL    HW148951   0.826   3.288   0.516  0.8094 -0.1244  0.1537
15903SOL    HW248952   0.759   3.346   0.638 -1.3215 -0.6558 -0.7309
15904SOL     OW48953   6.801   2.022   3.633  0.5809  0.0943  0.5207
15904SOL    HW148954   6.862   1.973   3.689  1.8226  1.7485  0.6533
15904SOL    HW248955   6.731   2.050   3.693  0.8297  0.0750  0.8230
15905SOL     OW48956   8.207   2.657   0.279 -0.0682 -0.2651  0.1123
15905SOL    HW148957   8.172   2.683   0.364 -2.9783  0.6706 -1.2986
15905SOL    HW248958   8.190   2.732   0.222 -0.5423 -1.8467 -1.8944
15906SOL     OW48959   6.565   7.940   5.542  0.2497 -0.3632 -0.8710
15906SOL    HW148960   6.607   7.913   5.460  0.5904  0.1859 -0.8855
15906SOL    HW248961   6.556   8.035   5.534  0.3576 -0.2945 -0.2380
15907SOL     OW48962   0.859   4.848   2.590 -0.3946  0.0647  0.3048
15907SOL    HW148963   0.954   4.840   2.577 -0.4039 -2.1082  1.3680
15907SOL    HW248964   0.823   4.849   2.501  0.6010  0.5274 -0.1004
15908SOL     OW48965   4.771   6.175   1.171  0.0497 -0.1894 -0.2289
15908SOL    HW148966   4.756   6.224   1.252  0.3597 -1.0985  0.3804
15908SOL    HW248967   4.711   6.215   1.108 -1.7849 -0.8789  1.0291
15909SOL     OW48968   5.226   6.897   5.241 -0.4133  0.6418 -0.6667
15909SOL    HW148969   5.230   6.971   5.181 -1.2076  1.6707  0.5419
15909SOL    HW248970   5.135   6.893   5.271 -0.0347  0.1576  0.4810
15910SOL     OW48971   6.267   4.432   0.242  0.1220 -0.0364 -0.2847
15910SOL    HW148972   6.355   4.397   0.257 -0.1636 -0.1347  1.2779
15910SOL    HW248973   6.282   4.521   0.210  0.8005  0.0012  0.1229
15911SOL     OW48974   3.936   6.230   5.367  0.0049  0.0126  0.1774
15911SOL    HW148975   3.985   6.274   5.436 -0.4161  0.6829  0.0591
15911SOL    HW248976   3.914   6.144   5.403  1.1884 -0.2605  0.2586
15912SOL     OW48977   3.953   6.474   7.568  0.4969 -0.5472  0.7471
15912SOL    HW148978   3.936   6.442   7.657 -0.2121 -0.3709  0.6761
15912SOL    HW248979   3.916   6.407   7.511  2.1515 -1.3262  0.5668
15913SOL     OW48980   0.716   3.924   2.850 -0.1311 -0.0227 -0.7264
15913SOL    HW148981   0.708   3.896   2.941 -0.8860 -2.3791 -1.4819
15913SOL    HW248982   0.803   3.964   2.845  1.3632 -2.9777  0.2757
15914SOL     OW48983   7.872   8.053   0.413 -1.0194 -0.2661  0.4012
15914SOL    HW148984   7.924   8.111   0.359 -3.4525  1.0778 -0.5585
15914SOL    HW248985   7.838   8.109   0.483 -2.6543 -0.6995 -0.0254
15915SOL     OW48986   5.177   6.032   1.949  0.1372  0.1221 -0.1272
15915SOL    HW148987   5.241   6.003   2.014 -1.5117  0.5771  1.7509
15915SOL    HW248988   5.095   5.991   1.976 -1.2533  2.8386 -0.0230
15916SOL     OW48989   5.659   4.012   6.424 -0.5219 -0.6076 -0.1507
15916SOL    HW148990   5.655   4.043   6.514  2.4661  0.0112 -0.2119
15916SOL    HW248991   5.620   4.083   6.372  0.0393  0.1111  0.4039
15917SOL     OW48992   3.902   2.588   4.178 -0.1012  0.4982  0.2470
15917SOL    HW148993   3.931   2.675   4.149 -0.8361  0.6483 -0.0495
15917SOL    HW248994   3.828   2.605   4.236  0.7644  0.1431  1.4812
15918SOL     OW48995   4.375   3.679   0.445  0.3126  0.8191  0.2051
15918SOL    HW148996   4.404   3.644   0.529 -0.5697  0.8014  0.5076
15918SOL    HW248997   4.330   3.761   0.467 -0.8977  0.2592 -0.1273
15919SOL     OW48998   0.884   7.602   3.120  0.0431  0.1709 -0.4841
15919SOL    HW148999   0.914   7.511   3.120 -1.5508 -0.3737  0.5364
15919SOL    HW249000   0.804   7.602   3.068 -0.3880  0.8339  0.1549
15920SOL     OW49001   1.348   8.039   3.828 -0.0436 -0.1026 -0.0820
15920SOL    HW149002   1.289   8.114   3.816  0.1877  0.1878  0.5670
15920SOL    HW249003   1.359   8.032   3.923  0.5967 -0.4430 -0.1800
15921SOL     OW49004   5.454   0.006   0.404  0.5843 -0.1734  0.0643
15921SOL    HW149005   5.537  -0.035   0.431 -0.8600 -2.4013  1.2401
15921SOL    HW249006   5.480   0.093   0.371  3.4896 -1.1829 -0.4914
15922SOL     OW49007   4.969   0.517   1.594 -0.2877  0.8892 -0.2454
15922SOL    HW149008   4.980   0.595   1.648  1.3486 -0.6934  1.8154
15922SOL    HW249009   5.058   0.497   1.564 -0.1752 -1.7781  1.6484
15923SOL     OW49010   1.182   7.896   4.978  0.0529 -0.0715  0.2214
15923SOL    HW149011   1.240   7.932   5.045 -1.4972  1.1264  0.9230
15923SOL    HW249012   1.099   7.942   4.990 -1.0140 -1.6704 -0.8753
15924SOL     OW49013   7.770   2.355   1.549  0.7404 -0.1535 -0.4992
15924SOL    HW149014   7.865   2.353   1.562  0.7223  1.7694  0.1447
15924SOL    HW249015   7.741   2.267   1.574  2.2212 -0.3995  0.4627
15925SOL     OW49016   2.922   4.035   7.305  0.0429 -0.0800 -0.2648
15925SOL    HW149017   2.867   3.957   7.314 -0.2190  0.0549 -0.6763
15925SOL    HW249018   3.007   4.008   7.340 -0.3153 -0.2484  0.4974
15926SOL     OW49019   1.383   7.132   3.466  0.2101 -0.2406  0.4493
15926SOL    HW149020   1.349   7.217   3.438  1.7976 -0.2911 -1.7800
15926SOL    HW249021   1.306   7.085   3.497 -1.2915  0.7570 -1.6116
15927SOL     OW49022   2.453   0.531   5.618 -0.5545  0.6975  0.4179
15927SOL    HW149023   2.535   0.581   5.615 -0.1306 -0.0304 -0.6294
15927SOL    HW249024   2.479   0.443   5.592 -1.4897  0.1965  1.1752
15928SOL     OW49025   5.073   6.051   3.431 -0.2930  0.5380  0.2076
15928SOL    HW149026   5.156   6.029   3.473 -1.2048  0.1435  1.8145
15928SOL    HW249027   5.083   6.144   3.407  0.6156  0.4809  0.3340
15929SOL     OW49028   4.020   5.318   1.956  0.1157 -0.4557  0.9936
15929SOL    HW149029   3.943   5.360   1.994  0.1187  0.8033 -0.3677
15929SOL    HW249030   4.060   5.385   1.901  0.2404 -2.1451 -1.0380
15930SOL     OW49031   7.305   1.897   7.295 -0.5578  0.0768 -0.0845
15930SOL    HW149032   7.316   1.990   7.313 -0.2286 -0.6644  3.9577
15930SOL    HW249033   7.232   1.893   7.233 -1.4798  2.9277  0.7507
15931SOL     OW49034   1.927   8.261   2.389  0.0075  0.0116 -0.0066
15931SOL    HW149035   1.868   8.272   2.314 -1.5268 -1.3022  0.9654
15931SOL    HW249036   1.885   8.193   2.442  2.8908 -1.6215  0.2524
15932SOL     OW49037   6.019   5.949   1.058 -0.5495  0.3843  0.3969
15932SOL    HW149038   5.996   6.033   1.018  0.6735  1.0241  1.0174
15932SOL    HW249039   6.114   5.947   1.058 -0.5620 -0.8357  0.7463
15933SOL     OW49040   3.990   3.749   4.276 -0.3065 -0.0615 -0.5159
15933SOL    HW149041   4.034   3.665   4.266  0.5353  0.2423  0.5368
15933SOL    HW249042   3.961   3.751   4.367 -3.2424 -0.5917 -1.3663
15934SOL     OW49043   4.245   7.504   2.553 -0.4410 -0.4296 -0.0106
15934SOL    HW149044   4.151   7.496   2.535 -0.5541  0.6588  0.0728
15934SOL    HW249045   4.251   7.504   2.649 -0.1649 -2.4976 -0.0002
15935SOL     OW49046   3.005   3.077   5.586 -0.2095  0.2095 -0.3723
15935SOL    HW149047   3.044   3.085   5.673  0.3017 -0.4967 -0.5329
15935SOL    HW249048   2.925   3.027   5.600  0.2926 -0.6137 -0.4253
15936SOL     OW49049   8.152   5.729   7.174 -0.0114 -0.0790 -0.1255
15936SOL    HW149050   8.232   5.703   7.221  0.6675 -0.6197 -1.5413
15936SOL    HW249051   8.088   5.746   7.243  0.9875 -0.7863  1.0000
15937SOL     OW49052   0.208   7.213   3.670 -0.2741  0.0725 -0.2788
15937SOL    HW149053   0.219   7.262   3.751  0.6218 -1.8460  0.7871
15937SOL    HW249054   0.282   7.240   3.616 -0.2344  0.4935 -0.0184
15938SOL     OW49055   7.106   6.618   0.981 -0.4864 -0.2917  0.2911
15938SOL    HW149056   7.120   6.558   1.054 -1.3150 -0.1339  0.5791
15938SOL    HW249057   7.062   6.566   0.915 -1.6127  0.1076  0.7160
15939SOL     OW49058   6.329   0.869   6.386 -0.6164 -0.5632 -0.7405
15939SOL    HW149059   6.234   0.876   6.394 -0.4672  0.2450  0.3547
15939SOL    HW249060   6.344   0.861   6.292 -1.8997 -2.6981 -0.7975
15940SOL     OW49061   7.372   2.616   3.524  0.2137 -0.4706  0.2888
15940SOL    HW149062   7.465   2.600   3.539  0.4994  0.4125 -0.5290
15940SOL    HW249063   7.364   2.711   3.517 -0.7761 -0.5249  0.5276
15941SOL     OW49064   4.038   2.680   0.610  0.2550 -0.5046 -0.6174
15941SOL    HW149065   3.995   2.763   0.592  0.2266 -0.0907  1.2920
15941SOL    HW249066   3.972   2.614   0.590 -0.9156  0.0808  1.2300
15942SOL     OW49067   5.653   2.523   4.442  0.5183 -0.1576  0.6928
15942SOL    HW149068   5.638   2.519   4.536 -1.8638 -0.0975  0.3605
15942SOL    HW249069   5.692   2.609   4.428  3.4877 -1.2538  1.9059
15943SOL     OW49070   7.785   5.978   0.936  0.3722  0.0633  0.0548
15943SOL    HW149071   7.707   5.959   0.989  0.2989 -2.3605 -0.8545
15943SOL    HW249072   7.766   5.940   0.850  2.8339 -1.2296  0.0332
15944SOL     OW49073   5.663   7.612   0.870 -0.0537  0.5737 -0.5597
15944SOL    HW149074   5.729   7.651   0.928  0.2850 -2.3966  1.1632
15944SOL    HW249075   5.713   7.567   0.803 -0.3329 -0.1546 -0.2900
15945SOL     OW49076   1.758   8.062   0.232  0.5168 -0.4419 -0.0924
15945SOL    HW149077   1.736   8.143   0.278  0.8074  0.4161 -1.4185
15945SOL    HW249078   1.748   7.993   0.298 -1.8042  0.4078  0.5072
15946SOL     OW49079   3.279   7.802   6.621  0.1951  0.4381  0.1641
15946SOL    HW149080   3.272   7.809   6.716 -2.2922 -2.0810  0.2357
15946SOL    HW249081   3.202   7.848   6.588  0.4818  0.3682 -0.6060
15947SOL     OW49082   6.061   3.767   1.334 -0.1527  0.1175 -0.8130
15947SOL    HW149083   6.097   3.682   1.307  0.6207  0.6938 -1.6256
15947SOL    HW249084   5.976   3.746   1.372  0.2468 -1.0820 -0.5515
15948SOL     OW49085   7.966   3.570   3.841 -0.1731 -0.7450  0.0412
15948SOL    HW149086   7.907   3.502   3.810 -0.4968  0.8778 -3.0725
15948SOL    HW249087   8.047   3.557   3.793  0.0527  0.5337  0.0419
15949SOL     OW49088   4.066   3.366   0.073 -0.8267  0.1052  0.4491
15949SOL    HW149089   3.977   3.400   0.065  0.1859  2.6466 -0.4829
15949SOL    HW249090   4.112   3.402  -0.002  0.7200 -2.1372  0.2895
15950SOL     OW49091   8.138   5.274   5.505  0.2478  0.1938 -0.0126
15950SOL    HW149092   8.169   5.186   5.485  0.1227  0.1358  0.0454
15950SOL    HW249093   8.093   5.265   5.589 -0.7344  0.0957 -0.5352
15951SOL     OW49094   0.580   7.192   6.096 -0.4290 -0.0653  0.3322
15951SOL    HW149095   0.486   7.209   6.086 -0.3543  0.7202  0.9683
15951SOL    HW249096   0.606   7.242   6.172  0.8949  1.2020 -0.9234
15952SOL     OW49097   4.566   1.036   0.345 -0.0417 -0.1913  0.1425
15952SOL    HW149098   4.506   1.037   0.271  0.5886 -0.7884 -0.3844
15952SOL    HW249099   4.514   1.069   0.418 -1.6859 -2.7724  0.1962
15953SOL     OW49100   5.387   7.017   0.907  0.2907  0.2524  0.1435
15953SOL    HW149101   5.413   7.088   0.965 -0.0763  0.4469  0.0726
15953SOL    HW249102   5.446   7.024   0.832 -0.2825  1.0073 -0.2513
15954SOL     OW49103   4.900   1.406   3.534  0.1058  0.0539  0.4459
15954SOL    HW149104   4.863   1.320   3.514  0.0999 -0.2612  1.8055
15954SOL    HW249105   4.924   1.402   3.626  0.8903  1.2307  0.3096
15955SOL     OW49106   4.562   6.859   0.926  0.2794  0.0377 -0.6574
15955SOL    HW149107   4.539   6.774   0.889  0.3972  0.5385 -1.9069
15955SOL    HW249108   4.657   6.855   0.938  0.0424 -0.6952  1.0792
15956SOL     OW49109   3.350   2.565   0.909  0.9137  0.1272 -0.0148
15956SOL    HW149110   3.262   2.564   0.873  0.8272  4.6787 -0.2253
15956SOL    HW249111   3.406   2.595   0.837  2.1132  0.3806  0.9942
15957SOL     OW49112   6.197   0.558   2.761  0.3347 -0.5026  0.2265
15957SOL    HW149113   6.189   0.650   2.735  0.3181 -0.3904  0.6291
15957SOL    HW249114   6.232   0.515   2.684 -1.4599 -0.5045 -0.6289
15958SOL     OW49115   3.607   2.216   7.169 -0.0028 -0.1889 -0.5167
15958SOL    HW149116   3.650   2.289   7.124  0.4121  0.8534  1.5023
15958SOL    HW249117   3.536   2.190   7.111 -0.2235  1.8984 -1.2196
15959SOL     OW49118   5.765   0.211   0.171  0.6534  0.6642 -0.7213
15959SOL    HW149119   5.779   0.235   0.263 -1.6773 -0.2574 -0.0726
15959SOL    HW249120   5.822   0.269   0.122  2.4193  0.7432  1.3515
15960SOL     OW49121   2.584   7.121   3.871  0.1191 -0.0144  0.5301
15960SOL    HW149122   2.571   7.203   3.824  0.1615 -1.2376 -1.7038
15960SOL    HW249123   2.514   7.119   3.936 -1.4586  0.6071 -1.1201
15961SOL     OW49124   5.351   5.608   7.876  0.1412  0.3371 -0.0758
15961SOL    HW149125   5.417   5.577   7.814 -0.0646  0.5968 -0.4266
15961SOL    HW249126   5.275   5.628   7.822 -0.1779  0.1665  0.3138
15962SOL     OW49127   5.158   0.430   7.614 -0.5596 -0.5609  0.1060
15962SOL    HW149128   5.114   0.369   7.673  0.9027 -1.3304  0.4025
15962SOL    HW249129   5.185   0.502   7.671  1.2128 -1.4930  0.4714
15963SOL     OW49130   3.166   3.341   0.909  0.3181  0.0282  0.2167
15963SOL    HW149131   3.194   3.358   0.819  0.5100  1.7490  0.5923
15963SOL    HW249132   3.151   3.246   0.912  0.0014  0.0101 -1.7003
15964SOL     OW49133   3.858   6.096   3.574  0.4853 -0.1903 -0.8396
15964SOL    HW149134   3.871   6.022   3.632 -0.4948 -0.3496 -0.8115
15964SOL    HW249135   3.946   6.122   3.548  0.8588 -1.0362 -0.4414
15965SOL     OW49136   7.829   2.344   6.141 -0.4256 -0.2556 -1.0425
15965SOL    HW149137   7.888   2.282   6.183 -0.9592 -0.6377 -0.8609
15965SOL    HW249138   7.881   2.425   6.135  0.1068 -0.5777 -0.8599
15966SOL     OW49139   4.057   3.961   0.145 -0.2056 -0.3685 -0.3635
15966SOL    HW149140   4.132   3.902   0.152 -0.9184 -1.4539 -1.5619
15966SOL    HW249141   4.085   4.029   0.084  0.6423  0.6076  1.0731
15967SOL     OW49142   5.897   5.852   5.652  0.3520 -0.5323  0.3381
15967SOL    HW149143   5.844   5.870   5.574 -1.2640  0.6310  1.6990
15967SOL    HW249144   5.929   5.762   5.638 -0.2906 -0.5175 -1.4369
15968SOL     OW49145   0.552   7.383   4.817  0.0204 -0.2026  0.8747
15968SOL    HW149146   0.500   7.305   4.838 -0.3223 -0.0559  0.5714
15968SOL    HW249147   0.494   7.437   4.764  0.7021 -0.3250 -0.0042
15969SOL     OW49148   5.502   4.499   6.979  0.5133  0.6571 -0.1326
15969SOL    HW149149   5.487   4.473   7.070  0.7488  1.9465  0.2862
15969SOL    HW249150   5.590   4.469   6.959  0.3649  0.1464 -0.0107
15970SOL     OW49151   3.018   0.722   5.687 -0.6110  0.8935  0.0243
15970SOL    HW149152   2.966   0.653   5.727  1.2936 -1.3819 -1.3217
15970SOL    HW249153   3.073   0.755   5.758  0.6689 -1.0979 -0.0311
15971SOL     OW49154   0.064   2.334   1.013  0.2741  0.2206  0.4334
15971SOL    HW149155  -0.025   2.351   1.043 -0.0355 -1.7946  0.7183
15971SOL    HW249156   0.084   2.246   1.045  1.4152 -0.4019 -1.8575
15972SOL     OW49157   1.168   0.939   3.282  0.1389 -0.2902 -0.2161
15972SOL    HW149158   1.260   0.962   3.277  0.0963 -0.3473 -1.2615
15972SOL    HW249159   1.167   0.843   3.281 -0.0153 -0.2838 -1.8675
15973SOL     OW49160   8.231   5.174   3.285  0.3439  0.4881 -0.1705
15973SOL    HW149161   8.244   5.095   3.337  0.8544 -0.4292 -1.6607
15973SOL    HW249162   8.314   5.221   3.293  0.1798  0.6838  0.3943
15974SOL     OW49163   7.105   7.880   4.035 -0.0957  0.1915  0.4083
15974SOL    HW149164   7.154   7.846   4.110 -0.7038  0.5469  0.9707
15974SOL    HW249165   7.080   7.802   3.985 -0.8180 -0.1394  1.2821
15975SOL     OW49166   7.623   2.216   3.002 -0.6914  0.4349 -0.5238
15975SOL    HW149167   7.638   2.153   2.931 -1.0519 -0.0293 -0.1885
15975SOL    HW249168   7.710   2.255   3.019 -0.3887 -0.2817 -0.4333
15976SOL     OW49169   2.261   7.790   3.100  0.4174  0.1289 -0.0613
15976SOL    HW149170   2.255   7.774   3.195  0.6930 -0.8193 -0.2004
15976SOL    HW249171   2.354   7.775   3.080  0.9592  3.1235  0.0188
15977SOL     OW49172   6.054   3.599   6.031  0.4208 -0.5341 -0.2818
15977SOL    HW149173   5.959   3.609   6.039  0.5308 -0.0832  0.4749
15977SOL    HW249174   6.087   3.689   6.027  0.5914 -0.6690 -3.4690
15978SOL     OW49175   5.809   1.044   0.346  0.0499  0.1682  0.0820
15978SOL    HW149176   5.895   1.038   0.387  0.6708  0.3268 -1.1614
15978SOL    HW249177   5.770   1.123   0.383 -0.2261 -0.7541  1.8454
15979SOL     OW49178   5.776   7.266   2.200  0.1482  1.0572  0.2595
15979SOL    HW149179   5.766   7.178   2.236  0.7978  0.8519 -0.0484
15979SOL    HW249180   5.723   7.266   2.121 -0.6662  1.2688  0.7893
15980SOL     OW49181   3.757   4.233   0.414 -0.0669 -0.0635  0.8203
15980SOL    HW149182   3.851   4.246   0.419 -0.1128  1.0071 -0.6636
15980SOL    HW249183   3.720   4.320   0.399 -1.0388 -0.7964 -1.3466
15981SOL     OW49184   4.455   0.542   0.880  0.2015  0.4550 -0.2509
15981SOL    HW149185   4.535   0.592   0.889 -0.6057  1.4583  1.6720
15981SOL    HW249186   4.480   0.452   0.902  0.6856  0.8538  0.8364
15982SOL     OW49187   0.901   7.761   0.515 -0.2111  0.1577 -0.0543
15982SOL    HW149188   0.882   7.719   0.431 -0.8911  0.4575 -0.0538
15982SOL    HW249189   0.870   7.851   0.505 -0.1127  0.2500  0.4504
15983SOL     OW49190   4.350   6.887   0.291  0.0443  0.0457 -0.1102
15983SOL    HW149191   4.267   6.915   0.251  0.1492  0.8755  0.2355
15983SOL    HW249192   4.412   6.957   0.269  0.0392  0.6500  1.7127
15984SOL     OW49193   5.667   0.865   5.883  0.1709  0.1160  0.2447
15984SOL    HW149194   5.751   0.896   5.918  0.5925 -0.9757  0.2457
15984SOL    HW249195   5.692   0.795   5.823 -0.7137  0.1992 -0.2191
15985SOL     OW49196   5.935   0.375   1.245 -0.4407  0.5693 -0.1110
15985SOL    HW149197   5.971   0.455   1.207 -0.8886  1.0920  0.5667
15985SOL    HW249198   5.991   0.358   1.321 -0.0214 -0.0569 -0.5499
15986SOL     OW49199   6.489   5.287   1.522 -0.1371 -0.1534  0.4856
15986SOL    HW149200   6.553   5.236   1.473 -0.5801 -1.0372  0.8303
15986SOL    HW249201   6.531   5.372   1.535  1.0534 -0.7960  0.9048
15987SOL     OW49202   7.428   1.275   7.477  0.8438 -0.6351  0.3133
15987SOL    HW149203   7.495   1.329   7.435  0.8265  0.1532  1.2840
15987SOL    HW249204   7.398   1.327   7.551  0.6287 -1.8665  1.1092
15988SOL     OW49205   6.351   1.295   7.464 -0.2541 -0.7714 -0.4632
15988SOL    HW149206   6.344   1.201   7.482 -0.3309 -0.4531  1.1959
15988SOL    HW249207   6.285   1.335   7.521  0.4687  0.3846 -0.4385
15989SOL     OW49208   7.331   0.793   7.179 -0.0160  0.5402 -0.5628
15989SOL    HW149209   7.413   0.788   7.228 -0.3221 -0.7999 -0.1775
15989SOL    HW249210   7.289   0.873   7.212  0.9302  1.0039 -0.4588
15990SOL     OW49211   6.082   3.422   0.281 -0.0241  0.3746  0.2445
15990SOL    HW149212   6.009   3.481   0.264 -1.9781 -2.1820 -0.4430
15990SOL    HW249213   6.060   3.381   0.365  0.6175 -0.3957  0.0405
15991SOL     OW49214   1.579   1.486   3.248  0.1527 -0.0087 -0.7971
15991SOL    HW149215   1.548   1.576   3.251  0.0847 -0.0603  2.2769
15991SOL    HW249216   1.505   1.433   3.279  0.8728 -0.8704 -0.4937
15992SOL     OW49217   4.031   1.375   8.222  0.0558 -0.4137 -0.2934
15992SOL    HW149218   4.004   1.303   8.280 -3.3716  0.9624 -0.0652
15992SOL    HW249219   4.029   1.452   8.278  3.9545 -0.1005 -0.4856
15993SOL     OW49220   5.223   6.813   4.789  0.0990 -0.5881 -0.2077
15993SOL    HW149221   5.152   6.796   4.850  0.0727  0.0778 -0.0466
15993SOL    HW249222   5.261   6.727   4.771 -0.1807 -0.8408  0.3968
15994SOL     OW49223   2.782   3.620   4.544 -0.5482  0.3184  0.3109
15994SOL    HW149224   2.846   3.553   4.520 -1.2282 -0.0055 -0.6064
15994SOL    HW249225   2.775   3.612   4.639 -0.0262 -0.3697  0.3006
15995SOL     OW49226   3.341   5.443   4.654  0.1153 -0.0008  0.3910
15995SOL    HW149227   3.414   5.417   4.599 -0.3284 -0.5752  0.0664
15995SOL    HW249228   3.263   5.425   4.601 -0.2963 -0.1219  1.0280
15996SOL     OW49229   4.700   2.914   2.019  1.0038  0.1577 -0.1909
15996SOL    HW149230   4.773   2.889   1.961  1.8846 -0.1902  1.0473
15996SOL    HW249231   4.624   2.918   1.961  1.1691 -3.5812 -0.8195
15997SOL     OW49232   0.680   6.759   0.084 -0.5367 -0.0727  0.0023
15997SOL    HW149233   0.717   6.712   0.159  1.5560  1.4621 -0.0053
15997SOL    HW249234   0.752   6.765   0.022 -1.0426  2.1964 -0.4235
15998SOL     OW49235   3.082   2.446   0.714  0.2002 -0.1994 -0.0987
15998SOL    HW149236   3.007   2.416   0.765 -0.2055 -2.2261 -1.7891
15998SOL    HW249237   3.144   2.373   0.718  0.4670 -0.1014 -1.8268
15999SOL     OW49238   1.065   6.076   2.254 -0.0090  0.1505 -0.2538
15999SOL    HW149239   1.100   5.991   2.280  1.8708  1.0962  0.4055
15999SOL    HW249240   1.118   6.102   2.178  0.2007  1.2589  0.2606
16000SOL     OW49241   1.720   0.340   3.670 -0.5191 -0.5904 -0.4783
16000SOL    HW149242   1.678   0.424   3.651 -1.3494 -0.8497  0.1918
16000SOL    HW249243   1.808   0.365   3.701 -1.6977  0.2069  2.3992
16001SOL     OW49244   8.212   8.163   2.869  0.1415 -0.2072 -0.5470
16001SOL    HW149245   8.259   8.211   2.937 -0.4905 -1.5069  0.8569
16001SOL    HW249246   8.197   8.227   2.799  0.2031  1.3526  0.8432
16002SOL     OW49247   5.308   6.811   7.456 -0.1580  0.1308  0.2822
16002SOL    HW149248   5.225   6.842   7.491 -0.3016 -0.4471  0.4560
16002SOL    HW249249   5.293   6.799   7.363 -0.2630  0.0485  0.3100
16003SOL     OW49250   7.870   7.316   7.368  0.2053 -0.8580 -0.8567
16003SOL    HW149251   7.899   7.378   7.436  1.9662 -2.8766  0.3266
16003SOL    HW249252   7.911   7.347   7.288  3.0304 -1.7589  0.1778
16004SOL     OW49253   5.535   0.931   5.241 -1.0161 -0.3494 -0.3107
16004SOL    HW149254   5.522   0.954   5.332 -1.3574 -0.8825 -0.2205
16004SOL    HW249255   5.557   0.837   5.243  1.5565  0.1972 -0.5612
16005SOL     OW49256   8.102   0.969   3.334 -0.5030 -0.1078  0.0655
16005SOL    HW149257   8.185   0.929   3.360  0.1450 -0.2395 -2.0602
16005SOL    HW249258   8.104   1.057   3.371  1.1049  0.2822 -0.9385
16006SOL     OW49259   2.384   3.957   2.039 -0.6023  0.5845 -0.2496
16006SOL    HW149260   2.381   3.863   2.058  2.6632  0.4797  0.0218
16006SOL    HW249261   2.343   3.998   2.114  1.5991 -0.4483  1.5738
16007SOL     OW49262   7.495   6.494   4.156  0.4973 -0.6360 -0.1141
16007SOL    HW149263   7.447   6.480   4.075 -1.2776  0.4427  0.7370
16007SOL    HW249264   7.460   6.430   4.217  1.5831 -1.2077 -0.0641
16008SOL     OW49265   0.334   6.249   7.647 -0.3340  0.5783  0.3512
16008SOL    HW149266   0.240   6.231   7.644  0.0964 -1.4628 -1.2520
16008SOL    HW249267   0.364   6.204   7.726 -0.4209 -0.0187  0.0381
16009SOL     OW49268   1.534   3.291   7.208 -0.2125 -0.0579  0.3954
16009SOL    HW149269   1.553   3.317   7.118  0.0591 -0.6229  0.2929
16009SOL    HW249270   1.607   3.236   7.234  0.7990  1.8264  1.6863
16010SOL     OW49271   0.190   7.419   0.810  0.1795 -0.4281 -0.2024
16010SOL    HW149272   0.216   7.511   0.820 -1.3744  0.1651 -1.2704
16010SOL    HW249273   0.183   7.407   0.715 -0.3275 -1.4334 -0.0454
16011SOL     OW49274   7.224   7.590   0.896 -0.6272 -0.1104 -0.4030
16011SOL    HW149275   7.221   7.556   0.986  0.1978  1.3875  0.2066
16011SOL    HW249276   7.133   7.592   0.868 -0.8416 -1.1241  0.1883
16012SOL     OW49277   4.797   7.187   2.918 -0.3611  0.7423  0.3777
16012SOL    HW149278   4.707   7.200   2.950 -0.3089 -0.7369  1.1677
16012SOL    HW249279   4.852   7.202   2.994 -0.0851 -0.5016  0.4349
16013SOL     OW49280   0.917   1.631   7.269  0.2551 -0.1288  0.2608
16013SOL    HW149281   0.941   1.723   7.268  0.3133 -0.1225  1.4409
16013SOL    HW249282   0.923   1.603   7.177 -0.9769  1.3442 -0.2796
16014SOL     OW49283   2.122   3.811   6.420  0.0453 -0.3539  0.2535
16014SOL    HW149284   2.095   3.790   6.509 -0.7756 -0.1052  0.0750
16014SOL    HW249285   2.082   3.897   6.403  1.9300  0.5943  0.3893
16015SOL     OW49286   5.511   7.137   5.167 -0.0092 -0.0151 -0.3952
16015SOL    HW149287   5.577   7.206   5.175 -1.6534  1.4801  0.6809
16015SOL    HW249288   5.507   7.098   5.254  1.3399 -1.9148 -1.1524
16016SOL     OW49289   5.218   1.996   5.770  0.0206 -0.2634 -0.1364
16016SOL    HW149290   5.254   1.948   5.696 -2.0752 -0.6171 -0.9620
16016SOL    HW249291   5.294   2.020   5.823  1.3632 -1.6964 -1.3846
16017SOL     OW49292   5.712   0.681   3.588 -0.3169  0.2606  0.1704
16017SOL    HW149293   5.773   0.678   3.661 -0.8907 -1.4961  0.6079
16017SOL    HW249294   5.741   0.754   3.534  1.2623  0.3626  1.1533
16018SOL     OW49295   8.165   1.705   1.274 -0.9500 -0.5785  0.3050
16018SOL    HW149296   8.100   1.718   1.205  0.5508  0.1747 -1.0060
16018SOL    HW249297   8.231   1.648   1.234  0.1966  0.2899  0.9372
16019SOL     OW49298   0.951   1.657   4.468  1.0631 -0.1645  0.3476
16019SOL    HW149299   1.034   1.611   4.465  1.1212 -0.0039 -0.4920
16019SOL    HW249300   0.951   1.714   4.391  0.1382 -0.2314  0.2841
16020SOL     OW49301   3.526   3.516   1.701  0.3765  0.1637  0.1434
16020SOL    HW149302   3.483   3.592   1.660  2.3883  0.3331 -1.7410
16020SOL    HW249303   3.455   3.470   1.745 -1.1673  2.2525 -0.0562
16021SOL     OW49304   4.289   6.140   6.634  0.2276 -0.1244  0.6112
16021SOL    HW149305   4.216   6.120   6.693 -2.6962  1.4501 -2.3325
16021SOL    HW249306   4.253   6.124   6.547  2.4836  3.4963 -1.0447
16022SOL     OW49307   8.110   4.134   2.883  0.2844 -0.0815  0.1851
16022SOL    HW149308   8.061   4.065   2.928  0.4718  0.0144  0.5340
16022SOL    HW249309   8.200   4.104   2.882  0.4658  0.4359  0.8749
16023SOL     OW49310   5.073   3.270   0.509 -0.5750 -0.4762  0.2886
16023SOL    HW149311   5.086   3.220   0.428 -0.4271 -0.9606  0.6136
16023SOL    HW249312   5.121   3.352   0.494 -0.3330 -0.6714 -0.0176
16024SOL     OW49313   1.409   0.635   1.783  0.4802  0.3008  0.0038
16024SOL    HW149314   1.340   0.692   1.816  0.9938  0.6757  0.4319
16024SOL    HW249315   1.474   0.694   1.745  0.6109 -0.0438 -0.3134
16025SOL     OW49316   2.438   5.992   5.005 -0.3163 -0.0292 -0.3595
16025SOL    HW149317   2.489   6.072   5.021 -0.3282  0.0017 -0.4708
16025SOL    HW249318   2.419   5.958   5.092 -2.4297  1.4408 -0.1956
16026SOL     OW49319   7.773   2.113   7.681 -0.4501 -0.1440  0.4450
16026SOL    HW149320   7.719   2.037   7.702 -3.1286  2.2702  2.6771
16026SOL    HW249321   7.852   2.101   7.733  0.5195 -2.8827 -1.5596
16027SOL     OW49322   4.024   6.588   4.479 -0.1961  0.6499 -0.1179
16027SOL    HW149323   4.081   6.613   4.406  0.6154  0.2175  0.3509
16027SOL    HW249324   4.079   6.602   4.557  0.3511 -2.6739  0.1682
16028SOL     OW49325   4.801   6.623   0.396 -0.3247 -0.2858  0.0909
16028SOL    HW149326   4.800   6.533   0.430 -0.1451 -0.2605  0.1628
16028SOL    HW249327   4.709   6.643   0.379 -0.3944 -0.3754  0.3578
16029SOL     OW49328   3.337   7.144   7.134 -0.1713 -0.1894 -0.5294
16029SOL    HW149329   3.394   7.099   7.195 -1.8291 -0.1935  1.0416
16029SOL    HW249330   3.289   7.074   7.089  1.0724 -0.1882 -1.8738
16030SOL     OW49331   4.764   1.748   5.855  0.7326 -0.1103  0.4166
16030SOL    HW149332   4.765   1.844   5.847  0.7411 -0.1400  0.0367
16030SOL    HW249333   4.675   1.727   5.882  0.9500  0.0631  1.3030
16031SOL     OW49334   6.520   4.781   1.149  0.1953 -0.1477  0.0205
16031SOL    HW149335   6.433   4.758   1.182  0.3290  0.4030  0.7793
16031SOL    HW249336   6.537   4.718   1.079 -0.4384 -0.8265  0.4683
16032SOL     OW49337   1.188   1.711   4.899 -0.2814  0.0600  0.2453
16032SOL    HW149338   1.221   1.706   4.989  1.8499 -1.3069 -0.5925
16032SOL    HW249339   1.183   1.620   4.870 -4.2220  0.2202  0.0858
16033SOL     OW49340   4.209   8.131   1.530 -0.2050 -0.1360 -0.0794
16033SOL    HW149341   4.270   8.193   1.489  1.0506  0.1109  2.0932
16033SOL    HW249342   4.142   8.117   1.464  1.4424  0.7164 -1.9864
16034SOL     OW49343   3.963   7.397   3.660  0.1501  0.3388  0.0000
16034SOL    HW149344   4.031   7.334   3.683 -2.1854 -2.0435  0.5523
16034SOL    HW249345   3.931   7.430   3.744 -0.4973  0.2362 -0.2055
16035SOL     OW49346   2.317   7.446   3.716  0.1513  0.1159  0.2145
16035SOL    HW149347   2.256   7.373   3.729  0.6535 -1.1664 -3.9481
16035SOL    HW249348   2.261   7.521   3.696 -0.2029 -0.1748  0.1141
16036SOL     OW49349   3.596   0.106   4.458  0.4093  0.1633  0.4998
16036SOL    HW149350   3.666   0.171   4.457 -0.9702  1.7101 -0.4416
16036SOL    HW249351   3.546   0.124   4.378 -1.6431 -0.2024  1.6468
16037SOL     OW49352   7.025   4.233   1.726 -0.7665  0.4270  0.0321
16037SOL    HW149353   6.997   4.320   1.753 -2.5414  0.6966 -2.5501
16037SOL    HW249354   7.120   4.241   1.713 -0.8102  1.7633  0.5008
16038SOL     OW49355   4.513   8.289   1.951  0.5929 -0.8760  0.5806
16038SOL    HW149356   4.452   8.307   2.023 -0.2984 -0.3063 -0.2998
16038SOL    HW249357   4.495   8.199   1.925 -1.7467  0.0937 -1.3980
16039SOL     OW49358   3.985   5.800   1.750 -0.1256 -0.4762  0.0223
16039SOL    HW149359   4.026   5.838   1.827 -1.0206  0.7310 -0.0688
16039SOL    HW249360   3.891   5.806   1.768 -0.3539  0.1767 -1.3172
16040SOL     OW49361   0.166   6.202   1.595 -0.3847  0.2423  0.0348
16040SOL    HW149362   0.180   6.108   1.583 -1.3690 -0.0628  1.1009
16040SOL    HW249363   0.249   6.242   1.571 -0.3805 -0.7830 -1.7432
16041SOL     OW49364   4.655   3.479   4.043  0.2828 -0.2501 -0.3130
16041SOL    HW149365   4.633   3.387   4.027 -2.5232  0.0307  1.5913
16041SOL    HW249366   4.603   3.527   3.979  2.4381  0.0329 -1.9270
16042SOL     OW49367   7.240   1.820   5.963 -0.2672  0.1906  0.4473
16042SOL    HW149368   7.325   1.777   5.965  1.1790  2.9871  2.0008
16042SOL    HW249369   7.200   1.800   6.048 -0.6853 -0.1466  0.1780
16043SOL     OW49370   6.791   0.201   4.430  0.1578  0.5686  0.0922
16043SOL    HW149371   6.884   0.218   4.447  0.1182  0.7923  0.0763
16043SOL    HW249372   6.771   0.253   4.352  0.1501  0.1229 -0.2098
16044SOL     OW49373   2.586   6.894   4.954 -0.6472  0.2648 -0.0410
16044SOL    HW149374   2.678   6.921   4.947 -0.1068 -0.9165  2.0794
16044SOL    HW249375   2.541   6.944   4.886  1.5920  0.7412 -1.2098
16045SOL     OW49376   6.196   6.342   8.228 -0.5154  0.6272 -0.3030
16045SOL    HW149377   6.149   6.283   8.168 -1.1590  1.0378 -0.2135
16045SOL    HW249378   6.167   6.316   8.315  0.2680  0.1628 -0.1756
16046SOL     OW49379   3.958   3.774   5.882  0.7130 -0.9000  0.0613
16046SOL    HW149380   4.011   3.820   5.948  0.1442  0.5251 -0.4800
16046SOL    HW249381   4.021   3.751   5.814  0.7756  0.1768 -0.2532
16047SOL     OW49382   6.712   5.480   7.348  0.2098  0.1312 -0.2160
16047SOL    HW149383   6.719   5.460   7.442 -1.9773 -1.0158 -0.2705
16047SOL    HW249384   6.629   5.527   7.340 -1.0164 -2.2778 -1.9696
16048SOL     OW49385   2.118   5.960   6.472 -0.2640 -0.9510 -0.4743
16048SOL    HW149386   2.070   6.040   6.452 -0.5360 -0.9524  0.1791
16048SOL    HW249387   2.134   5.920   6.386  0.3503  0.0682 -0.8472
16049SOL     OW49388   2.744   3.040   3.090  0.4229 -0.3839  0.4886
16049SOL    HW149389   2.807   2.974   3.059  1.9875  0.7620  1.1723
16049SOL    HW249390   2.706   3.075   3.009  0.5299 -1.2186  0.0681
16050SOL     OW49391   0.989   6.857   4.710  0.2979  0.5529 -0.5266
16050SOL    HW149392   0.900   6.842   4.741  1.5921 -1.2590  2.5859
16050SOL    HW249393   0.999   6.799   4.635 -1.1822  0.9476 -1.0463
16051SOL     OW49394   1.481   0.940   2.110 -0.4987 -0.5011 -0.1975
16051SOL    HW149395   1.447   0.854   2.138  0.2821 -0.5664  0.5650
16051SOL    HW249396   1.417   1.003   2.142 -0.5451 -0.7225  0.1447
16052SOL     OW49397   2.726   1.920   6.534  0.4067  0.0773  0.3379
16052SOL    HW149398   2.795   1.922   6.467 -0.0747 -0.5988 -0.1832
16052SOL    HW249399   2.648   1.889   6.488 -0.2425  0.7670  0.9352
16053SOL     OW49400   2.367   5.893   6.224 -0.0668  0.0505  0.1570
16053SOL    HW149401   2.403   5.955   6.160  1.7143 -0.5901  0.5286
16053SOL    HW249402   2.272   5.905   6.217  0.2021  1.9171 -0.6812
16054SOL     OW49403   2.337   3.142   6.867  0.3375 -0.5589  0.1150
16054SOL    HW149404   2.317   3.194   6.944 -1.1192  1.6650 -1.7029
16054SOL    HW249405   2.372   3.205   6.804 -1.1295 -1.8099 -2.0100
16055SOL     OW49406   5.495   4.340   5.344  0.1129 -0.4231  0.3930
16055SOL    HW149407   5.534   4.372   5.263  0.0274  1.0531  0.9210
16055SOL    HW249408   5.403   4.368   5.339  0.5027  1.1713  1.7509
16056SOL     OW49409   0.713   6.735   1.944  0.1954 -0.7131  0.6012
16056SOL    HW149410   0.776   6.790   1.897  0.1433 -1.1149  0.0595
16056SOL    HW249411   0.708   6.773   2.032  0.0703  0.2180  0.1901
16057SOL     OW49412   1.892   0.100   6.952  0.4467  0.0860 -0.1199
16057SOL    HW149413   1.913   0.033   7.017 -0.2695 -0.0635 -0.0366
16057SOL    HW249414   1.977   0.130   6.920  0.7915 -0.1511  0.5663
16058SOL     OW49415   1.784   2.246   1.689  0.1381 -0.0446 -0.2734
16058SOL    HW149416   1.743   2.213   1.609  1.3268 -2.0576 -0.0840
16058SOL    HW249417   1.847   2.311   1.659 -2.5332  2.4943 -0.6212
16059SOL     OW49418   5.152   2.455   0.209 -0.3875 -0.0175 -0.6321
16059SOL    HW149419   5.096   2.448   0.131  0.3164  0.4558 -1.1799
16059SOL    HW249420   5.115   2.390   0.270 -0.8628 -0.4870 -1.4013
16060SOL     OW49421   2.025   7.502   3.957  0.2703 -0.1739 -0.0944
16060SOL    HW149422   2.103   7.470   4.001 -0.3757 -2.0615 -0.2638
16060SOL    HW249423   1.956   7.442   3.985 -0.9598  0.9915 -0.5695
16061SOL     OW49424   2.715   4.516   4.765 -0.1961  0.2250 -0.7439
16061SOL    HW149425   2.658   4.447   4.797 -0.1323  0.9437  0.9707
16061SOL    HW249426   2.794   4.471   4.737  0.0019 -0.3639  0.7341
16062SOL     OW49427   7.264   3.088   5.100  0.6834 -0.2023  0.2141
16062SOL    HW149428   7.280   3.180   5.076 -1.4927 -0.0827 -0.8539
16062SOL    HW249429   7.203   3.056   5.033  0.9415 -2.2613  0.9419
16063SOL     OW49430   0.623   1.763   5.794  0.5866  0.2929  0.0311
16063SOL    HW149431   0.573   1.835   5.831 -2.2298 -1.0575 -0.9155
16063SOL    HW249432   0.665   1.721   5.869  0.3059  1.4641  0.8591
16064SOL     OW49433   6.842   6.964   4.925  0.1156 -0.6547  0.1981
16064SOL    HW149434   6.820   7.056   4.915 -2.7416 -1.3652 -0.5746
16064SOL    HW249435   6.926   6.954   4.881  0.4505  1.5794  0.3035
16065SOL     OW49436   0.943   0.465   5.617 -0.3509  0.3069  0.1408
16065SOL    HW149437   0.862   0.416   5.606 -0.4877 -0.0269  2.3653
16065SOL    HW249438   0.934   0.508   5.703  1.4653  0.9080  0.0527
16066SOL     OW49439   2.445   2.183   3.066 -0.6776  0.0107  0.2104
16066SOL    HW149440   2.404   2.117   3.122 -1.2091  0.5764  0.4920
16066SOL    HW249441   2.374   2.213   3.009 -0.1160 -0.6523 -0.8727
16067SOL     OW49442   1.460   3.094   6.805 -0.4062  0.3279  0.2013
16067SOL    HW149443   1.478   3.098   6.711 -3.5852  0.9249 -0.4624
16067SOL    HW249444   1.474   3.002   6.828  0.3470  0.1588 -0.8554
16068SOL     OW49445   6.395   2.039   4.821  0.0632  0.5704 -0.2093
16068SOL    HW149446   6.372   1.970   4.883  1.1678  0.6469  0.2895
16068SOL    HW249447   6.314   2.089   4.810 -0.3104  0.1701  0.6797
16069SOL     OW49448   5.573   1.367   3.751 -0.4423 -0.2248  0.0975
16069SOL    HW149449   5.616   1.417   3.682 -0.6829  0.4834  0.4557
16069SOL    HW249450   5.620   1.391   3.831 -2.3688  1.6382  0.7233
16070SOL     OW49451   6.920   2.980   3.053  0.1329 -0.0095 -0.2335
16070SOL    HW149452   6.980   3.050   3.081  0.5481 -1.1099  1.7327
16070SOL    HW249453   6.838   3.001   3.097 -0.1416 -0.0150 -0.7426
16071SOL     OW49454   2.544   1.180   4.458 -0.2245  0.0973  0.1005
16071SOL    HW149455   2.599   1.160   4.533 -0.8390  0.5759  0.6832
16071SOL    HW249456   2.539   1.097   4.409 -0.5820 -0.4606  1.0771
16072SOL     OW49457   5.261   5.387   6.302 -0.3566 -0.9864 -0.1760
16072SOL    HW149458   5.190   5.375   6.239 -1.6022 -1.2258  1.2367
16072SOL    HW249459   5.297   5.474   6.281 -1.8947 -0.3137 -0.1001
16073SOL     OW49460   4.158   7.466   7.301 -0.9886  0.1332  0.1370
16073SOL    HW149461   4.212   7.479   7.223  0.1327  1.1584  1.0500
16073SOL    HW249462   4.085   7.412   7.272  0.8209 -1.7414 -1.0006
16074SOL     OW49463   6.854   3.807   3.465 -0.3097  0.4077  0.1058
16074SOL    HW149464   6.938   3.851   3.476 -0.1553 -0.2518  1.9242
16074SOL    HW249465   6.868   3.720   3.503 -2.1765  0.7544  1.6944
16075SOL     OW49466   5.115   7.066   1.256 -0.1829 -0.7238 -0.5383
16075SOL    HW149467   5.135   7.002   1.188  1.3046 -0.7190 -0.1165
16075SOL    HW249468   5.195   7.118   1.265 -0.1025 -1.1957  1.7242
16076SOL     OW49469   5.211   3.472   1.041 -0.2199 -0.1042 -0.1163
16076SOL    HW149470   5.290   3.466   0.987 -0.2391  0.3862 -0.2025
16076SOL    HW249471   5.238   3.525   1.116 -0.0812 -1.1292  0.5705
16077SOL     OW49472   4.035   2.711   7.278  0.1842  0.6935 -0.0104
16077SOL    HW149473   3.998   2.666   7.202  2.2711 -0.8022 -0.1841
16077SOL    HW249474   3.988   2.794   7.282 -1.3726 -0.0759 -1.7182
16078SOL     OW49475   7.207   2.904   3.240 -0.1471 -0.7531  0.0400
16078SOL    HW149476   7.247   2.965   3.178 -0.7311 -0.5102 -0.1105
16078SOL    HW249477   7.268   2.899   3.313 -0.0039 -0.1388 -0.0365
16079SOL     OW49478   1.375   5.722   6.747 -0.0099 -0.0836 -0.0105
16079SOL    HW149479   1.470   5.724   6.740  0.0125 -1.3551 -0.1973
16079SOL    HW249480   1.354   5.630   6.762 -1.2084  0.1844 -0.0026
16080SOL     OW49481   4.320   2.783   2.263 -0.8285  0.8301  0.0255
16080SOL    HW149482   4.406   2.760   2.230 -1.9352  0.2849 -2.5622
16080SOL    HW249483   4.324   2.877   2.279  0.2811  0.7700  0.0920
16081SOL     OW49484   4.656   2.821   7.497  0.1516  0.3128  0.0824
16081SOL    HW149485   4.662   2.878   7.574  0.6923  0.4523 -0.0601
16081SOL    HW249486   4.589   2.757   7.520  0.6881  0.0349  0.8856
16082SOL     OW49487   6.094   5.188   3.170 -0.1547 -0.3399  0.1945
16082SOL    HW149488   6.154   5.260   3.150  0.7569 -1.3752 -0.8397
16082SOL    HW249489   6.063   5.159   3.084  1.6291 -2.9796  0.3872
16083SOL     OW49490   2.481   6.301   5.801 -0.2191 -0.7065  0.4167
16083SOL    HW149491   2.499   6.349   5.720 -0.2832 -0.2554  0.6739
16083SOL    HW249492   2.427   6.227   5.773  0.5188 -1.0681 -0.0940
16084SOL     OW49493   2.328   7.282   6.588 -0.0314 -0.0873  0.4004
16084SOL    HW149494   2.328   7.211   6.653 -1.5770 -0.5073 -0.0325
16084SOL    HW249495   2.334   7.237   6.504  0.0498  0.3613  0.1638
16085SOL     OW49496   7.515   2.223   2.256  0.1247  0.5045 -0.2889
16085SOL    HW149497   7.583   2.171   2.297 -0.7974  0.1298  0.7788
16085SOL    HW249498   7.452   2.159   2.222 -0.9326  0.8978  0.8954
16086SOL     OW49499   7.548   3.793   8.166  0.3874 -0.2346 -0.2837
16086SOL    HW149500   7.570   3.700   8.180 -2.4688 -0.9432 -0.2890
16086SOL    HW249501   7.565   3.835   8.250  1.5423 -0.7814 -0.2327
16087SOL     OW49502   2.931   4.551   5.040  0.1816 -0.0716  0.4950
16087SOL    HW149503   2.847   4.508   5.055 -1.0101  1.9030 -0.3605
16087SOL    HW249504   2.959   4.579   5.127  0.7936 -2.2258  1.0054
16088SOL     OW49505   0.051   2.009   8.144 -0.5641  0.0791 -0.1011
16088SOL    HW149506   0.119   1.976   8.203  0.9676  1.0339 -1.3163
16088SOL    HW249507   0.035   2.098   8.175  0.6745  0.7956 -1.4702
16089SOL     OW49508   4.669   6.896   6.349  0.5646 -0.6274 -0.5225
16089SOL    HW149509   4.749   6.900   6.402  0.6991  0.7073 -0.8068
16089SOL    HW249510   4.626   6.979   6.365 -0.9843 -1.4957 -0.0656
16090SOL     OW49511   3.921   7.026   1.604 -0.3703 -0.2901  0.0091
16090SOL    HW149512   3.959   6.956   1.550  1.4955 -0.2957  1.2819
16090SOL    HW249513   3.848   6.984   1.650 -0.1970 -1.0054 -0.3665
16091SOL     OW49514   1.273   1.343   6.737  0.1318  0.7800  0.2644
16091SOL    HW149515   1.314   1.268   6.694 -0.6900  0.6406 -0.3007
16091SOL    HW249516   1.262   1.316   6.828  0.7581  0.6023  0.2888
16092SOL     OW49517   7.555   3.045   5.699 -0.2675  0.3258 -0.1495
16092SOL    HW149518   7.581   2.955   5.677 -1.3318  0.0836 -0.4412
16092SOL    HW249519   7.500   3.035   5.777 -0.0833  0.7652  0.0383
16093SOL     OW49520   6.057   3.929   0.132 -0.2202  0.3853 -0.6603
16093SOL    HW149521   5.993   3.978   0.081 -1.9502 -0.5650  0.5393
16093SOL    HW249522   6.044   3.959   0.222  0.9069  0.0536 -0.3767
16094SOL     OW49523   5.850   6.620   1.907  0.4306 -0.4822  0.0605
16094SOL    HW149524   5.856   6.614   2.003  1.4360 -0.0931  0.0263
16094SOL    HW249525   5.770   6.670   1.892  0.8026  0.3394  0.7365
16095SOL     OW49526   4.247   7.450   1.188  0.8261 -0.0978 -0.4343
16095SOL    HW149527   4.225   7.356   1.184  1.2713 -0.2032 -0.4020
16095SOL    HW249528   4.202   7.481   1.267  1.1579 -0.4098 -0.1198
16096SOL     OW49529   3.785   2.659   5.485  0.1209 -0.1984 -0.3996
16096SOL    HW149530   3.745   2.689   5.403 -0.5270  0.8887  0.2944
16096SOL    HW249531   3.797   2.740   5.535  2.5824 -0.5949 -0.3179
16097SOL     OW49532   4.854   1.289   3.032 -0.0209 -0.3366 -0.3181
16097SOL    HW149533   4.791   1.259   2.966  0.6038 -0.8677 -0.6827
16097SOL    HW249534   4.871   1.380   3.010 -2.5045  0.5586  1.2391
16098SOL     OW49535   5.343   7.903   7.993 -0.7013 -0.2761  0.0296
16098SOL    HW149536   5.371   7.812   7.991  0.4318  0.0804 -0.8657
16098SOL    HW249537   5.258   7.902   8.039  0.5088 -1.4422  2.3242
16099SOL     OW49538   0.193   1.887   7.277 -0.1725 -0.0131  0.1221
16099SOL    HW149539   0.236   1.970   7.300 -0.2617 -0.3147  1.4446
16099SOL    HW249540   0.227   1.825   7.342 -0.6024 -0.8578 -0.4657
16100SOL     OW49541   3.558   0.246   0.343  0.0318 -0.5996 -0.2855
16100SOL    HW149542   3.638   0.274   0.387 -0.1491  1.4288 -1.1611
16100SOL    HW249543   3.579   0.251   0.250 -0.2960 -2.6209 -0.4823
16101SOL     OW49544   6.210   2.598   8.241 -0.2971 -0.0257  0.3049
16101SOL    HW149545   6.296   2.628   8.212  0.2275 -2.0392 -0.3146
16101SOL    HW249546   6.165   2.573   8.160 -1.3921  0.8543  0.6405
16102SOL     OW49547   0.688   1.548   3.565  0.0986 -0.4570  0.2854
16102SOL    HW149548   0.702   1.634   3.605 -0.5876 -0.4211  0.4560
16102SOL    HW249549   0.593   1.537   3.564  0.2029 -1.5157  0.9011
16103SOL     OW49550   7.664   5.207   3.645 -0.3901 -0.0771  0.0939
16103SOL    HW149551   7.603   5.152   3.695  0.1908  0.8038  1.7977
16103SOL    HW249552   7.720   5.247   3.712  0.0881  1.5051 -1.2395
16104SOL     OW49553   0.719   3.900   2.576  0.2630  0.0737 -0.2774
16104SOL    HW149554   0.701   3.927   2.666 -1.0353 -0.1078 -0.4709
16104SOL    HW249555   0.812   3.921   2.562  0.3102  0.6597  0.8972
16105SOL     OW49556   0.369   1.383   5.282 -0.1931 -0.1871  0.0618
16105SOL    HW149557   0.298   1.319   5.273 -0.2726 -0.2929  1.3244
16105SOL    HW249558   0.340   1.442   5.351 -0.0718  1.1757 -1.0425
16106SOL     OW49559   7.475   3.895   0.878  0.1727 -0.0359 -0.2812
16106SOL    HW149560   7.553   3.843   0.859  0.9620  1.4298 -1.1180
16106SOL    HW249561   7.480   3.913   0.972  0.1227 -1.0832 -0.0708
16107SOL     OW49562   1.084   1.104   1.093 -0.2523 -0.2619 -0.3732
16107SOL    HW149563   1.108   1.036   1.157  1.2346  1.1048  0.5602
16107SOL    HW249564   1.003   1.142   1.128  0.6520  0.6028  0.8259
16108SOL     OW49565   6.270   6.834   5.623  0.5346  0.1331  0.5940
16108SOL    HW149566   6.227   6.816   5.540 -0.2936  0.5431  0.9345
16108SOL    HW249567   6.226   6.778   5.686  1.0490 -0.0516  0.7950
16109SOL     OW49568   1.520   1.128   6.977 -0.4898  0.0723 -0.0434
16109SOL    HW149569   1.443   1.170   7.017 -1.4117 -0.6771 -1.0117
16109SOL    HW249570   1.593   1.187   6.998 -1.2523  0.5784  1.2474
16110SOL     OW49571   5.853   0.632   7.401 -0.1315  0.8010 -0.5232
16110SOL    HW149572   5.784   0.689   7.434  0.5204  2.4984 -2.0092
16110SOL    HW249573   5.812   0.581   7.331 -1.3813 -2.4413  2.4349
16111SOL     OW49574   1.847   7.114   0.573  0.2051 -0.2175  0.5032
16111SOL    HW149575   1.808   7.184   0.625 -0.1313 -0.1149  0.1188
16111SOL    HW249576   1.896   7.062   0.636  0.1189  0.1266  0.8592
16112SOL     OW49577   7.854   2.068   6.765 -0.0754 -0.3048 -0.0536
16112SOL    HW149578   7.776   2.110   6.729  0.4322  0.5380 -0.1860
16112SOL    HW249579   7.927   2.120   6.731  0.4089  0.6171  2.3224
16113SOL     OW49580   6.455   0.947   2.607  0.1583  0.3738 -0.2042
16113SOL    HW149581   6.401   0.946   2.527 -0.7661 -0.7444  0.4129
16113SOL    HW249582   6.429   1.026   2.653  1.1194  1.3461 -1.2725
16114SOL     OW49583   2.653   1.453   3.768 -0.1755  0.2673  0.0016
16114SOL    HW149584   2.639   1.462   3.674  2.6043 -1.8679 -0.7105
16114SOL    HW249585   2.676   1.361   3.780  2.7379  1.1888  2.2436
16115SOL     OW49586   5.658   6.813   2.870  0.2232 -0.1772 -0.1154
16115SOL    HW149587   5.594   6.860   2.817  1.0642  2.0101  0.7796
16115SOL    HW249588   5.743   6.838   2.834  0.7490  0.2534  1.3988
16116SOL     OW49589   0.486   5.662   5.599 -0.3540  1.0145 -0.0551
16116SOL    HW149590   0.391   5.670   5.607 -0.4209  0.0412  0.2013
16116SOL    HW249591   0.516   5.634   5.686  0.2986  2.4450  0.1922
16117SOL     OW49592   1.051   0.555   2.124  0.4386 -0.0469 -0.7371
16117SOL    HW149593   1.065   0.631   2.180 -1.2227 -0.6791  0.6034
16117SOL    HW249594   1.095   0.483   2.170  1.6533  0.0050 -1.7898
16118SOL     OW49595   0.963   5.163   2.033  0.0824  0.2381 -0.3923
16118SOL    HW149596   0.963   5.233   2.098  0.3783 -0.7507  0.6886
16118SOL    HW249597   0.872   5.136   2.026  0.2061 -0.4271  0.4705
16119SOL     OW49598   3.410   6.889   1.140 -0.1314  0.3075  0.3623
16119SOL    HW149599   3.428   6.892   1.046 -1.2718  1.4591  0.1678
16119SOL    HW249600   3.496   6.903   1.181  0.0157  2.1632 -0.5255
16120SOL     OW49601   3.084   4.333   4.528 -0.1817  0.6321 -0.3148
16120SOL    HW149602   3.017   4.316   4.462  0.9763  1.5133 -1.7827
16120SOL    HW249603   3.037   4.336   4.611 -1.8002  0.3093 -1.1946
16121SOL     OW49604   5.679   5.195   3.418  0.0257  0.3869  0.2223
16121SOL    HW149605   5.610   5.262   3.411 -0.3228 -0.0663 -0.7634
16121SOL    HW249606   5.632   5.112   3.415  0.6303  0.0702 -0.6354
16122SOL     OW49607   6.867   0.693   7.146 -0.4270 -0.4987 -0.1273
16122SOL    HW149608   6.909   0.635   7.209 -1.0432 -0.2599  0.5067
16122SOL    HW249609   6.778   0.659   7.138 -0.9623  0.6858  0.6614
16123SOL     OW49610   2.609   7.804   7.498  0.6392 -0.0026  0.1187
16123SOL    HW149611   2.579   7.833   7.584 -0.7676  0.9553 -0.6656
16123SOL    HW249612   2.543   7.739   7.470  1.0183 -0.2201 -0.2821
16124SOL     OW49613   1.723   2.781   3.138 -0.0436  0.0863 -0.0280
16124SOL    HW149614   1.795   2.828   3.097  0.4186 -1.2162 -0.7340
16124SOL    HW249615   1.656   2.775   3.069 -1.0631  1.7562  0.7816
16125SOL     OW49616   0.270   5.630   1.285 -0.3332 -0.4486 -0.5357
16125SOL    HW149617   0.224   5.714   1.289  1.4055  0.4704  1.6129
16125SOL    HW249618   0.353   5.652   1.243  1.0280 -0.5781  1.9482
16126SOL     OW49619   0.684   2.925   8.110  0.1523  0.3648 -0.0424
16126SOL    HW149620   0.599   2.941   8.070  0.9424  0.6170 -1.6658
16126SOL    HW249621   0.667   2.862   8.180 -1.2709 -0.0368 -0.7468
16127SOL     OW49622   7.277   5.317   2.201 -0.3217  0.0973  0.0278
16127SOL    HW149623   7.261   5.330   2.108 -2.1543 -0.3845  0.2579
16127SOL    HW249624   7.301   5.225   2.209 -0.9607 -0.0705  0.1102
16128SOL     OW49625   6.857   2.790   7.407 -0.1456  0.3299  0.0311
16128SOL    HW149626   6.940   2.751   7.379 -0.5858 -1.2259  0.8164
16128SOL    HW249627   6.875   2.822   7.495 -0.3164  0.1705  0.1238
16129SOL     OW49628   5.816   0.456   4.445  0.0197  0.0000  0.4581
16129SOL    HW149629   5.751   0.450   4.515 -0.2470  0.3886  0.2509
16129SOL    HW249630   5.863   0.538   4.462 -0.1350  0.1646  0.1173
16130SOL     OW49631   6.588   6.005   7.683 -0.4258 -0.1848  0.0060
16130SOL    HW149632   6.562   6.032   7.595 -0.5496 -4.0328 -1.2595
16130SOL    HW249633   6.684   6.000   7.679 -0.3759  0.5864  0.3661
16131SOL     OW49634   0.264   6.897   7.744 -0.6637 -0.1795  0.6083
16131SOL    HW149635   0.344   6.855   7.713 -1.1731 -0.2216 -0.7121
16131SOL    HW249636   0.213   6.911   7.664 -1.2449  1.3702  1.2481
16132SOL     OW49637   5.791   3.782   5.020 -0.0462  0.1673  0.3886
16132SOL    HW149638   5.712   3.729   5.028  0.0899  0.0028  0.6745
16132SOL    HW249639   5.839   3.765   5.101 -0.2790  1.1681  0.7484
16133SOL     OW49640   0.506   1.707   3.142 -0.3545  0.1347 -0.2231
16133SOL    HW149641   0.517   1.761   3.063 -1.2545  0.6208 -0.0205
16133SOL    HW249642   0.595   1.680   3.165  0.1398  1.6532 -0.2629
16134SOL     OW49643   0.752   5.135   6.928 -0.4939 -0.1643  0.7177
16134SOL    HW149644   0.715   5.054   6.961 -0.0429 -0.4148  0.6162
16134SOL    HW249645   0.693   5.204   6.960 -1.1760 -0.5735  0.3577
16135SOL     OW49646   7.096   4.097   3.681 -0.2989 -0.3286 -0.4169
16135SOL    HW149647   7.003   4.091   3.703 -0.0877 -1.5803  0.1686
16135SOL    HW249648   7.102   4.054   3.595 -0.1067 -1.1832  0.0163
16136SOL     OW49649   1.606   5.445   5.291  0.7627 -0.5962 -0.1614
16136SOL    HW149650   1.690   5.420   5.252  0.8566 -1.3281  0.4958
16136SOL    HW249651   1.545   5.444   5.218  1.0540 -1.4173 -0.4005
16137SOL     OW49652   1.484   2.378   6.479  0.0685 -0.2273 -0.0019
16137SOL    HW149653   1.479   2.296   6.429  2.6628 -0.5197  0.1630
16137SOL    HW249654   1.495   2.350   6.570 -4.0798  0.3133  0.7879
16138SOL     OW49655   8.073   8.252   7.259 -0.4841 -0.2238 -0.1018
16138SOL    HW149656   8.153   8.295   7.288  0.3608 -1.5837 -0.3788
16138SOL    HW249657   8.021   8.322   7.219  0.5669  0.6583  0.0591
16139SOL     OW49658   3.627   6.040   2.558 -0.0167 -0.1131 -0.2154
16139SOL    HW149659   3.689   6.005   2.494 -1.1307 -0.9051 -0.8723
16139SOL    HW249660   3.640   6.135   2.554  1.0429 -0.2622 -0.4575
16140SOL     OW49661   1.493   5.089   1.094  0.1479 -0.1949  0.3844
16140SOL    HW149662   1.527   5.000   1.085 -0.9639 -0.7033  0.9833
16140SOL    HW249663   1.459   5.110   1.007 -1.0280 -0.9971  0.6226
16141SOL     OW49664   4.437   8.018   8.081 -0.1033  0.1332  0.2114
16141SOL    HW149665   4.386   7.938   8.064 -0.1908  0.3569 -0.6078
16141SOL    HW249666   4.370   8.084   8.101 -0.0630  0.1335  0.3433
16142SOL     OW49667   0.261   6.254   2.613  0.1038  0.3596 -0.0123
16142SOL    HW149668   0.302   6.190   2.556 -0.3669 -1.4859  1.6453
16142SOL    HW249669   0.332   6.309   2.644  0.9585 -1.1588  0.7707
16143SOL     OW49670   3.879   5.353   1.662 -0.0753 -0.1819  0.1350
16143SOL    HW149671   3.909   5.326   1.575 -2.2602 -1.3869 -0.2954
16143SOL    HW249672   3.796   5.398   1.645 -0.1368  0.2611  1.5408
16144SOL     OW49673   1.957   7.228   5.690 -0.0984 -0.0903  0.6002
16144SOL    HW149674   1.899   7.277   5.632  0.4541  0.1217  0.2229
16144SOL    HW249675   2.032   7.205   5.636  0.1295 -0.4463  1.0590
16145SOL     OW49676   7.229   1.353   4.250 -0.3932 -0.1245 -0.0014
16145SOL    HW149677   7.183   1.275   4.280 -0.0820 -0.6292 -0.8322
16145SOL    HW249678   7.274   1.386   4.328  1.2561 -2.0244 -0.1223
16146SOL     OW49679   3.135   2.264   1.681 -0.5313 -0.2864  0.2611
16146SOL    HW149680   3.139   2.175   1.647  0.7922 -0.1411  0.0172
16146SOL    HW249681   3.054   2.300   1.646 -0.5491 -1.0522 -0.4877
16147SOL     OW49682   1.757   2.040   0.981  0.1787  0.3519 -0.2428
16147SOL    HW149683   1.817   1.982   1.029 -0.1611  1.7684  1.9305
16147SOL    HW249684   1.811   2.076   0.911  0.5643 -2.0755 -1.2587
16148SOL     OW49685   7.530   2.149   0.929  0.3819 -0.3188 -0.3499
16148SOL    HW149686   7.558   2.238   0.949 -1.1385  0.3576 -1.0896
16148SOL    HW249687   7.480   2.158   0.848 -0.2855 -1.7546 -0.1111
16149SOL     OW49688   5.280   2.631   2.024  0.4396 -0.4651  0.2980
16149SOL    HW149689   5.348   2.667   2.081 -1.2930  1.8679  0.9582
16149SOL    HW249690   5.267   2.699   1.957 -2.3628 -0.1546  1.1226
16150SOL     OW49691   5.350   5.159   4.363 -0.2137 -0.3394  0.1980
16150SOL    HW149692   5.327   5.202   4.445 -0.0124 -1.5285  0.8830
16150SOL    HW249693   5.267   5.154   4.314  0.1861  2.9932 -0.9440
16151SOL     OW49694   6.758   4.312   3.369 -0.1616  0.2958 -0.2728
16151SOL    HW149695   6.737   4.222   3.393 -1.3111  0.8417  0.8634
16151SOL    HW249696   6.700   4.365   3.423  1.5408  1.7655  0.1845
16152SOL     OW49697   3.363   4.048   0.715 -0.4116  0.6147  0.0897
16152SOL    HW149698   3.430   4.116   0.715  0.1937  0.0272  0.4732
16152SOL    HW249699   3.375   4.003   0.799 -0.0105 -0.7348 -0.6575
16153SOL     OW49700   3.389   3.876   6.774  0.1946  0.5963  0.1910
16153SOL    HW149701   3.347   3.840   6.696 -1.8421  1.8126  0.6791
16153SOL    HW249702   3.425   3.959   6.746 -0.1432  0.8247  0.4312
16154SOL     OW49703   0.439   4.292   4.545 -0.4165 -0.2403 -0.1191
16154SOL    HW149704   0.475   4.340   4.620 -1.5838 -2.3806  1.8789
16154SOL    HW249705   0.377   4.353   4.505  0.8128  1.2259  0.1648
16155SOL     OW49706   6.381   2.977   0.268 -0.4030 -0.2588  0.2125
16155SOL    HW149707   6.441   2.908   0.293  1.1106  1.0512  0.2651
16155SOL    HW249708   6.294   2.943   0.290  0.2207 -2.5405 -0.7075
16156SOL     OW49709   6.297   7.151   6.414 -0.0089 -0.2825  0.7063
16156SOL    HW149710   6.214   7.135   6.458 -0.7326  1.0830 -0.1065
16156SOL    HW249711   6.329   7.233   6.452 -0.7652  1.0485 -1.4333
16157SOL     OW49712   3.342   3.696   1.183  0.1104  1.2081  1.2628
16157SOL    HW149713   3.309   3.609   1.205  1.7981  0.1587 -0.1775
16157SOL    HW249714   3.265   3.743   1.151 -0.7791  0.1818  1.8537
16158SOL     OW49715   4.074   1.603   4.704 -0.9369  0.3286  0.0049
16158SOL    HW149716   3.997   1.652   4.730  0.5591  2.0783  1.2655
16158SOL    HW249717   4.080   1.532   4.768 -1.5919  0.0572 -0.2262
16159SOL     OW49718   2.214   2.558   1.029 -0.1146 -0.2149 -0.3059
16159SOL    HW149719   2.248   2.474   1.061 -0.7315 -0.3368  0.0274
16159SOL    HW249720   2.246   2.563   0.939 -1.4712 -1.6030 -0.8989
16160SOL     OW49721   0.157   3.680   2.330 -0.1821  0.1171 -0.2113
16160SOL    HW149722   0.237   3.636   2.358 -0.7378 -0.1891  0.9291
16160SOL    HW249723   0.107   3.612   2.284 -0.2353  0.0335 -0.0313
16161SOL     OW49724   0.554   6.332   2.413  0.7172  0.3606  0.1789
16161SOL    HW149725   0.540   6.375   2.497 -0.2116 -0.8292  0.6473
16161SOL    HW249726   0.635   6.371   2.379  0.4096  1.7506  1.0327
16162SOL     OW49727   3.353   5.682   0.493  0.0135  0.0147  0.2455
16162SOL    HW149728   3.410   5.751   0.460  0.0728 -0.0163  0.2836
16162SOL    HW249729   3.367   5.608   0.435 -0.9594  0.4352 -0.5297
16163SOL     OW49730   4.221   7.145   4.805  0.6894 -0.5096 -0.6594
16163SOL    HW149731   4.167   7.145   4.726  1.7388  0.5425 -1.3870
16163SOL    HW249732   4.220   7.053   4.833  0.3166 -0.9030 -1.8901
16164SOL     OW49733   0.644   0.106   5.244 -0.0220  0.4032 -0.0443
16164SOL    HW149734   0.674   0.197   5.255 -1.2630  0.7335  0.6267
16164SOL    HW249735   0.553   0.107   5.273 -0.0933 -1.0290 -0.2087
16165SOL     OW49736   3.567   2.073   6.935 -0.1586 -0.6698 -0.3949
16165SOL    HW149737   3.539   2.041   6.849 -0.1029 -1.5074 -0.1013
16165SOL    HW249738   3.573   2.168   6.924 -0.2170 -0.7684 -1.2979
16166SOL     OW49739   6.266   4.058   1.226  0.7797  0.3553 -0.4630
16166SOL    HW149740   6.304   3.979   1.266 -0.4676 -1.3997 -2.5945
16166SOL    HW249741   6.340   4.099   1.181  0.9592 -1.0670 -1.5375
16167SOL     OW49742   2.469   8.183   2.011  0.0392 -0.4225  0.2533
16167SOL    HW149743   2.429   8.100   2.036  1.1937 -0.7095  1.2513
16167SOL    HW249744   2.424   8.248   2.064  0.8376 -0.7373  1.3392
16168SOL     OW49745   4.882   7.584   2.732 -0.4777  0.5375  0.1622
16168SOL    HW149746   4.847   7.635   2.805  0.1832  0.5112  0.4981
16168SOL    HW249747   4.839   7.621   2.654 -1.5674  0.2333  0.6041
16169SOL     OW49748   2.746   6.383   5.183 -0.1875  0.1537  0.4277
16169SOL    HW149749   2.771   6.436   5.107 -1.3817 -0.7134 -0.5582
16169SOL    HW249750   2.821   6.326   5.197 -0.6879 -0.9267 -1.1993
16170SOL     OW49751   6.239   4.357   1.604  0.3674  0.3195 -0.2274
16170SOL    HW149752   6.309   4.346   1.539 -0.2426  0.8864 -0.9803
16170SOL    HW249753   6.212   4.268   1.625 -1.1102  0.1926 -2.5710
16171SOL     OW49754   2.512   7.939   1.195 -0.3723  0.1800  0.1672
16171SOL    HW149755   2.429   7.919   1.151 -0.1335 -1.2949  0.3637
16171SOL    HW249756   2.579   7.910   1.133 -0.0276 -0.8908  1.0140
16172SOL     OW49757   3.907   0.177   3.404 -0.4417 -0.0650 -0.4452
16172SOL    HW149758   3.932   0.085   3.393 -0.2229 -0.1414  0.6243
16172SOL    HW249759   3.973   0.213   3.463 -0.2344  0.9187 -1.2620
16173SOL     OW49760   1.848   4.517   6.748 -0.0888 -0.4690 -0.1242
16173SOL    HW149761   1.931   4.541   6.790 -0.8978  4.0491 -0.8623
16173SOL    HW249762   1.869   4.516   6.655 -0.5599 -0.6092 -0.2253
16174SOL     OW49763   7.361   4.375   3.784 -0.0951 -0.0622  0.5283
16174SOL    HW149764   7.405   4.291   3.793  0.3276  0.3780  3.1441
16174SOL    HW249765   7.274   4.361   3.820  0.0781  0.6743  1.2557
16175SOL     OW49766   2.914   5.821   3.667 -0.6981  1.2990  0.3913
16175SOL    HW149767   2.838   5.784   3.713 -0.1702  0.2528  0.4455
16175SOL    HW249768   2.922   5.767   3.589  1.4588 -0.1779  1.5950
16176SOL     OW49769   2.046   4.067   6.385 -0.4531 -0.8338 -1.0194
16176SOL    HW149770   2.085   4.110   6.461  0.5141  0.9440 -2.4629
16176SOL    HW249771   1.952   4.084   6.393 -0.5532 -2.0632  0.6033
16177SOL     OW49772   3.288   4.360   5.185 -0.0330  0.7730 -0.3395
16177SOL    HW149773   3.245   4.301   5.247 -1.9354  0.1816 -2.1741
16177SOL    HW249774   3.380   4.331   5.184 -0.6243 -1.1634 -0.0707
16178SOL     OW49775   3.671   4.559   5.527 -0.3796 -0.1255 -0.5926
16178SOL    HW149776   3.635   4.570   5.615 -2.1959  0.5530 -1.3930
16178SOL    HW249777   3.690   4.466   5.519  0.1012 -0.1331  0.6222
16179SOL     OW49778   4.448   3.282   1.050  0.2855 -0.1341 -0.1336
16179SOL    HW149779   4.466   3.234   0.969  0.2195 -1.9300  0.8840
16179SOL    HW249780   4.400   3.220   1.105 -0.8119  1.4885  0.8041
16180SOL     OW49781   5.491   5.420   3.409  0.2701  0.0456  0.3061
16180SOL    HW149782   5.401   5.407   3.438  0.6772 -1.6524  0.9123
16180SOL    HW249783   5.485   5.485   3.339 -1.7733 -2.0896 -1.5793
16181SOL     OW49784   5.672   3.798   0.231 -0.0638 -0.3025 -0.1959
16181SOL    HW149785   5.588   3.753   0.243  0.5450 -1.3944  0.0253
16181SOL    HW249786   5.696   3.829   0.318  0.2206 -0.8155 -0.0906
16182SOL     OW49787   3.112   5.606   2.333 -0.2172  0.1518  0.1548
16182SOL    HW149788   3.202   5.620   2.365 -0.7525  2.0639  0.8982
16182SOL    HW249789   3.095   5.682   2.277 -1.1319 -0.5702 -0.5640
16183SOL     OW49790   5.533   8.245   7.142  0.0326  0.1334  0.0141
16183SOL    HW149791   5.570   8.292   7.216 -0.3315 -1.0647  0.9797
16183SOL    HW249792   5.609   8.219   7.089  0.3514  0.2874  0.3960
16184SOL     OW49793   5.073   1.951   0.288 -0.2432 -0.5876  0.4590
16184SOL    HW149794   5.141   1.950   0.355  0.9159 -1.9758 -0.7263
16184SOL    HW249795   5.111   1.906   0.213 -2.3034 -0.9811 -0.3932
16185SOL     OW49796   6.492   5.059   7.985 -0.2820 -0.1040 -0.1723
16185SOL    HW149797   6.511   4.994   8.052  1.8959 -0.7644 -1.3711
16185SOL    HW249798   6.475   5.008   7.906 -0.3508  0.7224 -0.7022
16186SOL     OW49799   6.705   8.118   6.020  0.3650 -0.0065  0.2177
16186SOL    HW149800   6.649   8.171   6.077 -0.4681 -0.9340  0.2648
16186SOL    HW249801   6.721   8.174   5.944 -1.9845 -0.3291 -0.5474
16187SOL     OW49802   8.276   4.514   4.793 -0.0476  0.0476 -0.8301
16187SOL    HW149803   8.316   4.451   4.733 -1.4821 -1.8450  0.1545
16187SOL    HW249804   8.350   4.559   4.833  0.9857 -0.5988 -1.9705
16188SOL     OW49805   0.991   2.822   1.528 -0.2059 -0.3565  0.5453
16188SOL    HW149806   0.929   2.749   1.531 -2.8226  1.6156 -2.1273
16188SOL    HW249807   0.942   2.897   1.562  1.9392  0.5004  1.8339
16189SOL     OW49808   7.339   6.532   6.783 -0.4424 -0.2657 -0.2927
16189SOL    HW149809   7.295   6.611   6.815  2.4063  1.0544  0.6334
16189SOL    HW249810   7.318   6.529   6.690 -2.4414  0.2986  0.1113
16190SOL     OW49811   0.846   5.595   0.559 -0.3288  0.1305 -0.3055
16190SOL    HW149812   0.833   5.646   0.638  0.3348 -1.6206  0.9633
16190SOL    HW249813   0.758   5.574   0.529 -0.6063  2.0359 -0.8780
16191SOL     OW49814   3.368   5.261   0.472  0.1908 -0.1443  0.5204
16191SOL    HW149815   3.279   5.229   0.483  0.2268 -0.8281 -1.0710
16191SOL    HW249816   3.421   5.183   0.458  1.1415  0.2141  1.9229
16192SOL     OW49817   7.843   0.091   3.950  0.3470  0.4443  0.2229
16192SOL    HW149818   7.824   0.085   4.043 -0.0000  0.1065  0.1327
16192SOL    HW249819   7.934   0.121   3.946 -0.5732  3.4221  0.6316
16193SOL     OW49820   0.499   5.431   6.571 -0.8145  0.1389  0.2064
16193SOL    HW149821   0.449   5.384   6.638 -1.3204 -0.0171 -0.2783
16193SOL    HW249822   0.469   5.393   6.488  1.5766 -1.3869  0.0013
16194SOL     OW49823   0.363   5.242   2.640  0.1289  0.3717  0.1945
16194SOL    HW149824   0.360   5.236   2.735 -0.3513  0.6474  0.1955
16194SOL    HW249825   0.441   5.192   2.615 -1.2041 -1.9228  0.5408
16195SOL     OW49826   5.735   3.805   7.380 -0.2926  0.1983  0.2364
16195SOL    HW149827   5.673   3.877   7.384  0.4813  0.9429 -0.9224
16195SOL    HW249828   5.742   3.784   7.286 -1.2890 -2.0657  0.6247
16196SOL     OW49829   3.600   3.226   5.271 -0.3574 -0.2352  0.5424
16196SOL    HW149830   3.608   3.315   5.236 -1.0304 -0.1501  0.6100
16196SOL    HW249831   3.532   3.185   5.218  2.2021 -1.7843 -1.6861
16197SOL     OW49832   5.480   4.583   1.919  0.0424 -0.2454 -0.0350
16197SOL    HW149833   5.471   4.488   1.917 -0.7650 -0.1383 -2.1043
16197SOL    HW249834   5.573   4.598   1.935 -0.0374 -1.3605  1.6364
16198SOL     OW49835   5.047   7.796   7.376 -0.3145 -0.6161  0.1264
16198SOL    HW149836   5.016   7.743   7.301 -1.9234  0.9323 -0.3339
16198SOL    HW249837   5.140   7.810   7.358 -0.6035 -0.5408 -1.4457
16199SOL     OW49838   4.741   5.259   6.218 -0.1985  0.1493  0.0057
16199SOL    HW149839   4.789   5.180   6.242  2.8643  1.9136 -0.0773
16199SOL    HW249840   4.745   5.261   6.122  0.8502  1.0337  0.0570
16200SOL     OW49841   5.375   4.352   5.644 -0.1000 -0.3194 -0.5208
16200SOL    HW149842   5.386   4.257   5.645  1.2496 -0.1619 -0.1651
16200SOL    HW249843   5.403   4.379   5.556  0.0772 -0.1811 -0.4223
16201SOL     OW49844   4.579   0.690   0.530 -0.1731 -0.4157 -0.5097
16201SOL    HW149845   4.640   0.617   0.519  1.3396  0.5133  1.2817
16201SOL    HW249846   4.634   0.762   0.561 -1.8421  1.1077 -1.0064
16202SOL     OW49847   0.241   2.398   1.521 -0.1693 -0.4942  0.5337
16202SOL    HW149848   0.331   2.367   1.510 -1.6132 -3.6527 -3.8071
16202SOL    HW249849   0.237   2.479   1.469 -0.2517 -1.3406 -0.8032
16203SOL     OW49850   7.826   7.223   4.453 -0.4116 -0.3421  0.2290
16203SOL    HW149851   7.730   7.225   4.449 -0.4941 -1.6717  1.0643
16203SOL    HW249852   7.851   7.147   4.401  0.1597 -0.2011  0.2953
16204SOL     OW49853   4.630   0.538   5.482  0.6387 -0.3725 -0.3806
16204SOL    HW149854   4.716   0.558   5.444  0.6779  2.8451  1.2134
16204SOL    HW249855   4.567   0.562   5.414  0.8427  2.2966  0.3160
16205SOL     OW49856   6.139   4.340   1.991  0.2827 -0.1622  0.5783
16205SOL    HW149857   6.225   4.340   2.033 -0.5123  0.1271  2.2736
16205SOL    HW249858   6.111   4.249   1.995 -0.1294 -0.0056  1.4233
16206SOL     OW49859   6.323   0.224   1.445 -0.2228  0.5192 -0.0519
16206SOL    HW149860   6.285   0.154   1.498  1.3649  0.7347  1.3908
16206SOL    HW249861   6.270   0.301   1.465  0.1596  0.5173  0.9623
16207SOL     OW49862   6.671   5.423   0.479  0.2555 -0.7849 -0.6949
16207SOL    HW149863   6.725   5.420   0.558  0.7157  0.4519 -0.9518
16207SOL    HW249864   6.730   5.457   0.412  0.0292 -2.3823 -1.7182
16208SOL     OW49865   3.615   3.396   5.845  0.2274 -0.2284  0.2747
16208SOL    HW149866   3.680   3.458   5.879  1.5397 -0.9137 -0.9343
16208SOL    HW249867   3.593   3.430   5.758  1.4130 -1.7557 -0.6520
16209SOL     OW49868   4.107   3.516   4.252  0.2936 -0.1378 -0.1062
16209SOL    HW149869   4.124   3.433   4.295  3.7463 -0.0049 -1.0858
16209SOL    HW249870   4.190   3.540   4.211 -1.3838  2.4228 -2.2083
16210SOL     OW49871   2.932   1.482   2.464  0.1885  0.4959 -0.3333
16210SOL    HW149872   2.919   1.397   2.506 -2.4525 -0.3170 -2.5759
16210SOL    HW249873   3.010   1.470   2.410  1.7213  0.5489  1.8337
16211SOL     OW49874   0.029   5.358   7.355 -0.2015 -0.1598 -0.1522
16211SOL    HW149875   0.075   5.439   7.378 -0.5959 -0.2211  0.9089
16211SOL    HW249876   0.050   5.343   7.263  2.1194 -0.3213  0.3540
16212SOL     OW49877   5.476   3.884   5.933 -0.5198  0.4321 -0.0550
16212SOL    HW149878   5.408   3.862   5.996  0.0281 -0.7202  0.1531
16212SOL    HW249879   5.537   3.940   5.981 -0.7932  0.6457  0.0445
16213SOL     OW49880   0.728   1.980   2.909  0.3077  0.2951 -0.0346
16213SOL    HW149881   0.720   2.028   2.826  0.8885  1.4809  0.5712
16213SOL    HW249882   0.800   2.025   2.955 -2.4098  2.0430  2.6806
16214SOL     OW49883   0.987   1.303   6.721  0.0094 -0.2043 -0.2412
16214SOL    HW149884   1.045   1.374   6.750 -2.1047  2.1406 -1.5499
16214SOL    HW249885   0.924   1.293   6.792 -0.3160 -0.0450 -0.5053
16215SOL     OW49886   8.221   6.709   6.268 -0.0368 -0.0463 -0.3211
16215SOL    HW149887   8.217   6.693   6.174 -0.0525  0.5860 -0.4291
16215SOL    HW249888   8.160   6.782   6.283  0.3306  0.1754  0.1063
16216SOL     OW49889   1.892   5.878   4.022  0.3679 -0.3715  0.7155
16216SOL    HW149890   1.814   5.934   4.032  0.0501  0.0043 -3.1965
16216SOL    HW249891   1.864   5.793   4.056 -0.9031  0.4387  1.7692
16217SOL     OW49892   5.235   1.887   4.065  0.4034  0.1238  0.1229
16217SOL    HW149893   5.330   1.888   4.065  0.4167 -0.7840 -0.5562
16217SOL    HW249894   5.211   1.795   4.060 -0.5195  0.3020  1.0367
16218SOL     OW49895   7.860   5.011   6.593  0.1132  0.0713  0.4577
16218SOL    HW149896   7.766   4.995   6.584  0.2002 -0.5212  0.5969
16218SOL    HW249897   7.902   4.930   6.566  0.6811  1.0875 -1.8419
16219SOL     OW49898   0.182   6.888   6.202 -0.2018  0.7459  0.2989
16219SOL    HW149899   0.267   6.863   6.168 -0.7990 -2.6334  1.0953
16219SOL    HW249900   0.180   6.852   6.290 -1.8997  2.0911  0.8439
16220SOL     OW49901   7.336   2.235   1.534 -0.3046  0.3202 -0.2293
16220SOL    HW149902   7.390   2.298   1.486  0.1743 -0.2900 -0.5020
16220SOL    HW249903   7.253   2.234   1.486  0.4868 -0.9823 -1.6345
16221SOL     OW49904   6.438   0.525   0.589 -0.6423  0.3787 -0.0933
16221SOL    HW149905   6.532   0.513   0.577 -0.6019 -1.2146  1.5627
16221SOL    HW249906   6.399   0.448   0.547 -1.0295 -0.2331  1.3375
16222SOL     OW49907   1.896   3.864   0.831  0.8476 -0.2775 -0.8923
16222SOL    HW149908   1.842   3.925   0.881  0.8035 -1.3972  0.4494
16222SOL    HW249909   1.835   3.797   0.802  1.2763 -0.8313 -0.5157
16223SOL     OW49910   0.883   6.548   2.967 -0.8075  0.7231 -0.3203
16223SOL    HW149911   0.824   6.610   3.011 -1.1801 -0.4518  0.8614
16223SOL    HW249912   0.846   6.462   2.987 -0.1983  0.1015 -1.8191
16224SOL     OW49913   0.456   2.320   2.663 -0.0607  0.2319  0.3670
16224SOL    HW149914   0.426   2.362   2.743  1.4382 -1.9087  2.0800
16224SOL    HW249915   0.485   2.393   2.607 -2.6131  1.8488  1.0743
16225SOL     OW49916   1.812   7.856   1.624 -0.4959  0.0146  0.6899
16225SOL    HW149917   1.901   7.821   1.636 -0.6388 -0.5768  0.0756
16225SOL    HW249918   1.825   7.949   1.603  0.1590 -0.6441 -2.1151
16226SOL     OW49919   2.006   3.363   2.016  0.1241 -0.2176  0.4753
16226SOL    HW149920   2.059   3.285   2.001 -0.6175 -0.6829  0.3024
16226SOL    HW249921   2.014   3.413   1.935 -0.9309 -1.0094 -0.1237
16227SOL     OW49922   7.146   5.749   3.683 -0.1931  0.4851 -0.5372
16227SOL    HW149923   7.196   5.778   3.607 -0.6489 -0.0676 -1.0464
16227SOL    HW249924   7.099   5.827   3.712  2.4652  1.5360  1.1510
16228SOL     OW49925   3.851   2.844   7.929  0.5349 -0.3962 -0.5312
16228SOL    HW149926   3.797   2.808   7.999 -0.4526  0.3721 -0.8774
16228SOL    HW249927   3.922   2.782   7.918  0.1118 -1.0507  0.4380
16229SOL     OW49928   1.404   1.947   3.678 -0.2768  0.0436  0.1161
16229SOL    HW149929   1.382   1.855   3.695 -0.8458  0.0692 -0.4341
16229SOL    HW249930   1.334   1.996   3.721 -1.1789  0.1393 -1.4200
16230SOL     OW49931   6.025   0.665   3.128  0.2114  0.4377  0.0455
16230SOL    HW149932   6.023   0.579   3.087 -0.9509  0.8040 -0.6594
16230SOL    HW249933   5.941   0.705   3.106  0.8812  1.8946  0.0698
16231SOL     OW49934   7.403   3.031   4.694 -0.0727  0.6979  0.1455
16231SOL    HW149935   7.365   3.105   4.742  1.0732  1.1279  0.3977
16231SOL    HW249936   7.497   3.046   4.696  0.0288  0.6077 -2.0393
16232SOL     OW49937   2.281   5.519   5.840 -0.2741  0.0529  0.2084
16232SOL    HW149938   2.252   5.553   5.925  1.8010  0.5409  0.7741
16232SOL    HW249939   2.354   5.460   5.863 -0.9995 -1.3902 -1.1013
16233SOL     OW49940   7.447   5.723   2.921 -0.3738  0.1054 -0.1854
16233SOL    HW149941   7.464   5.816   2.902 -2.3994  0.0515 -2.3657
16233SOL    HW249942   7.493   5.676   2.852  0.7944 -0.5562  1.0222
16234SOL     OW49943   7.944   2.386   4.511 -0.0376 -0.2635  0.0114
16234SOL    HW149944   7.972   2.387   4.420  0.9715 -0.0218  0.3190
16234SOL    HW249945   7.859   2.431   4.511  1.3208  2.3932 -0.3669
16235SOL     OW49946   2.646   3.398   0.399 -0.4200 -0.2717 -0.3662
16235SOL    HW149947   2.586   3.447   0.456 -1.8754 -0.6506 -1.5267
16235SOL    HW249948   2.603   3.313   0.388 -1.0321  0.3682 -3.3968
16236SOL     OW49949   1.907   2.614   6.242  0.0813  0.3047 -0.2236
16236SOL    HW149950   1.913   2.709   6.237  2.2409  0.2373  0.3205
16236SOL    HW249951   1.917   2.584   6.152  0.1226  0.5858 -0.3123
16237SOL     OW49952   0.929   7.079   5.012 -0.0839  0.2248 -0.6900
16237SOL    HW149953   0.859   7.093   4.948 -1.8640 -1.4505  0.8136
16237SOL    HW249954   0.947   7.167   5.047 -0.8323  0.8005 -1.7181
16238SOL     OW49955   5.141   3.024   0.648  0.4299 -0.5451 -0.3636
16238SOL    HW149956   5.128   2.935   0.617  1.0903 -0.6245 -0.4147
16238SOL    HW249957   5.107   3.079   0.577  0.3542 -0.7441 -0.4828
16239SOL     OW49958   6.119   8.023   1.190  0.0471 -0.8599 -0.3799
16239SOL    HW149959   6.095   7.944   1.240 -0.3792 -0.8499 -0.5640
16239SOL    HW249960   6.098   8.096   1.248 -1.4931 -0.8015 -0.9830
16240SOL     OW49961   0.752   0.615   1.467  0.0110 -0.4416 -0.6613
16240SOL    HW149962   0.689   0.606   1.395 -0.7867  0.1800 -0.0479
16240SOL    HW249963   0.710   0.570   1.541  0.8654 -1.1546 -0.6015
16241SOL     OW49964   6.810   0.795   3.004  0.2147 -0.3556 -0.4236
16241SOL    HW149965   6.876   0.863   3.020 -1.3445  0.9768  0.4759
16241SOL    HW249966   6.861   0.716   2.985  2.0875  0.2784  1.7977
16242SOL     OW49967   4.713   5.402   0.191  0.3735  0.0038 -0.2560
16242SOL    HW149968   4.650   5.373   0.257 -0.0829  1.9161  0.1899
16242SOL    HW249969   4.776   5.455   0.240  1.2122 -0.2730 -1.0222
16243SOL     OW49970   2.272   3.803   6.894 -0.4377 -0.3370 -0.2318
16243SOL    HW149971   2.256   3.752   6.973 -2.1079 -0.0768 -0.3899
16243SOL    HW249972   2.186   3.835   6.868  0.0939 -0.4134 -2.1534
16244SOL     OW49973   6.493   2.970   1.225 -0.1070  0.4201  0.6223
16244SOL    HW149974   6.507   2.991   1.317  2.9973  1.0430  0.0579
16244SOL    HW249975   6.535   2.885   1.213  0.1200  0.6599 -0.3693
16245SOL     OW49976   0.369   4.580   2.787 -0.1971 -0.2388 -0.0070
16245SOL    HW149977   0.423   4.657   2.769  0.7480 -0.7453  0.6062
16245SOL    HW249978   0.279   4.610   2.775  0.2337  0.4300 -1.7814
16246SOL     OW49979   0.889   5.417   1.731 -0.2618  0.1182 -0.1073
16246SOL    HW149980   0.900   5.432   1.637  1.6793  0.5871  0.1734
16246SOL    HW249981   0.794   5.416   1.744 -0.5499  0.4939 -1.9935
16247SOL     OW49982   3.831   3.673   7.917 -0.1596  0.2092 -0.1251
16247SOL    HW149983   3.782   3.635   7.844  0.2199 -0.4357 -0.0419
16247SOL    HW249984   3.800   3.764   7.921 -2.0394 -0.4159  0.5003
16248SOL     OW49985   0.732   8.201   5.840 -0.5229  0.1513 -0.8135
16248SOL    HW149986   0.820   8.207   5.802 -0.0682  1.2754  0.3774
16248SOL    HW249987   0.688   8.281   5.811 -0.0794  1.1616  1.1876
16249SOL     OW49988   4.076   6.443   1.623 -0.1099  0.1256 -0.4701
16249SOL    HW149989   4.161   6.483   1.605 -0.2157 -0.2195 -1.8081
16249SOL    HW249990   4.034   6.502   1.686  0.7931  0.7124 -0.4096
16250SOL     OW49991   3.789   5.756   3.063  0.4307  0.1799  0.0591
16250SOL    HW149992   3.752   5.810   2.993 -0.1863  0.3606  0.5216
16250SOL    HW249993   3.879   5.785   3.071  0.2062  0.8826  0.0510
16251SOL     OW49994   1.226   2.423   8.112  0.0834  0.3621  0.5633
16251SOL    HW149995   1.223   2.338   8.156 -1.7976 -0.3331 -0.8478
16251SOL    HW249996   1.163   2.477   8.159  0.0218  0.4358  0.3989
16252SOL     OW49997   2.317   4.851   6.750  0.1090  0.3760  0.5947
16252SOL    HW149998   2.258   4.907   6.699 -0.3376 -0.6304 -0.0299
16252SOL    HW249999   2.293   4.867   6.841  0.5406  1.7972  0.4640
16253SOL     OW50000   6.415   4.527   6.613  0.8355 -0.0586  0.5019
16253SOL    HW150001   6.509   4.511   6.615  1.0752  1.3022  0.6480
16253SOL    HW250002   6.399   4.566   6.527  0.6682  1.2112  1.1038
16254SOL     OW50003   2.291   7.107   5.965  0.0997  0.0855  0.3343
16254SOL    HW150004   2.228   7.100   6.037 -0.7056  0.7522 -0.2994
16254SOL    HW250005   2.273   7.192   5.925  0.5934 -0.2452 -0.6019
16255SOL     OW50006   6.558   5.968   6.161  0.2485  0.0124 -0.7188
16255SOL    HW150007   6.548   5.952   6.068  0.6075  2.2009 -1.1772
16255SOL    HW250008   6.481   6.021   6.184  0.3550 -0.1982  0.1370
16256SOL     OW50009   1.352   4.851   0.690 -0.1244 -0.0309 -0.2980
16256SOL    HW150010   1.413   4.802   0.634 -0.9829 -1.2272 -0.2171
16256SOL    HW250011   1.375   4.943   0.676  1.3337 -0.4349 -0.6814
16257SOL     OW50012   1.414   5.025   4.183  0.2765 -0.8105  0.7463
16257SOL    HW150013   1.412   4.948   4.126 -0.7512 -1.2017  1.2962
16257SOL    HW250014   1.325   5.061   4.178  0.7786  0.4142  0.3988
16258SOL     OW50015   0.413   7.496   3.106 -0.1000  0.1660  0.5698
16258SOL    HW150016   0.352   7.439   3.153  0.3689  0.8500  2.0130
16258SOL    HW250017   0.366   7.520   3.026 -0.1613 -2.5841 -0.3042
16259SOL     OW50018   3.014   3.071   0.863 -0.6216  0.5450 -0.2660
16259SOL    HW150019   3.104   3.038   0.868 -0.5891  0.7425  0.6994
16259SOL    HW250020   2.990   3.064   0.771  1.5486  3.5465 -1.1201
16260SOL     OW50021   1.997   0.326   3.683  0.3048 -0.2249  0.4788
16260SOL    HW150022   2.091   0.330   3.701  0.4158 -0.5059 -0.0263
16260SOL    HW250023   1.966   0.251   3.734  0.3902 -0.2509  0.4918
16261SOL     OW50024   4.127   0.816   6.166  0.1281 -0.1848 -0.3814
16261SOL    HW150025   4.093   0.810   6.256  1.1492 -0.9980 -0.0352
16261SOL    HW250026   4.142   0.725   6.140  1.4557  0.1271 -0.7364
16262SOL     OW50027   2.236   7.225   1.407 -0.5297  0.2869  0.2024
16262SOL    HW150028   2.238   7.152   1.346 -0.8345 -0.4648  1.0787
16262SOL    HW250029   2.169   7.284   1.371 -1.0567 -0.3832  0.0666
16263SOL     OW50030   7.930   2.174   3.013 -0.1562 -0.0926 -0.0755
16263SOL    HW150031   7.988   2.115   3.061 -1.4209 -0.0504  1.5754
16263SOL    HW250032   7.927   2.139   2.924  3.0877  0.4308 -0.4315
16264SOL     OW50033   4.462   2.082   1.914  0.4647 -0.6341 -0.1166
16264SOL    HW150034   4.493   1.993   1.929  0.3953 -1.2087 -3.0711
16264SOL    HW250035   4.533   2.125   1.867 -0.8718 -0.2129 -1.8113
16265SOL     OW50036   4.132   7.664   6.894  0.0494 -0.6333  0.2379
16265SOL    HW150037   4.077   7.637   6.821  0.7444  0.9715 -0.8963
16265SOL    HW250038   4.077   7.724   6.945  1.3388  2.5913 -2.0105
16266SOL     OW50039   7.122   6.761   6.765 -0.4064  0.0127  0.1844
16266SOL    HW150040   7.031   6.791   6.760 -0.6304 -0.8699 -1.1825
16266SOL    HW250041   7.170   6.819   6.706 -0.3822 -0.6254 -0.4262
16267SOL     OW50042   7.873   5.287   6.042 -0.0305 -0.1679 -0.4561
16267SOL    HW150043   7.807   5.349   6.011  0.0062  0.4784  0.7189
16267SOL    HW250044   7.850   5.273   6.134  0.1151 -1.7006 -0.6359
16268SOL     OW50045   2.860   2.410   6.090  0.1056 -0.2078 -0.4320
16268SOL    HW150046   2.883   2.404   6.182  1.2323  0.6305 -0.6535
16268SOL    HW250047   2.888   2.327   6.052 -2.9735 -1.7686  0.5133
16269SOL     OW50048   3.618   8.175   6.530  0.3242  0.0029  0.1923
16269SOL    HW150049   3.692   8.171   6.590  0.6790  0.3715 -0.2245
16269SOL    HW250050   3.574   8.258   6.552  2.0065  1.5097 -1.8756
16270SOL     OW50051   4.979   7.352   6.153  1.0705  0.5141  0.2412
16270SOL    HW150052   4.906   7.392   6.201  0.1410  1.3121 -1.7601
16270SOL    HW250053   5.024   7.425   6.112  0.8345 -0.2559 -1.4547
16271SOL     OW50054   5.861   1.409   4.779  0.4849  0.5232  0.4024
16271SOL    HW150055   5.905   1.390   4.862  1.3081 -0.3859 -0.2309
16271SOL    HW250056   5.926   1.456   4.727 -0.0680  1.1942  0.3128
16272SOL     OW50057   4.245   7.449   0.179 -0.0098  0.1849  0.0009
16272SOL    HW150058   4.256   7.473   0.271  0.8088  0.8396 -0.2606
16272SOL    HW250059   4.170   7.389   0.179  0.7577 -0.8096  1.2491
16273SOL     OW50060   3.375   7.932   1.240 -0.5395 -0.0835 -0.3111
16273SOL    HW150061   3.437   8.003   1.226 -0.8526 -0.0727 -1.7259
16273SOL    HW250062   3.426   7.852   1.223 -0.1248 -0.2359  1.5060
16274SOL     OW50063   6.654   0.851   4.984 -0.1646 -0.5704  0.0546
16274SOL    HW150064   6.594   0.823   4.915 -0.2421 -1.5730  0.5226
16274SOL    HW250065   6.726   0.895   4.937 -2.2155  2.4792 -0.3743
16275SOL     OW50066   1.107   2.891   2.455  0.3016  0.4879 -0.3918
16275SOL    HW150067   1.103   2.986   2.457  0.5597  0.5111 -1.1646
16275SOL    HW250068   1.041   2.865   2.390 -0.3120  0.1070  0.3692
16276SOL     OW50069   7.597   1.077   7.592 -0.2020 -0.4291  0.2374
16276SOL    HW150070   7.513   1.124   7.596 -2.0534 -3.7270  2.5540
16276SOL    HW250071   7.661   1.141   7.622 -2.4671  0.9355  2.3927
16277SOL     OW50072   0.370   4.863   0.680 -0.8276 -0.0823  0.1676
16277SOL    HW150073   0.363   4.775   0.717  0.5926 -0.0025  0.6769
16277SOL    HW250074   0.281   4.899   0.686 -0.7836 -0.3117  2.9716
16278SOL     OW50075   8.292   2.679   6.184  0.0936 -0.5167 -0.1823
16278SOL    HW150076   8.251   2.693   6.269 -0.3765 -1.7609 -0.1898
16278SOL    HW250077   8.251   2.599   6.151  1.6196 -1.0841 -0.7401
16279SOL     OW50078   4.560   6.933   1.462 -0.1123  0.1023 -0.0181
16279SOL    HW150079   4.520   6.900   1.381 -0.0182  1.3155 -0.5776
16279SOL    HW250080   4.646   6.964   1.435 -0.6672  1.9121  0.2482
16280SOL     OW50081   3.090   7.846   0.138  0.3123 -0.0621 -0.1917
16280SOL    HW150082   3.060   7.936   0.149 -1.8734 -0.6540 -0.9576
16280SOL    HW250083   3.070   7.804   0.222 -2.7220 -0.8920 -1.2756
16281SOL     OW50084   4.590   1.845   7.502  0.4133 -0.1948 -0.1553
16281SOL    HW150085   4.536   1.837   7.423  0.1686 -1.6443  0.1524
16281SOL    HW250086   4.650   1.770   7.498 -0.2017 -0.7858  1.4928
16282SOL     OW50087   5.832   0.281   2.006  0.4165 -0.2410 -0.1695
16282SOL    HW150088   5.925   0.276   1.982 -0.1073 -2.0910 -1.9233
16282SOL    HW250089   5.806   0.189   2.017 -1.9846  0.0904 -2.7511
16283SOL     OW50090   7.124   3.289   7.208 -0.0670 -0.3839  0.3512
16283SOL    HW150091   7.211   3.325   7.194 -0.0318 -0.9073 -0.8197
16283SOL    HW250092   7.137   3.194   7.209 -0.5783 -0.4566  0.4911
16284SOL     OW50093   5.835   1.474   6.250 -0.3672 -0.6107 -0.4189
16284SOL    HW150094   5.833   1.438   6.338  0.1289 -1.0519 -0.5838
16284SOL    HW250095   5.865   1.402   6.195  1.0619  0.1703 -0.6877
16285SOL     OW50096   8.070   6.294   0.096 -0.3792 -0.1600  0.6834
16285SOL    HW150097   8.156   6.334   0.083 -0.8948  0.9791  0.6901
16285SOL    HW250098   8.017   6.363   0.135 -1.7912 -0.2706 -0.9531
16286SOL     OW50099   7.107   1.143   2.435  0.7119  0.2814 -0.0328
16286SOL    HW150100   7.077   1.211   2.496  1.2051  0.2987  0.1950
16286SOL    HW250101   7.049   1.068   2.452  1.4386 -0.0318  1.1156
16287SOL     OW50102   4.780   6.542   3.709  0.5235  0.3612 -0.1657
16287SOL    HW150103   4.823   6.583   3.634  0.9203  0.4547  0.1095
16287SOL    HW250104   4.749   6.458   3.676  0.5424  0.4754 -0.4802
16288SOL     OW50105   5.804   0.768   3.023 -0.4725  0.1191  0.0075
16288SOL    HW150106   5.832   0.845   2.974  0.5780  0.3196  0.9186
16288SOL    HW250107   5.736   0.801   3.083 -0.6503  0.1680 -0.2213
16289SOL     OW50108   7.781   5.753   4.178  0.4211 -0.2095 -0.1506
16289SOL    HW150109   7.862   5.735   4.227 -0.1936  0.4713  1.1536
16289SOL    HW250110   7.724   5.680   4.199  0.7339 -0.7453 -1.1610
16290SOL     OW50111   4.557   7.276   6.129 -0.1725  0.4448  0.4624
16290SOL    HW150112   4.554   7.271   6.033 -2.8198  0.0630  0.5144
16290SOL    HW250113   4.629   7.335   6.148  0.9090 -0.1037 -1.7432
16291SOL     OW50114   6.909   5.420   2.088  0.0882 -0.3852 -0.3840
16291SOL    HW150115   6.819   5.452   2.094  1.1648  2.5991  0.5377
16291SOL    HW250116   6.931   5.392   2.177 -0.0820 -1.5453 -0.7054
16292SOL     OW50117   4.980   5.841   0.357  0.2251 -0.2241  0.0437
16292SOL    HW150118   4.943   5.848   0.445 -0.2786  1.6323 -0.2959
16292SOL    HW250119   4.949   5.919   0.312  4.1971  1.2531 -0.3809
16293SOL     OW50120   0.610   4.332   0.927  0.2857  0.0911 -0.2142
16293SOL    HW150121   0.628   4.397   0.995 -0.2174 -0.1666  0.1701
16293SOL    HW250122   0.696   4.303   0.897  0.5075  0.0739  0.4416
16294SOL     OW50123   3.131   0.417   7.144 -0.0526  0.6816 -0.2607
16294SOL    HW150124   3.222   0.446   7.132  0.0206  0.9197  0.8029
16294SOL    HW250125   3.086   0.495   7.178 -0.3315  0.1643  0.5675
16295SOL     OW50126   2.279   3.056   2.823 -0.0374 -0.2872 -0.0426
16295SOL    HW150127   2.324   2.988   2.773 -0.1144  0.6244 -1.3420
16295SOL    HW250128   2.186   3.043   2.804 -0.1597 -0.5970  0.7064
16296SOL     OW50129   6.298   6.013   3.497  0.1735  0.2825  0.1029
16296SOL    HW150130   6.294   6.108   3.498  2.2884  0.3692  0.9150
16296SOL    HW250131   6.231   5.986   3.560  0.6194  1.2613  1.0007
16297SOL     OW50132   5.665   4.940   5.002  0.4504  0.2530 -0.0103
16297SOL    HW150133   5.572   4.914   5.002  0.6559 -0.5475  1.0993
16297SOL    HW250134   5.670   5.011   5.066  0.8876 -0.8901  1.2671
16298SOL     OW50135   2.088   7.452   3.016 -0.2748 -0.1163  0.3021
16298SOL    HW150136   2.091   7.394   3.092  0.7425  1.0483  1.1823
16298SOL    HW250137   2.003   7.496   3.023  0.6738  1.5352  1.9842
16299SOL     OW50138   4.515   7.687   4.093 -0.7360  0.5142  0.1318
16299SOL    HW150139   4.498   7.772   4.053  0.4431  1.3243  1.2990
16299SOL    HW250140   4.573   7.707   4.167 -1.8118 -1.0868  1.4427
16300SOL     OW50141   5.793   4.214   5.032 -0.4575 -0.2342  0.0756
16300SOL    HW150142   5.807   4.156   5.106  0.1527 -2.1271 -1.4861
16300SOL    HW250143   5.743   4.161   4.970 -1.4688  1.5177 -0.6280
16301SOL     OW50144   1.623   2.741   0.244  0.1323  0.0778  0.1476
16301SOL    HW150145   1.541   2.718   0.288 -0.4656 -1.6077 -1.7766
16301SOL    HW250146   1.691   2.724   0.309 -0.8897 -0.4134  1.1001
16302SOL     OW50147   1.521   0.072   6.069  0.4272  0.5478  0.3625
16302SOL    HW150148   1.450   0.030   6.021  0.1678 -1.0068  2.0510
16302SOL    HW250149   1.581   0.102   6.001  1.4417 -4.0192 -0.9715
16303SOL     OW50150   3.425   5.391   7.220  0.3910  0.1282 -0.6455
16303SOL    HW150151   3.495   5.447   7.253 -0.4268  0.8791 -0.1671
16303SOL    HW250152   3.429   5.401   7.125  2.7082 -1.9872 -0.8292
16304SOL     OW50153   1.102   7.820   6.168  0.0596 -0.1872  0.4243
16304SOL    HW150154   1.018   7.776   6.160  0.0802 -0.0082 -0.8707
16304SOL    HW250155   1.104   7.853   6.257 -0.9024 -0.8883  0.7058
16305SOL     OW50156   4.203   2.181   2.714 -0.0900 -0.3450 -0.2180
16305SOL    HW150157   4.228   2.259   2.664  1.7866 -0.6376  0.2253
16305SOL    HW250158   4.181   2.116   2.648 -1.4529  0.4643 -0.5950
16306SOL     OW50159   4.274   0.619   3.931  0.4414 -0.0077  0.3365
16306SOL    HW150160   4.220   0.647   4.005 -0.4642 -0.8082 -0.0141
16306SOL    HW250161   4.212   0.580   3.869  1.5151 -1.6612  0.2810
16307SOL     OW50162   3.919   2.008   5.202  0.0573  0.0406  0.3075
16307SOL    HW150163   3.847   2.065   5.227  0.0315 -0.0108  0.3485
16307SOL    HW250164   3.960   1.982   5.284  0.7172  0.8500  0.2395
16308SOL     OW50165   6.905   3.031   2.233 -0.1710  0.0781 -0.5106
16308SOL    HW150166   6.948   3.102   2.279 -1.0383  0.2072  0.1229
16308SOL    HW250167   6.825   3.070   2.197 -2.4347 -1.2807  2.7242
16309SOL     OW50168   2.960   8.275   6.892 -0.0168  0.2039  0.5120
16309SOL    HW150169   2.970   8.202   6.953 -1.4319 -0.8509 -0.4891
16309SOL    HW250170   2.888   8.327   6.928 -0.9097 -0.4659 -0.2773
16310SOL     OW50171   6.059   7.273   4.462  0.4076  0.3933 -0.3035
16310SOL    HW150172   6.085   7.219   4.388  0.3477 -0.5113  0.3318
16310SOL    HW250173   6.113   7.352   4.454 -0.1443  0.6353 -1.7253
16311SOL     OW50174   2.397   6.992   7.343 -0.3007 -0.2773 -0.8051
16311SOL    HW150175   2.444   7.076   7.346  0.1938 -0.5593 -0.5752
16311SOL    HW250176   2.312   7.011   7.383 -0.2144  0.1313 -0.8086
16312SOL     OW50177   7.811   6.681   5.649  0.3534  0.5092 -0.5821
16312SOL    HW150178   7.840   6.623   5.719 -1.5415  0.2268 -0.0170
16312SOL    HW250179   7.893   6.712   5.608  1.4326 -0.3556  0.8830
16313SOL     OW50180   2.831   3.175   7.179 -0.3030  0.1416 -0.7820
16313SOL    HW150181   2.809   3.108   7.114  1.4800  0.4701 -1.7449
16313SOL    HW250182   2.768   3.161   7.250 -0.3678 -2.1357 -1.2555
16314SOL     OW50183   1.201   0.743   3.776  0.0485 -0.2352  0.2805
16314SOL    HW150184   1.125   0.745   3.718 -0.3741  1.5239  0.8756
16314SOL    HW250185   1.269   0.793   3.728  1.7479 -3.9855 -1.4407
16315SOL     OW50186   3.578   6.704   3.745  0.5051 -0.0264 -0.4297
16315SOL    HW150187   3.582   6.727   3.838 -1.5684  0.9718 -0.5569
16315SOL    HW250188   3.503   6.645   3.738  1.0831 -0.6771 -1.3840
16316SOL     OW50189   2.631   0.617   5.422 -0.4751 -0.7790  0.1449
16316SOL    HW150190   2.645   0.710   5.440 -1.1059 -0.6574  0.0304
16316SOL    HW250191   2.719   0.579   5.422 -0.2786 -0.3375  1.0116
16317SOL     OW50192   6.148   1.584   6.251  0.4243  0.1607 -0.0370
16317SOL    HW150193   6.150   1.493   6.281 -0.6144  0.1456  0.0300
16317SOL    HW250194   6.177   1.635   6.327 -1.3131  0.0522  0.7307
16318SOL     OW50195   8.217   3.801   7.402  0.3555  0.3914 -0.3512
16318SOL    HW150196   8.216   3.878   7.459 -1.0834 -1.0416  1.6352
16318SOL    HW250197   8.134   3.805   7.355  0.1956 -0.0372 -0.1076
16319SOL     OW50198   1.604   4.386   7.101  0.3027 -0.4499  0.5216
16319SOL    HW150199   1.623   4.476   7.129 -2.0524  0.2112  0.1017
16319SOL    HW250200   1.536   4.356   7.162  0.4541 -1.6335  0.1063
16320SOL     OW50201   1.011   5.031   5.894 -0.1036  0.7619 -0.7481
16320SOL    HW150202   1.089   5.056   5.844  0.6752 -0.3192 -0.1080
16320SOL    HW250203   1.046   4.995   5.975 -1.2821  0.2522 -0.4632
16321SOL     OW50204   0.658   5.428   0.972 -0.1993  0.3905  0.3968
16321SOL    HW150205   0.687   5.506   0.924 -0.8550  1.7249  2.1253
16321SOL    HW250206   0.587   5.392   0.918  0.1620  0.9249 -0.4566
16322SOL     OW50207   1.732   6.442   7.221 -0.7567  0.2124  0.3220
16322SOL    HW150208   1.704   6.380   7.289 -1.5067 -0.6522 -0.7510
16322SOL    HW250209   1.652   6.492   7.201 -0.7825 -0.1786 -0.5793
16323SOL     OW50210   5.653   5.851   0.165  0.3255 -0.3332  0.1835
16323SOL    HW150211   5.691   5.851   0.253 -0.5202 -1.4952  0.5580
16323SOL    HW250212   5.611   5.765   0.157 -0.6701  0.2442 -0.8980
16324SOL     OW50213   8.199   4.799   3.643  0.4757 -0.3608  0.2058
16324SOL    HW150214   8.220   4.792   3.736  1.4792 -1.5753 -0.0885
16324SOL    HW250215   8.207   4.709   3.610 -2.5884 -0.4159 -0.5165
16325SOL     OW50216   2.055   1.696   3.111  0.7290  0.2456 -0.1793
16325SOL    HW150217   1.996   1.751   3.059  1.7290  0.4524 -1.1253
16325SOL    HW250218   2.063   1.742   3.194 -1.6451 -0.5771  0.5412
16326SOL     OW50219   1.087   2.574   2.278  0.2009 -0.5207  0.8673
16326SOL    HW150220   1.007   2.609   2.315 -0.3417 -0.2643 -0.5113
16326SOL    HW250221   1.059   2.524   2.202  1.2711 -1.1343  0.8589
16327SOL     OW50222   8.101   2.008   4.862 -0.2137  0.0477 -0.5512
16327SOL    HW150223   8.183   2.004   4.912 -0.7304  2.7136  0.5783
16327SOL    HW250224   8.124   2.054   4.781 -0.9612  2.5021  0.6013
16328SOL     OW50225   5.842   4.932   7.427 -0.6695 -0.4048 -0.3345
16328SOL    HW150226   5.767   4.872   7.434 -1.0044  0.2486  1.9543
16328SOL    HW250227   5.895   4.912   7.504 -0.1516  1.3821 -0.2227
16329SOL     OW50228   6.966   8.075   6.101  0.0548 -0.1433 -0.2065
16329SOL    HW150229   6.972   8.049   6.193  0.6463 -0.6529 -0.3850
16329SOL    HW250230   6.873   8.070   6.081 -0.1864  0.8057  0.5986
16330SOL     OW50231   1.207   7.542   4.741 -0.3408  0.4496 -0.5179
16330SOL    HW150232   1.203   7.449   4.764 -0.1970  0.7728  0.8826
16330SOL    HW250233   1.123   7.561   4.700 -0.8135 -0.0502  0.2044
16331SOL     OW50234   2.892   2.114   2.626 -0.1885  0.2356  0.0432
16331SOL    HW150235   2.948   2.164   2.566 -0.5155  0.3478 -0.1664
16331SOL    HW250236   2.897   2.024   2.594  1.1536 -0.0531  0.9739
16332SOL     OW50237   2.204   0.258   4.403 -0.0662  0.1316 -0.2040
16332SOL    HW150238   2.247   0.343   4.393 -0.6130  0.3761 -0.5218
16332SOL    HW250239   2.129   0.275   4.459  1.1844 -0.6233  1.7326
16333SOL     OW50240   0.809   0.390   8.156  0.0143  0.3907  0.1748
16333SOL    HW150241   0.718   0.402   8.130  0.2722  0.6888 -0.5787
16333SOL    HW250242   0.820   0.448   8.231 -0.7179 -0.4555  0.9576
16334SOL     OW50243   2.840   6.605   4.763  0.4320  0.7269  0.0026
16334SOL    HW150244   2.889   6.687   4.762  1.0531  0.3626 -0.4538
16334SOL    HW250245   2.880   6.554   4.834 -1.2163  1.5568  1.5427
16335SOL     OW50246   7.552   6.496   8.223 -0.3017  0.2010  0.0256
16335SOL    HW150247   7.587   6.456   8.303 -1.0781 -0.6950 -0.0725
16335SOL    HW250248   7.547   6.423   8.161  0.0236  0.8390 -0.7541
16336SOL     OW50249   4.462   2.025   2.447 -0.1207  0.5111  0.0036
16336SOL    HW150250   4.509   2.015   2.530  0.6573  0.6069 -0.4200
16336SOL    HW250251   4.531   2.030   2.381 -0.7565 -0.9327 -0.7914
16337SOL     OW50252   7.903   1.317   0.007  1.0263  0.3449 -0.3250
16337SOL    HW150253   7.834   1.367  -0.037  0.6436  0.0003 -0.1301
16337SOL    HW250254   7.949   1.272  -0.063 -0.2174 -0.9952 -0.3008
16338SOL     OW50255   5.969   5.146   6.422  0.3342 -0.3360  0.2864
16338SOL    HW150256   5.983   5.095   6.501  1.0130 -0.4946  0.0662
16338SOL    HW250257   5.880   5.124   6.394  0.2821 -0.6675  0.7214
16339SOL     OW50258   5.619   5.653   5.569  0.1982  0.1126 -0.2964
16339SOL    HW150259   5.573   5.601   5.503  1.5476  0.2343 -1.3651
16339SOL    HW250260   5.670   5.589   5.618  0.9865  0.2771 -0.8845
16340SOL     OW50261   5.642   3.434   7.714 -0.2788 -0.2498  0.5186
16340SOL    HW150262   5.620   3.505   7.654 -3.2144 -0.9348  0.7124
16340SOL    HW250263   5.708   3.471   7.772  0.6498  1.2606 -1.4558
16341SOL     OW50264   6.078   1.556   6.626  0.4615  0.2011 -0.0953
16341SOL    HW150265   6.017   1.607   6.572 -0.8033 -1.8458 -0.6484
16341SOL    HW250266   6.047   1.466   6.618  3.0784 -0.7618  0.3105
16342SOL     OW50267   6.964   0.586   2.513 -0.1157  0.0200 -0.4882
16342SOL    HW150268   6.892   0.534   2.549 -1.4245  0.9954 -1.6217
16342SOL    HW250269   7.040   0.563   2.566 -1.2676 -1.0460  0.7235
16343SOL     OW50270   0.698   7.571   2.913  0.4476  0.2717  0.7826
16343SOL    HW150271   0.603   7.577   2.922  0.4927  1.0440  0.7295
16343SOL    HW250272   0.713   7.480   2.888 -0.3465  0.3477 -0.0290
16344SOL     OW50273   1.817   3.489   0.243 -0.2571 -0.2143 -0.6604
16344SOL    HW150274   1.821   3.585   0.250  1.3031 -0.3471  0.3680
16344SOL    HW250275   1.849   3.458   0.328  0.9727 -1.6730 -1.6466
16345SOL     OW50276   3.098   5.920   7.352 -0.2904  0.2031 -0.8130
16345SOL    HW150277   3.007   5.950   7.345 -0.1322  1.2239  1.2031
16345SOL    HW250278   3.149   6.001   7.355  0.6945 -0.3674 -1.8513
16346SOL     OW50279   2.799   5.536   5.370 -0.3957 -0.2826 -0.2162
16346SOL    HW150280   2.716   5.584   5.373 -0.2127 -0.0023  0.4704
16346SOL    HW250281   2.774   5.444   5.364 -0.7766 -0.3344  1.8171
16347SOL     OW50282   4.846   6.739   7.402 -0.3596 -0.3650  0.1838
16347SOL    HW150283   4.887   6.653   7.396 -0.3980 -0.3117 -0.8762
16347SOL    HW250284   4.907   6.791   7.454  0.5707 -0.5019 -0.7535
16348SOL     OW50285   1.960   2.434   3.813  0.7339  0.2573  0.4004
16348SOL    HW150286   1.932   2.468   3.898 -0.9742  2.4919 -0.9830
16348SOL    HW250287   2.056   2.437   3.816  0.6593  2.2188  1.5206
16349SOL     OW50288   1.046   2.669   6.839  0.5800  0.2685 -0.4131
16349SOL    HW150289   1.140   2.651   6.834  0.3275 -1.8042  1.4317
16349SOL    HW250290   1.040   2.751   6.888  1.4560  1.1268 -1.7087
16350SOL     OW50291   0.790   8.206   6.300  0.4980  0.4527 -0.5118
16350SOL    HW150292   0.855   8.248   6.243  0.5954  0.0016 -0.7367
16350SOL    HW250293   0.842   8.152   6.359  0.3662  0.5581 -0.3010
16351SOL     OW50294   5.357   6.666   6.305 -0.0099  0.1199  0.3994
16351SOL    HW150295   5.401   6.689   6.222  0.0759  0.1754  0.4605
16351SOL    HW250296   5.405   6.716   6.371  0.0250 -0.0525  0.5030
16352SOL     OW50297   8.019   5.593   3.659  0.0443 -0.0124 -0.4637
16352SOL    HW150298   8.105   5.592   3.701  1.4540  1.6069 -3.1484
16352SOL    HW250299   7.960   5.628   3.725  1.8528  0.8942  0.7118
16353SOL     OW50300   1.433   6.967   0.629 -0.2476  0.6355  0.1396
16353SOL    HW150301   1.399   6.878   0.635  1.0888  0.1519  0.8910
16353SOL    HW250302   1.493   6.975   0.703  1.1351  1.5001 -1.0362
16354SOL     OW50303   5.990   1.810   1.004  0.3064  0.5691 -0.4046
16354SOL    HW150304   6.028   1.883   1.052  0.2785 -0.2411  0.8735
16354SOL    HW250305   6.064   1.769   0.959  0.5529  0.4716  0.0934
16355SOL     OW50306   2.111   1.157   7.201  0.3271 -0.0448  0.8882
16355SOL    HW150307   2.027   1.114   7.186  0.1246  0.6707 -0.0053
16355SOL    HW250308   2.102   1.200   7.286 -0.6042  0.9955  0.2665
16356SOL     OW50309   2.561   1.333   2.354 -0.9410 -0.5523 -0.2187
16356SOL    HW150310   2.554   1.239   2.367 -0.6925 -0.0023  5.1174
16356SOL    HW250311   2.649   1.346   2.318 -0.6865 -2.2900 -0.2494
16357SOL     OW50312   3.499   3.260   0.708  0.3313 -0.8635  0.2069
16357SOL    HW150313   3.455   3.228   0.787 -1.0862  0.2454 -0.1091
16357SOL    HW250314   3.437   3.322   0.670  2.0965  0.5802 -0.3832
16358SOL     OW50315   6.672   2.387   3.083  0.5605  0.1143  0.2437
16358SOL    HW150316   6.610   2.396   3.155  1.2488  0.3026  0.8196
16358SOL    HW250317   6.700   2.295   3.087  0.1766 -0.0228 -0.1392
16359SOL     OW50318   4.289   7.805   3.182  0.5262  0.1007  0.5993
16359SOL    HW150319   4.345   7.828   3.256  1.4146 -0.0473 -0.0127
16359SOL    HW250320   4.258   7.888   3.148  0.4147  0.1845  0.9019
16360SOL     OW50321   0.319   8.003   4.236 -0.7502 -0.2566 -0.1264
16360SOL    HW150322   0.386   7.994   4.169 -1.4742 -1.4192 -0.6961
16360SOL    HW250323   0.280   8.089   4.220 -0.6698 -0.3766 -0.9507
16361SOL     OW50324   6.266   6.115   5.006 -0.0571  0.3951 -0.6027
16361SOL    HW150325   6.259   6.189   5.067 -0.4969 -0.5342  0.5012
16361SOL    HW250326   6.318   6.149   4.933  0.4855  1.5362  0.2922
16362SOL     OW50327   7.097   6.329   0.318 -0.3688 -0.0607 -0.6711
16362SOL    HW150328   7.063   6.343   0.230 -0.1749  0.2475 -0.6971
16362SOL    HW250329   7.170   6.390   0.326 -1.1500  0.8055  0.1285
16363SOL     OW50330   0.677   1.979   0.382  0.8040 -0.6097  0.1419
16363SOL    HW150331   0.759   2.016   0.351  0.9244 -0.6438  0.4157
16363SOL    HW250332   0.620   2.055   0.397  1.1941 -0.5101  1.1091
16364SOL     OW50333   5.044   0.446   2.544  0.4210  0.7894  0.0657
16364SOL    HW150334   5.134   0.414   2.549  0.5502  0.8017 -1.8925
16364SOL    HW250335   5.003   0.416   2.626  2.4152  1.4959  1.3471
16365SOL     OW50336   0.504   7.630   3.316  0.2637  0.6788  0.9096
16365SOL    HW150337   0.489   7.561   3.252 -1.3052 -0.0350  2.0094
16365SOL    HW250338   0.522   7.708   3.264 -0.9779  0.1146 -0.3838
16366SOL     OW50339   0.928   2.850   8.252  0.3850  0.4987 -0.2816
16366SOL    HW150340   0.884   2.920   8.203 -0.6541  0.8111  1.0629
16366SOL    HW250341   0.891   2.856   8.340  2.1488 -0.1166  0.5162
16367SOL     OW50342   6.696   3.757   3.248 -0.6505  0.7656  0.2937
16367SOL    HW150343   6.776   3.776   3.297 -0.0628  0.6556 -0.5993
16367SOL    HW250344   6.646   3.699   3.305  0.1151  0.4736  0.6839
16368SOL     OW50345   7.738   2.613   0.710  0.0312 -0.0302 -0.3340
16368SOL    HW150346   7.816   2.653   0.749 -0.5229 -1.2665  2.1289
16368SOL    HW250347   7.667   2.635   0.770 -1.0593 -1.0006 -1.2435
16369SOL     OW50348   3.482   2.772   0.219 -0.5442  0.0503 -0.1318
16369SOL    HW150349   3.466   2.795   0.128 -0.3030 -0.2189 -0.2435
16369SOL    HW250350   3.446   2.684   0.229 -1.0650  0.2964  0.1756
16370SOL     OW50351   8.029   7.922   7.465  0.0498 -0.3309  0.2406
16370SOL    HW150352   8.001   7.831   7.449 -1.4349 -0.0332  1.1053
16370SOL    HW250353   8.016   7.965   7.380 -0.0376 -0.7337  0.0443
16371SOL     OW50354   2.974   7.699   2.978 -0.1962 -0.1076  0.6262
16371SOL    HW150355   2.962   7.737   2.891 -0.2803  0.6802  0.9775
16371SOL    HW250356   3.068   7.708   2.995  0.2466 -2.3988 -0.3459
16372SOL     OW50357   6.908   1.058   2.657  0.1968 -0.3807 -0.3760
16372SOL    HW150358   6.915   1.146   2.695  1.6983 -0.8111  0.3974
16372SOL    HW250359   6.850   1.011   2.716 -1.4783  0.3884 -1.3835
16373SOL     OW50360   7.526   1.743   7.372 -0.3659  0.4750  0.2702
16373SOL    HW150361   7.438   1.781   7.366 -1.1188 -1.3310 -0.6748
16373SOL    HW250362   7.512   1.650   7.356  1.4715 -0.1514  2.1574
16374SOL     OW50363   6.579   7.282   1.036 -0.1543 -0.6565 -0.1735
16374SOL    HW150364   6.509   7.224   1.009 -0.1023 -1.0125  0.4415
16374SOL    HW250365   6.546   7.370   1.018 -1.4946 -0.7234  1.7757
16375SOL     OW50366   6.418   2.970   8.289  0.0442 -0.1472 -0.0286
16375SOL    HW150367   6.455   2.883   8.269  2.3307  0.4069  1.5896
16375SOL    HW250368   6.361   2.955   8.364  1.1196 -0.1267  0.8068
16376SOL     OW50369   0.553   5.221   3.217 -0.1879  0.4361  0.0779
16376SOL    HW150370   0.618   5.254   3.280 -0.6573  0.1942  0.6992
16376SOL    HW250371   0.511   5.149   3.264 -0.1839 -0.0805 -0.7159
16377SOL     OW50372   2.567   3.925   3.826  0.0402 -0.4722 -0.2503
16377SOL    HW150373   2.593   3.844   3.782 -0.7509 -0.9657  0.1813
16377SOL    HW250374   2.644   3.982   3.818  0.3158 -0.9665 -1.2671
16378SOL     OW50375   1.102   4.709   7.570  0.0072  0.7013  0.0792
16378SOL    HW150376   1.016   4.678   7.598  0.6318 -0.7789  0.4227
16378SOL    HW250377   1.150   4.725   7.651  0.7119 -0.4018 -0.1053
16379SOL     OW50378   6.414   0.544   5.255  0.2313  0.3436 -0.0022
16379SOL    HW150379   6.365   0.605   5.309 -1.7775  0.2913 -1.6820
16379SOL    HW250380   6.417   0.463   5.306  0.0426  0.8568  0.8331
16380SOL     OW50381   6.121   8.290   7.851 -0.4951  0.0364  0.4544
16380SOL    HW150382   6.193   8.230   7.869  0.0947  0.9015  1.0059
16380SOL    HW250383   6.042   8.241   7.875 -0.3278 -1.9912 -2.9196
16381SOL     OW50384   7.567   5.191   7.337  0.0253  0.4796  0.0409
16381SOL    HW150385   7.654   5.168   7.304 -0.5437 -0.0047 -1.1716
16381SOL    HW250386   7.534   5.110   7.375 -0.4285  0.3154 -0.7066
16382SOL     OW50387   0.058   0.118   0.671  0.0148  0.6033 -0.0141
16382SOL    HW150388   0.115   0.191   0.695  1.0609  0.1549 -1.0879
16382SOL    HW250389   0.055   0.063   0.750 -0.2041  1.4337  0.5612
16383SOL     OW50390   0.267   5.898   7.177 -0.4472 -0.0573 -0.1064
16383SOL    HW150391   0.192   5.847   7.210 -0.0623 -0.4015  0.2352
16383SOL    HW250392   0.340   5.837   7.178  0.4368  0.9916  2.0418
16384SOL     OW50393   2.988   1.247   2.672 -0.6669  0.5475  0.1565
16384SOL    HW150394   2.956   1.182   2.733 -1.6408  0.5798 -0.3169
16384SOL    HW250395   3.077   1.219   2.651 -0.5249  0.2437  1.1642
16385SOL     OW50396   2.787   3.872   6.496 -0.9658  0.2414 -0.1269
16385SOL    HW150397   2.876   3.890   6.526 -1.1885  0.7104  0.2724
16385SOL    HW250398   2.731   3.911   6.564 -1.4703 -1.2410  0.3376
16386SOL     OW50399   4.435   7.795   2.057 -0.4712  0.0972  0.2404
16386SOL    HW150400   4.403   7.824   2.142 -0.6736  0.3199  0.0873
16386SOL    HW250401   4.425   7.871   2.000  0.5430  0.2463  0.2496
16387SOL     OW50402   7.098   2.146   6.390 -0.0923 -0.7212 -0.1790
16387SOL    HW150403   7.051   2.191   6.320 -0.5312  1.1529  1.2833
16387SOL    HW250404   7.156   2.085   6.345 -1.4658 -0.6318 -2.1100
16388SOL     OW50405   8.236   2.817   7.084  0.2293  0.3623  0.1743
16388SOL    HW150406   8.149   2.800   7.048  1.8367 -0.5388 -3.5150
16388SOL    HW250407   8.259   2.737   7.130  0.0733 -0.3657 -0.9771
16389SOL     OW50408   1.571   4.100   5.093  0.0590  0.3659 -0.2977
16389SOL    HW150409   1.498   4.099   5.031 -1.2619  0.4680  1.2264
16389SOL    HW250410   1.632   4.165   5.057 -0.6434  0.3695 -1.5240
16390SOL     OW50411   2.905   1.898   6.322 -0.1026  1.1758  0.2019
16390SOL    HW150412   2.996   1.871   6.331 -0.0008  0.6841 -2.0185
16390SOL    HW250413   2.910   1.985   6.283 -0.5826  1.0995 -0.0293
16391SOL     OW50414   4.233   6.019   0.140 -0.0768 -0.0991  0.0157
16391SOL    HW150415   4.165   5.963   0.100 -0.5878  0.7237 -0.2764
16391SOL    HW250416   4.200   6.108   0.129 -0.1337  0.1655  2.1110
16392SOL     OW50417   4.066   1.998   0.126 -0.5832  0.1086 -0.0270
16392SOL    HW150418   4.007   1.975   0.198 -0.1571 -1.3137 -0.1283
16392SOL    HW250419   4.116   1.919   0.110 -0.3631  0.5610 -1.6051
16393SOL     OW50420   5.379   4.488   4.123 -0.3649 -0.3504  0.0224
16393SOL    HW150421   5.447   4.501   4.190 -1.6792 -1.0358  1.5374
16393SOL    HW250422   5.358   4.576   4.093  1.4677 -0.1517 -0.7738
16394SOL     OW50423   3.685   5.179   1.493 -0.2424 -0.0666 -0.7524
16394SOL    HW150424   3.607   5.214   1.536 -0.5056 -0.3694 -0.9787
16394SOL    HW250425   3.743   5.154   1.564 -0.7689 -0.7766 -0.5718
16395SOL     OW50426   7.794   3.851   7.842 -0.1018  0.2999 -0.6403
16395SOL    HW150427   7.711   3.890   7.868  0.2319  1.0635 -0.6913
16395SOL    HW250428   7.856   3.877   7.910  0.4389  1.0628 -1.3976
16396SOL     OW50429   4.318   7.857   2.294 -0.3088  0.2639 -0.6359
16396SOL    HW150430   4.305   7.951   2.310 -1.1511 -0.1176  1.0401
16396SOL    HW250431   4.230   7.819   2.301  0.0726 -0.7026 -0.9697
16397SOL     OW50432   0.189   7.394   1.940 -0.0439  0.3727  0.2683
16397SOL    HW150433   0.276   7.393   1.981 -0.7444  1.8367  1.8409
16397SOL    HW250434   0.140   7.461   1.988 -2.1789 -0.6991 -0.3200
16398SOL     OW50435   1.789   7.204   2.767  0.3884  0.1728  0.0473
16398SOL    HW150436   1.762   7.295   2.776  1.2781  0.6062 -1.4397
16398SOL    HW250437   1.885   7.207   2.768  0.4301 -0.7972  0.3856
16399SOL     OW50438   0.861   3.011   0.805 -0.0142  0.6790 -0.4410
16399SOL    HW150439   0.901   2.941   0.754  0.3162  0.7649 -0.2995
16399SOL    HW250440   0.803   2.967   0.867  0.1484  0.5376 -0.3927
16400SOL     OW50441   2.900   7.214   3.558  0.1612  0.3243 -0.2316
16400SOL    HW150442   2.836   7.227   3.488  0.0733 -1.0429 -0.4066
16400SOL    HW250443   2.870   7.136   3.604 -0.3723  1.8046  1.9911
16401SOL     OW50444   0.322   0.471   7.977  0.0362 -0.2048  0.8067
16401SOL    HW150445   0.331   0.550   7.924 -2.3476  0.6113  1.5750
16401SOL    HW250446   0.320   0.503   8.067  3.5477 -1.5352  1.4399
16402SOL     OW50447   7.852   3.846   2.852 -0.5644  0.0461 -0.6441
16402SOL    HW150448   7.849   3.882   2.763 -1.3132  1.1354 -0.1852
16402SOL    HW250449   7.760   3.828   2.873 -0.3485 -0.5939 -0.2375
16403SOL     OW50450   1.050   3.660   6.901  0.4268  0.1232 -0.1570
16403SOL    HW150451   1.145   3.664   6.889  0.5926 -0.5153  0.8771
16403SOL    HW250452   1.035   3.576   6.945 -0.7329 -0.2961 -1.3431
16404SOL     OW50453   7.354   1.960   1.071 -0.4833 -0.2297 -0.8583
16404SOL    HW150454   7.401   2.036   1.104 -0.7649 -0.4901  0.1407
16404SOL    HW250455   7.366   1.965   0.976 -0.3945  0.9814 -0.7943
16405SOL     OW50456   2.201   5.517   6.656 -0.1786  0.4324  0.1977
16405SOL    HW150457   2.157   5.597   6.629  1.2246  0.7565 -1.2044
16405SOL    HW250458   2.254   5.543   6.731 -0.5828  0.5594  0.4415
16406SOL     OW50459   1.281   1.125   3.608  0.5465  0.0801  0.5325
16406SOL    HW150460   1.249   1.168   3.687  0.5945 -0.3811  0.8025
16406SOL    HW250461   1.211   1.064   3.583  0.0783  0.9818 -0.3760
16407SOL     OW50462   4.938   5.889   4.649 -0.2991  0.0503 -0.3812
16407SOL    HW150463   4.973   5.854   4.730 -0.9277 -0.5812 -0.3821
16407SOL    HW250464   4.876   5.957   4.676 -1.8218 -1.3487 -0.2650
16408SOL     OW50465   1.067   2.075   5.138 -0.1418 -0.1476  0.4991
16408SOL    HW150466   1.071   2.168   5.117  1.2741 -0.3761 -0.2679
16408SOL    HW250467   1.007   2.039   5.072 -1.2433  0.3239  1.2243
16409SOL     OW50468   8.121   3.305   1.676  0.1779 -0.4501  0.3779
16409SOL    HW150469   8.055   3.355   1.724 -0.1905 -2.0436  1.6092
16409SOL    HW250470   8.144   3.233   1.736  1.0125 -1.4781 -1.1394
16410SOL     OW50471   2.020   8.281   2.903 -0.2400  0.0202  0.3201
16410SOL    HW150472   2.045   8.190   2.891 -0.5453 -0.1670  1.0442
16410SOL    HW250473   1.963   8.300   2.829  0.2802 -0.2077 -0.1381
16411SOL     OW50474   2.576   0.697   3.472  0.3473 -0.0030  0.1334
16411SOL    HW150475   2.516   0.701   3.546  0.0881  1.4551 -0.1364
16411SOL    HW250476   2.585   0.788   3.444  0.3515 -0.5597 -1.7117
16412SOL     OW50477   7.110   1.041   8.068 -0.2986 -0.3733 -0.2872
16412SOL    HW150478   7.133   1.108   8.133 -0.8928 -1.4240  1.0169
16412SOL    HW250479   7.151   1.072   7.987 -0.4797  1.5176  0.3154
16413SOL     OW50480   1.439   3.038   4.039  0.3449 -0.4327  0.3793
16413SOL    HW150481   1.419   2.964   3.981 -0.6711 -0.3858  0.6601
16413SOL    HW250482   1.380   3.027   4.113  0.1298  0.7116  0.3867
16414SOL     OW50483   3.345   7.447   1.831 -0.7077  0.0723 -1.0664
16414SOL    HW150484   3.305   7.470   1.747 -0.2746 -1.5067 -1.7260
16414SOL    HW250485   3.430   7.491   1.830 -0.9151  0.4758 -1.2276
16415SOL     OW50486   4.063   2.256   2.074 -0.1471 -0.3244 -0.4920
16415SOL    HW150487   4.047   2.338   2.026  1.1459  0.1268 -0.1633
16415SOL    HW250488   4.021   2.269   2.159  0.2721  0.0971 -0.3483
16416SOL     OW50489   8.295   6.967   7.990  0.0441 -0.1766 -0.6036
16416SOL    HW150490   8.308   6.874   7.975 -2.0628 -0.6411  0.2587
16416SOL    HW250491   8.309   7.007   7.904  0.8009 -1.3109 -1.0155
16417SOL     OW50492   1.900   5.133   3.923 -0.1551 -0.3226  0.2581
16417SOL    HW150493   1.807   5.115   3.910 -0.0202 -0.4956 -0.4716
16417SOL    HW250494   1.917   5.209   3.867  0.4248 -1.0621 -0.5841
16418SOL     OW50495   3.201   2.422   2.681 -0.0688 -0.8184 -0.4163
16418SOL    HW150496   3.289   2.455   2.701  0.1837 -1.5332 -0.3208
16418SOL    HW250497   3.217   2.338   2.639 -0.7420 -1.6219  0.8991
16419SOL     OW50498   2.815   1.258   1.310  0.0147  0.2664  0.0229
16419SOL    HW150499   2.781   1.171   1.331 -1.0413  0.7181  0.2050
16419SOL    HW250500   2.874   1.279   1.383  1.4463 -0.9120 -0.7663
16420SOL     OW50501   0.714   3.093   3.941 -0.2961 -0.1138  0.2514
16420SOL    HW150502   0.713   3.135   3.855 -0.0583  1.5520  1.0388
16420SOL    HW250503   0.624   3.063   3.954 -0.5545  0.4592 -0.1912
16421SOL     OW50504   4.936   2.828   1.907 -0.1457  0.0547  0.1130
16421SOL    HW150505   4.924   2.738   1.938 -1.1172  0.6377  1.4651
16421SOL    HW250506   5.029   2.832   1.882 -0.2690 -1.5261 -0.6608
16422SOL     OW50507   1.102   2.608   1.669  0.0348 -0.1755  0.1409
16422SOL    HW150508   1.049   2.685   1.646 -1.4598 -0.5006  2.3415
16422SOL    HW250509   1.175   2.643   1.719 -0.5590 -0.1510  1.0031
16423SOL     OW50510   4.520   1.207   2.313  0.1268  0.2392  0.1852
16423SOL    HW150511   4.474   1.201   2.230  0.0228 -0.1445  0.2721
16423SOL    HW250512   4.560   1.294   2.312 -1.0089  0.7814  0.3232
16424SOL     OW50513   0.473   2.283   1.430 -0.1386 -0.3793 -0.1361
16424SOL    HW150514   0.473   2.218   1.501  0.6948  0.3647  0.5530
16424SOL    HW250515   0.425   2.240   1.359  0.2406 -1.6794  0.3707
16425SOL     OW50516   7.221   5.287   6.090  0.3139  0.3446 -0.1227
16425SOL    HW150517   7.202   5.376   6.122  0.9122  0.8599 -1.1761
16425SOL    HW250518   7.276   5.249   6.158  0.7223  1.0701 -0.0346
16426SOL     OW50519   6.065   4.204   0.562 -0.4799 -0.8993 -0.1003
16426SOL    HW150520   6.100   4.115   0.562 -0.3094 -0.8610 -2.2395
16426SOL    HW250521   5.974   4.195   0.591 -0.8817 -1.9672 -1.6257
16427SOL     OW50522   2.665   2.202   2.454 -0.1478 -0.4553 -0.1511
16427SOL    HW150523   2.619   2.165   2.529  0.5931  0.7278  0.9045
16427SOL    HW250524   2.720   2.271   2.491 -0.3546  0.6744 -1.8815
16428SOL     OW50525   5.950   3.328   1.549  0.1751  0.1402  0.0496
16428SOL    HW150526   5.942   3.403   1.609  0.8433 -0.1095  0.4477
16428SOL    HW250527   6.040   3.298   1.560  0.5949  0.6767 -1.7754
16429SOL     OW50528   2.099   1.448   0.343  0.1057  0.8851 -0.4494
16429SOL    HW150529   2.106   1.475   0.434 -2.7706 -0.2392  0.1334
16429SOL    HW250530   2.133   1.359   0.341  0.8082  1.1483 -0.6375
16430SOL     OW50531   5.468   2.490   0.557 -0.0478  0.3727 -0.3759
16430SOL    HW150532   5.451   2.517   0.647  0.7657  0.5713 -0.2764
16430SOL    HW250533   5.516   2.408   0.565 -2.4497 -1.1214 -0.6781
16431SOL     OW50534   1.099   2.035   5.437 -0.3435  0.0300  0.1314
16431SOL    HW150535   1.066   1.945   5.443 -0.2223  0.0239  0.7523
16431SOL    HW250536   1.082   2.061   5.347 -0.6966 -0.4966  0.0454
16432SOL     OW50537   2.884   0.304   6.965 -0.0785 -0.1603  0.5266
16432SOL    HW150538   2.838   0.224   6.992  1.0513 -0.9684  0.0992
16432SOL    HW250539   2.937   0.328   7.041  0.1520 -0.2407  0.3907
16433SOL     OW50540   6.564   1.233   6.894  0.2389 -0.4079 -0.0037
16433SOL    HW150541   6.623   1.308   6.893 -0.3612  0.0546 -0.7417
16433SOL    HW250542   6.622   1.157   6.893  0.8346  0.0388  0.2966
16434SOL     OW50543   3.179   0.130   7.704 -0.6638 -1.6138  0.1537
16434SOL    HW150544   3.147   0.212   7.741 -0.9302 -1.1951 -0.9775
16434SOL    HW250545   3.227   0.157   7.625 -0.2158 -2.4914  0.1219
16435SOL     OW50546   6.780   2.679   4.739  0.1607  0.1806  0.2636
16435SOL    HW150547   6.818   2.598   4.773 -1.0285  0.0854  1.4195
16435SOL    HW250548   6.694   2.653   4.705 -0.0141  0.8615  0.1685
16436SOL     OW50549   7.774   2.551   4.124 -0.1124 -0.9508  0.5128
16436SOL    HW150550   7.704   2.599   4.168 -1.2055  0.7679 -2.9094
16436SOL    HW250551   7.855   2.593   4.154 -0.8826  0.8717  0.1197
16437SOL     OW50552   6.968   3.219   7.951 -0.1821  0.1068 -0.5312
16437SOL    HW150553   6.963   3.159   7.877 -0.5225  0.8069 -1.0848
16437SOL    HW250554   6.900   3.190   8.011 -0.2583 -0.1355 -0.7335
16438SOL     OW50555   0.020   8.180   6.267 -0.9925  0.0807 -0.0694
16438SOL    HW150556  -0.069   8.156   6.291 -1.1634 -0.3796 -1.1655
16438SOL    HW250557   0.053   8.228   6.344 -2.1379  0.1757  0.3736
16439SOL     OW50558   6.965   2.155   3.980  0.0941  0.2667 -0.1773
16439SOL    HW150559   7.028   2.141   3.909 -0.0631  2.0916 -0.6962
16439SOL    HW250560   6.907   2.079   3.976  1.8555 -1.0999 -0.1220
16440SOL     OW50561   4.213   4.637   6.765 -0.6485 -0.5349 -0.5844
16440SOL    HW150562   4.151   4.698   6.804  0.3277  0.3365 -0.3971
16440SOL    HW250563   4.235   4.576   6.836  0.0220  0.1830 -0.1761
16441SOL     OW50564   1.503   3.190   1.492 -0.3799  0.6982  0.1681
16441SOL    HW150565   1.555   3.111   1.505  0.5909  0.9677 -2.0056
16441SOL    HW250566   1.413   3.162   1.509 -0.0391 -0.8456 -0.4855
16442SOL     OW50567   2.227   2.703   3.444  0.9477  0.0993 -0.3719
16442SOL    HW150568   2.190   2.620   3.414  0.4008 -0.4253  1.6832
16442SOL    HW250569   2.151   2.758   3.460  1.2554  0.5524 -0.4788
16443SOL     OW50570   4.456   5.618   6.249 -0.5698 -0.7294 -0.3463
16443SOL    HW150571   4.395   5.659   6.310  0.8075  0.6331  0.1438
16443SOL    HW250572   4.483   5.538   6.293 -0.0661 -0.0681  0.5931
16444SOL     OW50573   3.096   6.648   4.605 -0.1035 -0.0160 -0.3958
16444SOL    HW150574   3.168   6.657   4.544 -0.1380 -0.0132 -0.4364
16444SOL    HW250575   3.106   6.559   4.640 -0.8146 -0.4643 -1.3310
16445SOL     OW50576   1.840   8.171   5.372 -0.4975 -0.3696 -0.3820
16445SOL    HW150577   1.877   8.093   5.412 -0.2253 -0.0690 -0.0388
16445SOL    HW250578   1.898   8.242   5.400 -1.5149  0.1552  0.4360
16446SOL     OW50579   2.740   7.633   2.379 -0.0853 -0.1963  0.1071
16446SOL    HW150580   2.683   7.706   2.403 -0.4974 -0.8055  1.0071
16446SOL    HW250581   2.682   7.571   2.334  0.1663 -0.1766 -0.2437
16447SOL     OW50582   5.667   1.235   6.967  0.2924 -0.0415  0.1844
16447SOL    HW150583   5.661   1.170   6.897  0.8464  1.7416 -1.5774
16447SOL    HW250584   5.577   1.243   7.000  0.2920 -1.9792  0.7211
16448SOL     OW50585   0.676   7.103   4.814  0.1578  0.1513 -0.2429
16448SOL    HW150586   0.667   7.013   4.782 -0.5635  0.4741 -0.9707
16448SOL    HW250587   0.597   7.117   4.867  0.4876  0.2088  0.2354
16449SOL     OW50588   0.923   0.162   5.716 -0.4448  0.1923  0.7135
16449SOL    HW150589   0.917   0.068   5.728  1.8569 -0.1358 -0.5086
16449SOL    HW250590   0.899   0.199   5.801 -1.3558 -1.4647  1.1981
16450SOL     OW50591   4.696   0.047   6.470  0.1746  0.2578 -0.6358
16450SOL    HW150592   4.780   0.010   6.444 -0.0320 -0.3710 -0.4244
16450SOL    HW250593   4.715   0.095   6.551  0.4521  0.6434 -0.9321
16451SOL     OW50594   4.769   6.659   0.845 -0.4760  0.2127 -0.5263
16451SOL    HW150595   4.718   6.631   0.921  0.6772  1.2031  0.6612
16451SOL    HW250596   4.722   6.625   0.770 -2.3663  0.3155  0.5812
16452SOL     OW50597   2.548   0.419   7.532 -0.5594 -0.1838 -0.4555
16452SOL    HW150598   2.454   0.415   7.549 -0.2124 -0.4076  1.5168
16452SOL    HW250599   2.582   0.334   7.560  0.2032 -0.2194 -1.4394
16453SOL     OW50600   6.358   4.391   5.747  0.0265 -0.4245  0.0276
16453SOL    HW150601   6.413   4.464   5.777  1.2746 -0.9363 -0.9253
16453SOL    HW250602   6.272   4.431   5.731 -0.0018  0.3187  1.9122
16454SOL     OW50603   1.322   0.793   0.649 -0.0989  0.1218 -0.2883
16454SOL    HW150604   1.347   0.769   0.560  0.7079  0.1782 -0.0832
16454SOL    HW250605   1.364   0.878   0.664  0.4842 -0.2813  0.4348
16455SOL     OW50606   5.266   4.271   4.767  0.1436 -0.3387 -0.1885
16455SOL    HW150607   5.292   4.292   4.857  0.7597  1.0116 -0.6525
16455SOL    HW250608   5.208   4.196   4.775  0.2218 -0.2541  1.3371
16456SOL     OW50609   5.809   4.259   3.789  0.5404 -0.6879  0.5264
16456SOL    HW150610   5.729   4.288   3.746 -0.5882 -1.7621  1.8216
16456SOL    HW250611   5.875   4.323   3.764 -0.4679 -0.3714 -1.4178
16457SOL     OW50612   8.055   5.557   5.641  0.0918  0.5037 -0.2153
16457SOL    HW150613   8.092   5.638   5.605  2.7468 -0.0805  1.0465
16457SOL    HW250614   8.082   5.490   5.578 -1.1858  0.4404 -0.6992
16458SOL     OW50615   4.593   1.592   1.635 -0.1017  0.4793 -0.5178
16458SOL    HW150616   4.631   1.608   1.549  0.6625  0.0784 -0.2622
16458SOL    HW250617   4.536   1.667   1.651  0.8316  1.2538 -0.7728
16459SOL     OW50618   4.653   6.206   3.121  0.3031 -0.1660  0.2184
16459SOL    HW150619   4.663   6.187   3.214  0.6940  0.4070  0.2985
16459SOL    HW250620   4.634   6.121   3.081 -0.1899 -0.3600  0.8619
16460SOL     OW50621   5.518   1.460   3.023  0.2339  0.1643 -0.2115
16460SOL    HW150622   5.558   1.543   3.049 -1.0810  0.1175  2.1083
16460SOL    HW250623   5.424   1.475   3.031 -0.0155 -1.5474  0.3333
16461SOL     OW50624   0.325   2.515   7.542 -0.7790  0.3181 -0.0639
16461SOL    HW150625   0.273   2.568   7.482  1.2103  0.9862 -1.2586
16461SOL    HW250626   0.416   2.541   7.524 -0.0637 -0.3241  2.4128
16462SOL     OW50627   2.684   2.756   1.692 -0.0523  0.3397 -0.2496
16462SOL    HW150628   2.732   2.793   1.766 -0.9221  0.4580  0.2607
16462SOL    HW250629   2.618   2.699   1.731 -1.1152  1.1068 -0.8778
16463SOL     OW50630   5.919   7.978   5.981  0.1619  0.1615 -0.0637
16463SOL    HW150631   5.971   8.056   6.000  0.0326  0.6189 -1.5245
16463SOL    HW250632   5.957   7.910   6.035  0.3370  1.2218  1.1592
16464SOL     OW50633   1.843   1.717   0.770 -0.2578 -0.0521 -0.0561
16464SOL    HW150634   1.820   1.628   0.796 -0.0994  0.0119  0.3245
16464SOL    HW250635   1.902   1.747   0.840  2.1588 -0.7463 -1.7438
16465SOL     OW50636   6.333   1.661   1.316 -0.2633  0.1130 -0.1691
16465SOL    HW150637   6.367   1.734   1.265  0.9327 -0.5775 -0.3737
16465SOL    HW250638   6.240   1.657   1.293 -0.3705  1.6316 -0.0630
16466SOL     OW50639   7.346   2.767   6.936  0.4547  0.5839  0.1040
16466SOL    HW150640   7.270   2.727   6.977  1.8770 -0.1572  2.1165
16466SOL    HW250641   7.390   2.696   6.890  1.3666  0.4271  1.1913
16467SOL     OW50642   4.461   7.631   3.523  0.2708 -0.1288  0.2492
16467SOL    HW150643   4.369   7.612   3.506  0.3115 -0.0860 -0.0188
16467SOL    HW250644   4.464   7.651   3.617  0.1604 -1.0627  0.4665
16468SOL     OW50645   6.307   1.637   7.022  0.0202 -0.2807  0.4554
16468SOL    HW150646   6.320   1.618   7.115 -2.8649  1.3911  1.2743
16468SOL    HW250647   6.227   1.590   6.999  1.4318 -1.7921 -1.5857
16469SOL     OW50648   7.700   8.247   6.595 -0.2817 -0.7080 -0.5893
16469SOL    HW150649   7.786   8.269   6.631 -0.4198 -1.3520  0.1318
16469SOL    HW250650   7.639   8.303   6.644 -0.2941 -0.3686 -0.9882
16470SOL     OW50651   3.969   3.299   5.883  0.1022 -0.5125 -0.2654
16470SOL    HW150652   3.989   3.275   5.793 -0.9473 -0.0739 -0.6247
16470SOL    HW250653   3.916   3.379   5.876  0.4106 -0.2078  0.7524
16471SOL     OW50654   6.417   3.130   6.218  0.7066 -0.2325 -0.5023
16471SOL    HW150655   6.324   3.107   6.217  0.2269  1.6768 -1.3705
16471SOL    HW250656   6.424   3.200   6.283  1.4681 -0.1110 -0.7090
16472SOL     OW50657   0.733   0.875   5.856  0.1416  0.0654 -0.6713
16472SOL    HW150658   0.723   0.889   5.950  2.5649  0.5809 -0.4436
16472SOL    HW250659   0.781   0.793   5.849  1.5372  0.9220 -1.3755
16473SOL     OW50660   3.278   4.520   4.183 -0.0212  0.2288 -0.3153
16473SOL    HW150661   3.246   4.531   4.273  0.8347  1.0126 -0.0966
16473SOL    HW250662   3.332   4.442   4.186  0.2040  0.3935 -0.0949
16474SOL     OW50663   6.544   0.473   0.266  0.7112  0.0622  0.0623
16474SOL    HW150664   6.609   0.445   0.202  2.0603 -1.3106  1.9658
16474SOL    HW250665   6.474   0.409   0.259  0.2566  0.6620 -0.9306
16475SOL     OW50666   2.390   1.060   7.680 -0.1683 -1.0154  0.5628
16475SOL    HW150667   2.338   1.114   7.619 -0.6404 -1.8694  0.1996
16475SOL    HW250668   2.466   1.033   7.629  0.3628 -0.2142  0.9272
16476SOL     OW50669   1.983   5.450   7.597  0.1346 -0.4244 -0.6305
16476SOL    HW150670   2.037   5.514   7.644  0.3188 -1.6286  0.8681
16476SOL    HW250671   1.894   5.483   7.604  0.3064 -0.0105 -0.4017
16477SOL     OW50672   5.014   1.165   3.661  0.8180  0.0592 -0.3772
16477SOL    HW150673   4.933   1.134   3.621 -0.0623  0.5766  0.9531
16477SOL    HW250674   5.083   1.119   3.615 -0.1626  0.5042 -2.3560
16478SOL     OW50675   5.683   6.916   6.608  0.5518 -0.0533  0.0109
16478SOL    HW150676   5.734   6.835   6.612 -2.2667 -1.8405  2.4016
16478SOL    HW250677   5.727   6.975   6.669 -0.1840 -1.5936  2.1002
16479SOL     OW50678   5.677   4.573   1.286  0.0942 -0.2723 -0.1426
16479SOL    HW150679   5.765   4.535   1.276  0.1289  0.2180 -1.8300
16479SOL    HW250680   5.640   4.526   1.360  0.5767 -2.8183 -1.4372
16480SOL     OW50681   7.792   1.053   6.852  0.4515 -0.4175  0.0581
16480SOL    HW150682   7.782   0.958   6.863 -2.7612 -0.0555  0.7139
16480SOL    HW250683   7.759   1.070   6.764 -0.8526  0.3432  0.6915
16481SOL     OW50684   4.324   5.568   5.773 -0.8356  0.6794  0.8349
16481SOL    HW150685   4.358   5.597   5.858 -0.9267  1.3257  0.6578
16481SOL    HW250686   4.253   5.508   5.795  0.8530 -1.2375  1.2038
16482SOL     OW50687   1.379   8.135   4.905 -0.1347  0.1996  0.6806
16482SOL    HW150688   1.294   8.172   4.880  0.3135 -0.1926 -1.5065
16482SOL    HW250689   1.378   8.046   4.870  1.0777  0.0928  0.8921
16483SOL     OW50690   7.620   3.839   3.019  0.3405  0.1829  0.5557
16483SOL    HW150691   7.566   3.795   2.953 -1.3850  1.4905  1.0609
16483SOL    HW250692   7.560   3.900   3.062  1.5064 -0.4360  3.1549
16484SOL     OW50693   5.636   0.265   1.347  0.7225 -0.3213 -0.0069
16484SOL    HW150694   5.580   0.342   1.335  0.3977 -0.4958  0.3652
16484SOL    HW250695   5.710   0.296   1.399  0.7346 -0.1971 -0.0986
16485SOL     OW50696   3.311   0.938   1.588 -0.2684 -0.0451 -0.1086
16485SOL    HW150697   3.250   0.932   1.662 -1.4143  1.2315 -0.9177
16485SOL    HW250698   3.339   0.848   1.573 -3.6455 -1.0306 -1.0615
16486SOL     OW50699   0.176   2.855   3.915  0.3006 -0.6128  0.5101
16486SOL    HW150700   0.105   2.791   3.903 -0.1086  0.1610 -1.2849
16486SOL    HW250701   0.152   2.928   3.859  2.4213 -0.2387  0.0630
16487SOL     OW50702   0.019   6.054   0.365  0.1123 -0.2129 -0.2484
16487SOL    HW150703   0.078   5.989   0.403  2.1861  0.7613 -1.6888
16487SOL    HW250704   0.039   6.052   0.271 -0.1503  2.1033 -0.3812
16488SOL     OW50705   4.013   5.594   3.689  0.3823 -0.4465 -0.2946
16488SOL    HW150706   4.092   5.594   3.744 -0.8299  0.4036  1.4871
16488SOL    HW250707   4.012   5.507   3.649  1.7708 -0.7682  0.3348
16489SOL     OW50708   5.109   1.219   7.886  0.1627  0.1912 -0.3012
16489SOL    HW150709   5.084   1.197   7.976  0.5374  3.0760  0.5553
16489SOL    HW250710   5.184   1.164   7.868  0.0112 -0.5167  1.1131
16490SOL     OW50711   2.536   0.691   6.023 -0.0914 -0.0410 -0.4187
16490SOL    HW150712   2.496   0.613   5.984 -3.7287  1.2399  0.5846
16490SOL    HW250713   2.606   0.656   6.078 -1.6847 -2.6162  0.0574
16491SOL     OW50714   6.135   7.355   7.118 -0.7443 -0.3330 -0.0962
16491SOL    HW150715   6.124   7.393   7.206 -0.1006 -0.4247  0.0256
16491SOL    HW250716   6.172   7.426   7.066  0.9653 -0.9252  0.2636
16492SOL     OW50717   7.377   6.348   7.763  0.2765 -0.7926  0.2277
16492SOL    HW150718   7.290   6.315   7.739 -0.4849 -0.3643  2.2879
16492SOL    HW250719   7.363   6.441   7.784  0.8750 -1.1424  2.2827
16493SOL     OW50720   4.477   1.659   7.788  0.4190  0.3831 -0.3396
16493SOL    HW150721   4.493   1.612   7.705 -0.2002  0.4762 -0.5125
16493SOL    HW250722   4.398   1.618   7.824 -0.5422  1.7517 -0.8370
16494SOL     OW50723   7.914   3.434   6.856  0.3653  0.6947  0.1252
16494SOL    HW150724   7.999   3.392   6.860  0.4634  0.8868  0.0553
16494SOL    HW250725   7.927   3.509   6.797 -0.9622 -1.9711 -3.8187
16495SOL     OW50726   2.371   5.078   6.463 -0.6926  0.3631 -0.2649
16495SOL    HW150727   2.353   5.170   6.483  1.6223  0.7665  0.0949
16495SOL    HW250728   2.455   5.079   6.417 -0.5087 -1.5944 -0.0224
16496SOL     OW50729   5.569   7.933   6.277  0.2604 -0.0596  0.2604
16496SOL    HW150730   5.523   7.947   6.194 -1.5365  1.4824  1.4560
16496SOL    HW250731   5.603   8.020   6.300 -0.7256 -0.1088  1.9558
16497SOL     OW50732   1.797   3.638   2.256 -0.6509  0.2139  0.2650
16497SOL    HW150733   1.712   3.674   2.284 -1.0361 -0.4506 -0.0339
16497SOL    HW250734   1.777   3.588   2.177  0.2796  1.2583 -0.6368
16498SOL     OW50735   1.409   0.088   3.278 -0.0883 -0.0109  0.2080
16498SOL    HW150736   1.413   0.021   3.346  0.7103  1.0897  1.2715
16498SOL    HW250737   1.318   0.088   3.249 -0.6068  0.0276  1.8000
16499SOL     OW50738   2.929   1.715   6.946  0.3781 -0.0646 -0.1907
16499SOL    HW150739   2.848   1.764   6.960  0.1939 -0.0770 -1.1928
16499SOL    HW250740   2.931   1.698   6.852  1.4269 -0.2755 -0.1358
16500SOL     OW50741   2.315   8.132   3.091  0.0494 -0.5612  0.0181
16500SOL    HW150742   2.407   8.105   3.089  0.2589  0.2081 -2.0804
16500SOL    HW250743   2.266   8.050   3.094  0.7809 -1.0056 -0.0329
16501SOL     OW50744   4.978   7.608   2.322  0.1872  0.5999  0.3245
16501SOL    HW150745   4.986   7.704   2.326  1.3636  0.5056  0.3245
16501SOL    HW250746   4.972   7.589   2.228 -1.1894  0.7527  0.3683
16502SOL     OW50747   3.227   1.508   7.025 -0.0065  0.0183  0.2027
16502SOL    HW150748   3.311   1.554   7.019  0.3881 -0.3643  2.3697
16502SOL    HW250749   3.209   1.502   7.119 -1.6922 -1.2971 -0.1677
16503SOL     OW50750   3.944   6.510   7.025  0.3675 -0.0617  0.1541
16503SOL    HW150751   3.942   6.539   6.933  0.3335 -0.6933 -0.0472
16503SOL    HW250752   3.863   6.462   7.037 -1.4312  3.1843  1.5930
16504SOL     OW50753   1.883   5.079   0.011  0.3891 -0.0390 -0.0336
16504SOL    HW150754   1.881   5.104   0.104 -0.3057 -3.0366  0.8145
16504SOL    HW250755   1.976   5.080  -0.011  0.6648 -0.5871  1.0660
16505SOL     OW50756   6.405   4.363   3.190 -0.2890 -0.2868 -0.0977
16505SOL    HW150757   6.321   4.384   3.231 -0.8664 -0.3250 -1.2705
16505SOL    HW250758   6.430   4.280   3.231 -0.7171 -0.1799  0.3980
16506SOL     OW50759   7.408   7.019   5.941 -0.0367  0.6267  0.8143
16506SOL    HW150760   7.469   6.946   5.933 -0.1313  0.6533 -0.1597
16506SOL    HW250761   7.356   6.998   6.019  0.7052  0.2288  1.2033
16507SOL     OW50762   7.172   4.047   7.115 -0.3755 -0.5967 -0.3536
16507SOL    HW150763   7.191   4.120   7.056 -1.1630  0.4540  0.6809
16507SOL    HW250764   7.258   4.016   7.143 -0.0750  0.8130  0.2789
16508SOL     OW50765   0.431   6.032   4.174  1.1485 -0.4873  0.1863
16508SOL    HW150766   0.435   5.957   4.114 -0.2368  0.1185 -0.6870
16508SOL    HW250767   0.494   6.095   4.138 -0.8030  0.5278 -1.5924
16509SOL     OW50768   3.773   1.485   5.541  0.0008 -0.6554  0.5683
16509SOL    HW150769   3.780   1.439   5.458  1.2352 -0.0243  0.3153
16509SOL    HW250770   3.844   1.450   5.594 -0.4626 -0.6848  1.1824
16510SOL     OW50771   1.136   0.365   1.343 -0.2112 -0.3315 -0.2225
16510SOL    HW150772   1.143   0.445   1.292 -1.6412  0.4786  0.8368
16510SOL    HW250773   1.169   0.297   1.284 -2.4117  0.4789 -2.5058
16511SOL     OW50774   4.276   8.226   4.531 -0.0617  0.1493  0.0410
16511SOL    HW150775   4.313   8.277   4.460  0.8201 -0.8723 -0.2377
16511SOL    HW250776   4.201   8.181   4.492  0.1219 -0.0149 -0.1282
16512SOL     OW50777   0.404   4.039   3.497 -0.3981  0.0197 -0.2260
16512SOL    HW150778   0.452   4.037   3.580  0.1104  0.7489 -0.4933
16512SOL    HW250779   0.344   4.112   3.506 -0.2809  0.1570 -0.5287
16513SOL     OW50780   0.271   6.433   7.366 -0.6894  0.1547 -0.1489
16513SOL    HW150781   0.358   6.395   7.377 -0.6027  0.5767  0.6453
16513SOL    HW250782   0.222   6.367   7.317  0.0532 -0.1105 -0.5526
16514SOL     OW50783   7.042   1.766   3.477  0.2181  0.3323  0.2035
16514SOL    HW150784   7.011   1.679   3.450  1.0245 -0.4594  1.7271
16514SOL    HW250785   7.129   1.749   3.514 -0.9924  1.2341  3.6764
16515SOL     OW50786   1.993   5.577   1.865  0.0662 -0.1811 -0.1387
16515SOL    HW150787   1.899   5.559   1.877  0.2694 -1.6929 -0.6446
16515SOL    HW250788   2.001   5.600   1.773 -0.0231  1.5269  0.2596
16516SOL     OW50789   3.073   5.348   7.739 -0.0303 -0.5462 -0.0301
16516SOL    HW150790   3.091   5.302   7.657 -1.0259 -2.0520  0.5707
16516SOL    HW250791   3.138   5.315   7.800  1.1047  1.0375 -0.3591
16517SOL     OW50792   0.666   6.153   4.822 -0.2585 -0.0015  0.1554
16517SOL    HW150793   0.654   6.166   4.916 -1.1945  0.6352 -0.0477
16517SOL    HW250794   0.638   6.235   4.782  0.7152 -0.0465 -0.6476
16518SOL     OW50795   7.681   1.471   2.788 -0.1966  0.5963  0.5096
16518SOL    HW150796   7.625   1.421   2.728 -0.0445  0.3696  0.5544
16518SOL    HW250797   7.620   1.510   2.851 -0.3170  0.4765  0.4671
16519SOL     OW50798   7.015   4.639   1.356 -0.8532 -0.0113  0.3565
16519SOL    HW150799   6.950   4.709   1.364 -3.6679 -2.6692  1.3868
16519SOL    HW250800   7.014   4.617   1.263 -2.1542 -0.7091  0.5307
16520SOL     OW50801   4.592   1.409   0.386 -0.6283 -0.1603 -0.2692
16520SOL    HW150802   4.574   1.403   0.480 -0.7163 -0.7183 -0.3192
16520SOL    HW250803   4.513   1.374   0.345 -0.6053  0.1220 -0.5513
16521SOL     OW50804   4.964   7.433   4.371 -0.1041 -0.1760  0.0269
16521SOL    HW150805   5.005   7.369   4.429  0.3002 -1.4230 -1.6374
16521SOL    HW250806   4.870   7.416   4.379  0.0307 -1.3472 -0.8379
16522SOL     OW50807   5.120   0.147   2.751  0.6609  0.6018 -0.2386
16522SOL    HW150808   5.051   0.208   2.778 -0.3229 -1.2114  1.4777
16522SOL    HW250809   5.148   0.105   2.833 -0.8918 -3.4923 -1.6790
16523SOL     OW50810   5.169   6.564   6.906  0.2455  0.1810  0.4623
16523SOL    HW150811   5.162   6.472   6.881  1.3157 -0.6163  2.9389
16523SOL    HW250812   5.263   6.579   6.915  0.0667  1.4711  0.2580
16524SOL     OW50813   5.549   4.690   3.566  0.5965  0.0883 -0.5125
16524SOL    HW150814   5.572   4.665   3.477  0.7881  0.2536 -0.5097
16524SOL    HW250815   5.612   4.642   3.621 -0.9731 -1.8374 -0.3287
16525SOL     OW50816   5.051   4.866   3.349 -0.0124  0.3833  0.5785
16525SOL    HW150817   5.092   4.922   3.283  0.5353  0.4849  1.0067
16525SOL    HW250818   4.959   4.893   3.350 -0.6564 -1.4235 -2.0675
16526SOL     OW50819   3.817   4.207   5.262  0.0628  0.0136  0.5486
16526SOL    HW150820   3.830   4.233   5.171 -0.9537  2.9330  1.2002
16526SOL    HW250821   3.904   4.181   5.293  0.6587  0.3285 -0.8483
16527SOL     OW50822   0.719   0.422   7.816  0.0092  0.0755 -0.3570
16527SOL    HW150823   0.650   0.421   7.749 -0.7493  0.3573  0.4081
16527SOL    HW250824   0.755   0.511   7.812  0.3868 -0.0948 -0.8096
16528SOL     OW50825   1.170   6.471   6.280 -0.4831  0.1506  0.1786
16528SOL    HW150826   1.122   6.506   6.206 -0.0335 -0.4346 -0.4053
16528SOL    HW250827   1.107   6.469   6.352 -1.2927 -0.4785 -0.5342
16529SOL     OW50828   3.847   3.689   0.912  0.1817  0.0638 -0.0052
16529SOL    HW150829   3.841   3.714   0.820 -0.5030  0.5211  0.1612
16529SOL    HW250830   3.827   3.595   0.912  1.4313 -0.2035 -0.4681
16530SOL     OW50831   6.620   7.308   5.546 -0.1840  0.4938 -0.0704
16530SOL    HW150832   6.547   7.245   5.547 -0.5358  0.8985 -0.4631
16530SOL    HW250833   6.643   7.317   5.638 -0.5194  0.2367  0.0442
16531SOL     OW50834   7.002   1.723   8.079  0.3465 -0.7319  0.2610
16531SOL    HW150835   6.956   1.771   8.010  2.0208 -0.7868 -0.9160
16531SOL    HW250836   6.932   1.692   8.137 -0.9619  0.6894 -0.5207
16532SOL     OW50837   4.142   6.482   5.032 -0.1595 -0.1553  0.0247
16532SOL    HW150838   4.212   6.490   5.097 -0.3857 -2.0024  0.5226
16532SOL    HW250839   4.101   6.569   5.030 -0.7996 -0.3054  3.1120
16533SOL     OW50840   4.517   1.489   3.288 -0.5201  0.3597 -0.0894
16533SOL    HW150841   4.513   1.398   3.317  0.6943  0.9875  2.0756
16533SOL    HW250842   4.505   1.541   3.367  1.0105  2.1078 -0.9746
16534SOL     OW50843   0.740   6.326   3.106  0.1999 -0.6668  0.2911
16534SOL    HW150844   0.670   6.287   3.054 -0.3591 -0.2398  0.7244
16534SOL    HW250845   0.743   6.274   3.186 -1.8098  1.3057  1.7012
16535SOL     OW50846   5.972   5.688   0.928  0.1819 -0.2221 -0.5217
16535SOL    HW150847   5.950   5.760   0.988  1.1722  0.6279 -1.1606
16535SOL    HW250848   5.888   5.658   0.894 -0.3340 -0.2171  0.7265
16536SOL     OW50849   1.858   4.366   1.561  0.1862 -0.0557 -0.3924
16536SOL    HW150850   1.881   4.365   1.654  1.0612  1.5141 -0.5809
16536SOL    HW250851   1.762   4.367   1.560  0.1718 -0.1673  0.4873
16537SOL     OW50852   1.812   2.902   2.144 -0.1097  0.9032  0.0827
16537SOL    HW150853   1.860   2.939   2.219 -0.1801  1.1413  0.0120
16537SOL    HW250854   1.878   2.890   2.076  0.5141 -2.0074  1.1344
16538SOL     OW50855   3.344   1.302   6.324 -0.7764  0.7619 -0.1006
16538SOL    HW150856   3.322   1.266   6.410  0.5353 -0.7386 -0.3538
16538SOL    HW250857   3.286   1.255   6.264 -0.6622  0.7351 -0.1894
16539SOL     OW50858   7.259   1.613   6.858 -0.0463  0.3295  0.2625
16539SOL    HW150859   7.205   1.640   6.932  0.4770 -0.0236  0.7818
16539SOL    HW250860   7.219   1.532   6.827 -0.8385  0.9935 -0.4587
16540SOL     OW50861   2.486   5.960   6.779 -0.0746  0.3988  0.3848
16540SOL    HW150862   2.573   5.980   6.745 -0.2504  2.1917  0.9036
16540SOL    HW250863   2.465   6.035   6.835 -1.5814 -0.4400  0.9683
16541SOL     OW50864   6.533   6.360   1.973  0.3706  0.6003 -0.0125
16541SOL    HW150865   6.559   6.286   1.918  0.6590  0.2044  0.6502
16541SOL    HW250866   6.591   6.432   1.946  1.8287 -0.1350  1.1149
16542SOL     OW50867   4.346   5.206   7.401 -0.6382 -0.0040  0.0052
16542SOL    HW150868   4.350   5.227   7.307 -1.9175 -0.6257 -0.2025
16542SOL    HW250869   4.356   5.290   7.445 -0.5814  0.3620 -0.6992
16543SOL     OW50870   4.469   2.967   4.549 -0.3526 -0.1810 -0.2622
16543SOL    HW150871   4.497   2.996   4.635 -2.2405 -0.7015  0.5649
16543SOL    HW250872   4.465   2.871   4.555 -1.9819 -0.1480 -0.4139
16544SOL     OW50873   7.500   0.816   1.118 -0.3171  0.2697  0.6695
16544SOL    HW150874   7.582   0.781   1.154 -1.8144 -0.9745  3.0837
16544SOL    HW250875   7.479   0.890   1.176 -0.7260  0.7982 -0.1543
16545SOL     OW50876   1.268   5.199   5.279 -0.0223  0.5182 -0.1731
16545SOL    HW150877   1.266   5.257   5.355 -1.0456  0.5475 -0.2241
16545SOL    HW250878   1.317   5.122   5.310  0.1492  0.8125  0.3076
16546SOL     OW50879   8.255   7.964   1.110 -0.2360 -0.4768  0.0692
16546SOL    HW150880   8.270   8.046   1.063  0.7640  0.3731  1.8211
16546SOL    HW250881   8.164   7.942   1.092 -0.6499  1.2674 -0.0118
16547SOL     OW50882   5.317   8.277   4.002  0.4200  0.4195 -0.0651
16547SOL    HW150883   5.402   8.313   4.026  0.5354  1.1115 -1.4542
16547SOL    HW250884   5.254   8.322   4.058  0.8346  0.8786  0.0287
16548SOL     OW50885   3.372   8.095   7.068 -0.0048  0.0794 -0.3525
16548SOL    HW150886   3.433   8.134   7.006  0.2283  0.7481  0.2885
16548SOL    HW250887   3.415   8.014   7.096 -0.4676 -0.6314 -1.6484
16549SOL     OW50888   5.475   1.078   8.163  0.0896 -0.1589 -0.1170
16549SOL    HW150889   5.553   1.104   8.211 -0.7423 -0.6235  1.5252
16549SOL    HW250890   5.405   1.130   8.201 -0.6077 -0.6069 -0.7620
16550SOL     OW50891   3.337   8.227   2.478  0.5110 -0.6101  0.1866
16550SOL    HW150892   3.396   8.159   2.446  0.3865 -0.0573 -1.2301
16550SOL    HW250893   3.275   8.241   2.407 -0.4354 -0.1223  1.0874
16551SOL     OW50894   8.277   2.065   6.954  0.6505 -1.1053 -0.0151
16551SOL    HW150895   8.281   2.040   6.862  0.6047 -2.1727  0.2668
16551SOL    HW250896   8.289   1.983   7.002  1.5660 -0.4400  0.9380
16552SOL     OW50897   3.299   5.437   6.607 -0.2233 -0.0386  0.0230
16552SOL    HW150898   3.305   5.376   6.533 -1.2814  1.1976 -1.0901
16552SOL    HW250899   3.218   5.413   6.651  1.1612 -1.7762  1.7127
16553SOL     OW50900   3.675   8.266   4.162  0.9049 -0.0942  0.6498
16553SOL    HW150901   3.700   8.340   4.217 -2.3951  0.3003  1.7301
16553SOL    HW250902   3.689   8.189   4.217  1.8235 -0.0796  0.4500
16554SOL     OW50903   1.584   3.299   5.414  0.6464  0.3052 -0.9144
16554SOL    HW150904   1.505   3.321   5.365  0.1829  0.6067 -0.0384
16554SOL    HW250905   1.564   3.324   5.504  1.0886 -1.2665 -0.3758
16555SOL     OW50906   5.884   5.874   4.548  0.3163  0.4451  0.2598
16555SOL    HW150907   5.815   5.813   4.523  0.8886  0.1006 -0.4941
16555SOL    HW250908   5.941   5.824   4.605  0.9595  0.1693 -0.6105
16556SOL     OW50909   2.861   0.013   0.361  0.4515  0.1263  0.1766
16556SOL    HW150910   2.823   0.075   0.299  0.1922  0.4064  0.6159
16556SOL    HW250911   2.834   0.044   0.447 -0.4763 -1.1217  0.3573
16557SOL     OW50912   7.880   3.068   2.210 -0.2270 -0.4963 -0.1873
16557SOL    HW150913   7.887   3.047   2.303  0.4378  0.8695  0.0722
16557SOL    HW250914   7.786   3.057   2.191 -0.5784  0.4109  0.9359
16558SOL     OW50915   4.074   7.801   2.425  0.3131 -0.0349  0.1049
16558SOL    HW150916   4.115   7.846   2.499 -2.0955  1.8385  0.3697
16558SOL    HW250917   4.057   7.712   2.458 -0.6200  0.7322  1.7829
16559SOL     OW50918   8.162   7.549   7.954 -0.0955  0.2636 -0.1597
16559SOL    HW150919   8.119   7.620   7.906  0.1448 -0.1333 -0.9822
16559SOL    HW250920   8.099   7.476   7.949  0.6540 -0.3280 -1.3888
16560SOL     OW50921   2.721   5.285   5.832 -0.2029 -0.1364  0.0266
16560SOL    HW150922   2.803   5.326   5.859 -0.5634 -1.1629  2.9117
16560SOL    HW250923   2.742   5.193   5.819 -0.5901 -0.1252 -0.7135
16561SOL     OW50924   4.366   1.846   1.029 -0.5059  0.9068 -0.0800
16561SOL    HW150925   4.403   1.920   0.982 -0.4265  0.7154 -0.3195
16561SOL    HW250926   4.336   1.883   1.112  0.8038  0.9399  0.3867
16562SOL     OW50927   1.834   1.184   5.133  0.0287  0.0462 -0.2586
16562SOL    HW150928   1.875   1.267   5.160 -1.0389  0.4766  0.0702
16562SOL    HW250929   1.890   1.116   5.171 -0.2574  0.6366  1.2329
16563SOL     OW50930   6.677   5.471   3.193 -0.1254  0.1417  0.0829
16563SOL    HW150931   6.766   5.507   3.190  0.3368 -0.9440  0.2512
16563SOL    HW250932   6.620   5.547   3.191  0.7845  0.8236 -1.3286
16564SOL     OW50933   5.457   6.881   2.200  0.1033  0.0849  0.2629
16564SOL    HW150934   5.477   6.903   2.109  2.3515 -0.5050  0.5789
16564SOL    HW250935   5.431   6.965   2.239 -0.2659  0.4579 -0.7624
16565SOL     OW50936   6.632   2.239   0.340  0.0291 -0.3352  0.0131
16565SOL    HW150937   6.561   2.302   0.353 -0.1552 -0.3049 -1.1265
16565SOL    HW250938   6.676   2.268   0.260  0.2603 -1.3657 -0.2376
16566SOL     OW50939   7.554   5.966   2.854  0.6119  0.1182  0.0599
16566SOL    HW150940   7.537   5.955   2.760 -1.4446  2.6258  0.0659
16566SOL    HW250941   7.647   5.988   2.859  1.2577 -2.1914 -1.1623
16567SOL     OW50942   3.971   1.125   0.067  0.1048 -0.0134  0.0766
16567SOL    HW150943   4.057   1.104   0.029 -0.4246 -0.7498 -0.7356
16567SOL    HW250944   3.974   1.088   0.155  1.4381  1.9289  0.8976
16568SOL     OW50945   0.765   6.517   0.985 -0.6636  0.0129  0.0484
16568SOL    HW150946   0.805   6.553   0.906 -0.6909  0.7292  0.3570
16568SOL    HW250947   0.748   6.425   0.964 -2.3978  0.6454 -1.4457
16569SOL     OW50948   1.766   8.086   1.319 -0.2702  0.0413  0.1136
16569SOL    HW150949   1.700   8.048   1.261 -0.3954 -0.4717  0.5860
16569SOL    HW250950   1.827   8.130   1.260 -0.3995 -0.4726 -0.4055
16570SOL     OW50951   5.586   7.224   5.803  0.1421  0.3118 -0.0142
16570SOL    HW150952   5.512   7.172   5.833 -0.1399  0.2876 -0.7360
16570SOL    HW250953   5.626   7.171   5.733  0.9774  0.2198  0.5244
16571SOL     OW50954   7.776   7.584   4.150 -0.1070  0.2317 -0.0748
16571SOL    HW150955   7.863   7.574   4.187 -0.3806  1.6693  1.0131
16571SOL    HW250956   7.719   7.530   4.206  0.1412 -1.1391 -1.1080
16572SOL     OW50957   6.628   6.385   1.024 -0.0582 -0.9381 -0.1707
16572SOL    HW150958   6.636   6.352   0.935  0.2325  0.4340 -0.6529
16572SOL    HW250959   6.705   6.441   1.037 -0.6505 -0.2860  0.5798
16573SOL     OW50960   7.115   2.650   5.609 -0.2183 -0.1733  0.1715
16573SOL    HW150961   7.081   2.682   5.692 -0.9442 -0.4126 -0.0262
16573SOL    HW250962   7.201   2.690   5.601 -1.4026  2.3249 -0.4402
16574SOL     OW50963   7.592   7.793   6.034  0.3929  0.6002  0.1852
16574SOL    HW150964   7.629   7.880   6.020 -1.5189  1.4659  0.4509
16574SOL    HW250965   7.571   7.790   6.127  0.3538 -0.1127  0.1573
16575SOL     OW50966   0.509   1.766   6.830 -0.5472 -0.0172 -0.6524
16575SOL    HW150967   0.416   1.786   6.823 -1.3225 -2.6524  1.4364
16575SOL    HW250968   0.541   1.823   6.900 -1.1744 -1.0650  0.4756
16576SOL     OW50969   4.986   3.085   4.216 -0.2422  0.4266  0.2042
16576SOL    HW150970   5.032   3.159   4.178 -1.9844  1.6265  0.3848
16576SOL    HW250971   4.895   3.114   4.224 -0.8831 -1.5947  0.6131
16577SOL     OW50972   4.839   8.047   4.824 -0.9494  0.3630  0.1599
16577SOL    HW150973   4.876   8.074   4.740  1.9489 -2.4229  0.4076
16577SOL    HW250974   4.914   8.011   4.872 -3.0538 -0.5799  2.8531
16578SOL     OW50975   1.600   1.667   1.706 -0.1816 -0.3367  0.4416
16578SOL    HW150976   1.524   1.716   1.739 -1.1349 -1.8222  0.5077
16578SOL    HW250977   1.577   1.575   1.721  1.3576 -0.8244 -0.1489
16579SOL     OW50978   3.960   0.317   4.318  0.4407 -0.4545  0.3463
16579SOL    HW150979   3.945   0.229   4.351 -0.2052 -0.4836 -0.0102
16579SOL    HW250980   4.035   0.309   4.260 -0.0064 -0.8981 -0.1790
16580SOL     OW50981   7.151   5.167   2.881 -0.1933  0.6425  0.5619
16580SOL    HW150982   7.216   5.159   2.951 -0.9432  0.5435  1.2527
16580SOL    HW250983   7.144   5.079   2.844  0.2720  0.7149  0.3052
16581SOL     OW50984   0.259   1.557   5.493 -0.4575  0.1444 -0.3445
16581SOL    HW150985   0.240   1.651   5.498  0.0426  0.3137 -1.4333
16581SOL    HW250986   0.196   1.516   5.553 -0.0028  1.2662  0.9149
16582SOL     OW50987   1.770   6.553   5.849  0.1977  0.4306 -0.3334
16582SOL    HW150988   1.724   6.487   5.900 -1.7134  2.2559  0.4010
16582SOL    HW250989   1.826   6.597   5.913 -0.2234  0.9870 -0.3406
16583SOL     OW50990   7.604   2.500   2.817  0.2510  0.1932  0.1212
16583SOL    HW150991   7.554   2.465   2.743 -0.1356  1.4380 -0.2093
16583SOL    HW250992   7.538   2.520   2.883  0.2351  2.4027 -0.5416
16584SOL     OW50993   8.060   1.275   5.535  0.7320  0.3952  0.1791
16584SOL    HW150994   8.124   1.204   5.543  0.6942  0.4296  0.8141
16584SOL    HW250995   7.976   1.233   5.554  0.7355  0.6520  0.7727
16585SOL     OW50996   3.496   1.280   5.516  0.2460 -0.4827  0.1972
16585SOL    HW150997   3.528   1.361   5.557  0.8546  0.0639 -1.3205
16585SOL    HW250998   3.551   1.211   5.554 -0.5644 -0.2513  1.8245
16586SOL     OW50999   5.466   2.720   3.545  0.2330 -0.1439 -0.7152
16586SOL    HW151000   5.523   2.752   3.615 -0.1826 -1.5655  0.2858
16586SOL    HW251001   5.522   2.721   3.467  1.0476  0.3250 -0.1384
16587SOL     OW51002   7.711   7.866   2.133  0.4004  0.7142 -0.5415
16587SOL    HW151003   7.662   7.797   2.177 -0.6283  1.6778 -0.1382
16587SOL    HW251004   7.763   7.907   2.203 -0.2651  1.4232 -0.4588
16588SOL     OW51005   4.957   3.814   5.541 -0.5720  0.5094 -0.1480
16588SOL    HW151006   4.980   3.906   5.548 -1.1949  0.8189 -1.8674
16588SOL    HW251007   4.867   3.809   5.575 -0.7248  0.6263 -0.5354
16589SOL     OW51008   3.067   0.337   3.717  0.1064 -0.1100 -0.2965
16589SOL    HW151009   3.149   0.348   3.670  0.0251  0.3917 -0.3218
16589SOL    HW251010   3.071   0.247   3.751  0.4556 -0.2458 -0.6909
16590SOL     OW51011   0.657   2.259   2.435 -0.1864  0.2928 -0.0965
16590SOL    HW151012   0.742   2.224   2.462  0.3607  1.3242 -0.4801
16590SOL    HW251013   0.676   2.314   2.359 -0.9324  2.0044  0.9200
16591SOL     OW51014   8.250   0.382   2.526  0.2917  0.2367 -0.2733
16591SOL    HW151015   8.316   0.442   2.491  1.1565 -0.7283 -0.3073
16591SOL    HW251016   8.214   0.428   2.602  1.7728  0.3146  0.3981
16592SOL     OW51017   1.759   7.368   5.498  0.5620  0.4999 -0.4540
16592SOL    HW151018   1.730   7.443   5.550  0.5480 -0.2582  0.6281
16592SOL    HW251019   1.850   7.388   5.477  0.5281  0.8662 -0.2536
16593SOL     OW51020   7.523   1.096   1.050 -0.0766  0.1530 -0.8321
16593SOL    HW151021   7.584   1.108   1.123  0.3217 -0.3584 -1.0732
16593SOL    HW251022   7.530   1.177   0.999 -1.6759  1.2398  0.6482
16594SOL     OW51023   4.043   1.790   5.044  0.3448  0.4606  0.1208
16594SOL    HW151024   4.002   1.865   5.087  1.6481  0.3480  1.5937
16594SOL    HW251025   3.970   1.743   5.003 -0.3161  3.4869 -2.3830
16595SOL     OW51026   5.979   1.028   4.800 -0.8798  0.3675 -0.1279
16595SOL    HW151027   5.903   1.054   4.749  0.1456  2.3461 -0.7181
16595SOL    HW251028   5.959   0.941   4.833 -3.1110  0.6169 -0.8161
16596SOL     OW51029   4.750   7.983   0.421  0.1080  0.4046 -0.3129
16596SOL    HW151030   4.786   7.986   0.510  0.6375 -0.3148 -0.5042
16596SOL    HW251031   4.760   8.073   0.389  1.3088  0.3204 -0.1979
16597SOL     OW51032   8.182   2.798   4.546 -0.4123 -0.4189  0.3321
16597SOL    HW151033   8.220   2.729   4.599 -0.6783 -0.8261 -0.0044
16597SOL    HW251034   8.256   2.853   4.521 -0.1292 -0.8698  0.1730
16598SOL     OW51035   2.470   0.563   4.883 -0.2906  0.1885  0.2263
16598SOL    HW151036   2.452   0.471   4.900 -1.8582  0.3644 -0.3705
16598SOL    HW251037   2.548   0.562   4.828  0.7687 -0.6826  1.7105
16599SOL     OW51038   7.585   6.910   3.339 -0.4128  0.3800 -0.1854
16599SOL    HW151039   7.599   6.995   3.382  3.7743 -0.3952  0.2323
16599SOL    HW251040   7.587   6.847   3.411  1.5284 -0.4627 -0.9333
16600SOL     OW51041   4.108   2.922   2.458 -0.3227  0.2037 -0.3561
16600SOL    HW151042   4.127   2.920   2.364  0.3352 -1.3303 -0.2048
16600SOL    HW251043   4.181   2.970   2.496  0.0555 -0.2545 -0.4968
16601SOL     OW51044   1.930   1.474   0.641  0.4955 -0.3723  0.0616
16601SOL    HW151045   1.985   1.396   0.634  0.0140 -0.7723  0.6883
16601SOL    HW251046   1.989   1.547   0.622  1.3645 -0.7519  1.2266
16602SOL     OW51047   1.774   5.854   8.134 -0.2818  0.3654 -0.2832
16602SOL    HW151048   1.683   5.841   8.109 -1.1127  2.1912  1.7070
16602SOL    HW251049   1.790   5.948   8.123  1.2649  0.1313 -0.2484
16603SOL     OW51050   6.616   1.582   6.932 -0.4921 -0.3953  0.5459
16603SOL    HW151051   6.629   1.558   7.024  0.0301  0.1159  0.6081
16603SOL    HW251052   6.521   1.591   6.923 -0.7285 -2.6598  0.4656
16604SOL     OW51053   0.762   6.905   4.213  0.4921 -0.2995 -0.0452
16604SOL    HW151054   0.689   6.919   4.272 -0.8755  1.1133 -2.0026
16604SOL    HW251055   0.836   6.950   4.254 -0.5825  1.1644  0.3045
16605SOL     OW51056   5.657   2.288   2.294 -0.1208  0.1209 -0.2927
16605SOL    HW151057   5.637   2.328   2.378 -0.4945  0.7711 -0.6839
16605SOL    HW251058   5.753   2.292   2.287 -0.0795 -0.0943  0.1766
16606SOL     OW51059   4.697   6.473   0.643 -0.0368 -0.4471 -0.0643
16606SOL    HW151060   4.760   6.445   0.576  1.1785 -0.1231  0.9225
16606SOL    HW251061   4.673   6.392   0.688  0.5251 -0.4323  0.2702
16607SOL     OW51062   2.741   3.187   6.341  0.2982  0.2914  0.3745
16607SOL    HW151063   2.654   3.198   6.303  0.8335  0.2589 -0.8858
16607SOL    HW251064   2.749   3.259   6.404 -0.4725  0.5543  0.1774
16608SOL     OW51065   7.078   6.009   6.968  0.2664 -0.2637 -0.4803
16608SOL    HW151066   7.054   6.051   7.050  0.0854 -0.1516 -0.5886
16608SOL    HW251067   7.119   6.079   6.916  1.0133 -0.5102 -0.2135
16609SOL     OW51068   8.120   1.680   0.424  0.2639 -0.7695  0.6920
16609SOL    HW151069   8.169   1.761   0.407 -1.0995  0.1309  0.9669
16609SOL    HW251070   8.166   1.613   0.373  1.7531  0.0620  0.9224
16610SOL     OW51071   2.063   7.471   0.080 -0.0801  0.0842  0.3813
16610SOL    HW151072   2.062   7.379   0.055  0.1245 -0.6024  2.7691
16610SOL    HW251073   1.979   7.506   0.050  0.1866 -0.6633 -1.2530
16611SOL     OW51074   1.822   0.864   7.411 -0.7147  0.3902 -0.2215
16611SOL    HW151075   1.738   0.819   7.408 -0.7716  0.4618  0.2723
16611SOL    HW251076   1.819   0.925   7.338 -1.3243  0.8053  0.1516
16612SOL     OW51077   4.735   1.081   7.461  0.0251  0.9410  0.2567
16612SOL    HW151078   4.756   1.013   7.398  0.7256  0.7954  0.6441
16612SOL    HW251079   4.795   1.153   7.440  1.7454  0.0783  2.1139
16613SOL     OW51080   6.045   2.813   5.882 -0.7217  0.5075  0.3986
16613SOL    HW151081   6.030   2.908   5.882  2.1721  1.0143  1.5584
16613SOL    HW251082   6.054   2.791   5.975  0.7457 -0.5135  0.0253
16614SOL     OW51083   6.123   7.535   4.828  0.4072 -0.1211 -0.1736
16614SOL    HW151084   6.095   7.538   4.919 -0.9094 -0.1644 -0.5663
16614SOL    HW251085   6.163   7.449   4.818 -2.5428 -1.5317 -0.4881
16615SOL     OW51086   6.392   8.013   3.940  0.1570 -0.3840  0.4572
16615SOL    HW151087   6.388   8.106   3.959 -2.2915  0.1496 -2.4426
16615SOL    HW251088   6.476   8.001   3.894 -0.5495  0.7826 -1.1546
16616SOL     OW51089   1.810   6.448   3.363  0.0164 -0.6626  0.0418
16616SOL    HW151090   1.737   6.489   3.410 -0.2680 -0.3437 -0.6710
16616SOL    HW251091   1.802   6.482   3.273  2.7055  1.6497  0.6127
16617SOL     OW51092   1.213   7.655   2.768  0.1336  0.1143 -0.2507
16617SOL    HW151093   1.229   7.587   2.703  0.9971  0.0937 -0.0309
16617SOL    HW251094   1.214   7.609   2.852 -2.4841 -0.1062 -0.2894
16618SOL     OW51095   4.865   1.125   6.549  0.2229 -0.1057  0.3992
16618SOL    HW151096   4.866   1.037   6.512 -0.7912 -0.2059  0.5933
16618SOL    HW251097   4.861   1.183   6.473 -1.2886 -0.2950  0.3178
16619SOL     OW51098   1.747   7.628   0.248  0.0962 -0.2916  0.3588
16619SOL    HW151099   1.781   7.669   0.169 -0.9043 -0.7688 -0.3392
16619SOL    HW251100   1.676   7.572   0.216  0.3096 -1.2162  1.4880
16620SOL     OW51101   3.634   5.268   6.064 -0.2052 -0.4395 -0.5803
16620SOL    HW151102   3.566   5.326   6.029 -1.8622 -1.6449  0.5836
16620SOL    HW251103   3.622   5.271   6.159  1.1270 -0.9677 -0.3829
16621SOL     OW51104   5.519   3.320   7.449  0.2068  0.2070 -0.0136
16621SOL    HW151105   5.551   3.271   7.374 -0.7491  0.5863 -0.6751
16621SOL    HW251106   5.545   3.411   7.431 -1.7498  0.6231 -0.8574
16622SOL     OW51107   7.469   7.717   0.618  0.3889 -0.7162 -0.3058
16622SOL    HW151108   7.555   7.684   0.645  1.6554  1.4317 -1.6067
16622SOL    HW251109   7.439   7.771   0.692  1.3858  0.7175 -0.9356
16623SOL     OW51110   5.937   4.584   2.515  0.2614  0.0169 -0.3347
16623SOL    HW151111   5.923   4.639   2.592  0.3221  0.3518 -0.5624
16623SOL    HW251112   6.013   4.622   2.471 -0.4304  0.4780 -1.1474
16624SOL     OW51113   1.156   5.969   2.602 -0.2122  0.0400  0.5423
16624SOL    HW151114   1.123   6.056   2.578  0.7359  0.4030  0.5291
16624SOL    HW251115   1.211   5.943   2.528 -4.2010 -2.6604 -1.6782
16625SOL     OW51116   8.182   2.254   2.310 -0.3082  0.0155 -0.1641
16625SOL    HW151117   8.153   2.327   2.365  1.2611  0.2764  0.3318
16625SOL    HW251118   8.201   2.184   2.372  1.3730  0.2777 -0.3572
16626SOL     OW51119   1.590   3.537   0.948 -0.3113 -0.0989  0.3362
16626SOL    HW151120   1.623   3.574   1.030 -1.4429  1.7518  0.0011
16626SOL    HW251121   1.498   3.566   0.945 -0.3668 -0.4285 -1.4172
16627SOL     OW51122   2.008   7.940   3.577 -0.2607  0.3697 -0.1070
16627SOL    HW151123   1.961   7.943   3.493  1.5618  0.9784 -1.1300
16627SOL    HW251124   2.070   7.867   3.567 -1.3016 -0.7576  1.4178
16628SOL     OW51125   7.483   1.723   2.679  0.1746  0.2426  0.3778
16628SOL    HW151126   7.519   1.810   2.698 -2.9754  1.8363 -0.6206
16628SOL    HW251127   7.466   1.685   2.765  0.9514  0.9003  0.8237
16629SOL     OW51128   0.732   3.527   5.567  0.1675  0.3884 -0.3252
16629SOL    HW151129   0.764   3.525   5.657  0.2474  0.9436 -0.3404
16629SOL    HW251130   0.807   3.496   5.515 -0.6481 -2.2828  0.0008
16630SOL     OW51131   8.232   1.005   5.934  0.0707 -0.1395  0.1602
16630SOL    HW151132   8.235   1.077   5.996  0.4492 -0.0579  0.0494
16630SOL    HW251133   8.140   0.998   5.909  0.1122  0.6424 -0.2275
16631SOL     OW51134   5.524   1.229   2.415  0.0118  0.0929  0.2802
16631SOL    HW151135   5.618   1.217   2.407 -0.0811 -0.8418  0.5031
16631SOL    HW251136   5.494   1.153   2.464 -0.4425  1.9104  2.9310
16632SOL     OW51137   7.156   0.019   1.131 -0.4572 -0.3009  0.0515
16632SOL    HW151138   7.224   0.086   1.137 -1.2791  0.6043 -0.3912
16632SOL    HW251139   7.203  -0.064   1.133  0.7628  0.3225 -1.3896
16633SOL     OW51140   4.231   3.800   3.921  0.2285 -0.1527  0.3974
16633SOL    HW151141   4.285   3.874   3.950 -0.4565  1.2019 -1.6477
16633SOL    HW251142   4.279   3.722   3.949  2.5112  1.0453 -0.0991
16634SOL     OW51143   6.925   6.068   4.808  0.3518 -0.3461 -0.5197
16634SOL    HW151144   6.916   5.974   4.824  0.3262 -0.1902  0.4066
16634SOL    HW251145   7.017   6.087   4.829 -0.3217  0.3336  1.9931
16635SOL     OW51146   1.583   3.181   1.834 -0.3488  0.3758  0.2584
16635SOL    HW151147   1.662   3.182   1.889 -0.1869  1.8237  0.0331
16635SOL    HW251148   1.557   3.273   1.829 -1.1166  0.0978 -1.0299
16636SOL     OW51149   5.444   3.229   4.455 -0.1705  0.2176 -0.1375
16636SOL    HW151150   5.472   3.219   4.546  0.5956 -1.7547 -0.5693
16636SOL    HW251151   5.524   3.253   4.408 -0.2963 -0.0457 -0.4900
16637SOL     OW51152   5.714   4.900   4.050  0.1638  0.3364 -0.1141
16637SOL    HW151153   5.642   4.909   3.988 -0.9754  1.0332  1.2712
16637SOL    HW251154   5.702   4.973   4.111  1.0877 -0.4937  1.0819
16638SOL     OW51155   4.801   3.115   2.181 -0.8295 -0.7336 -0.2259
16638SOL    HW151156   4.765   3.032   2.150 -2.4570 -0.3130  0.4724
16638SOL    HW251157   4.803   3.106   2.276 -0.6670 -0.0989 -0.1684
16639SOL     OW51158   5.354   7.409   4.971  0.0818  0.1260 -0.2855
16639SOL    HW151159   5.377   7.420   4.878  0.9702 -1.5925 -0.2959
16639SOL    HW251160   5.386   7.489   5.013  2.7514 -0.5243 -0.9463
16640SOL     OW51161   0.543   2.613   3.445  0.5762 -0.4031  0.2082
16640SOL    HW151162   0.490   2.540   3.477  1.3576 -1.8007 -1.5872
16640SOL    HW251163   0.517   2.622   3.353  1.6992  0.4836 -0.0277
16641SOL     OW51164   5.032   6.156   6.029 -0.7129 -0.5854 -0.3879
16641SOL    HW151165   5.079   6.182   6.108  0.9786  2.1119 -2.2170
16641SOL    HW251166   4.946   6.197   6.037 -0.3600  0.1186 -0.1756
16642SOL     OW51167   7.959   7.453   4.496  0.2885 -0.1085 -0.2112
16642SOL    HW151168   7.914   7.376   4.461  1.4830 -2.1521  2.5793
16642SOL    HW251169   7.943   7.449   4.591  0.5294  2.9916 -0.0004
16643SOL     OW51170   7.141   2.512   3.663  0.0246  0.2955 -0.0916
16643SOL    HW151171   7.197   2.580   3.626  1.1386 -0.2513  0.5792
16643SOL    HW251172   7.157   2.435   3.607  0.6175 -0.1157  0.6443
16644SOL     OW51173   5.406   6.906   4.598 -0.5589  0.1581  0.0315
16644SOL    HW151174   5.386   6.993   4.630 -2.7216  0.3992 -1.8173
16644SOL    HW251175   5.354   6.847   4.652 -0.0295  0.1038  0.4873
16645SOL     OW51176   1.732   6.821   5.235  0.0362 -0.1663 -0.5613
16645SOL    HW151177   1.678   6.834   5.313  0.9977 -1.3348  0.3100
16645SOL    HW251178   1.764   6.908   5.213 -0.8820  0.2870 -0.1239
16646SOL     OW51179   7.283   0.273   6.352  0.5364 -0.6394  0.3971
16646SOL    HW151180   7.356   0.328   6.326 -0.4250  0.4874  0.0221
16646SOL    HW251181   7.275   0.287   6.446  0.6457 -0.5744  0.3970
16647SOL     OW51182   0.079   0.921   1.414 -0.6179  0.3501 -0.5498
16647SOL    HW151183   0.036   0.920   1.328 -2.2540  1.4172  0.2274
16647SOL    HW251184   0.159   0.971   1.400  0.3045 -1.4710 -1.9743
16648SOL     OW51185   4.218   7.694   4.288 -0.3808  0.0252  0.0465
16648SOL    HW151186   4.186   7.779   4.257 -3.7033 -1.1138  0.2170
16648SOL    HW251187   4.221   7.639   4.209  1.7585  0.2279 -0.0623
16649SOL     OW51188   0.354   8.163   0.806  0.0482  0.2341  0.2821
16649SOL    HW151189   0.384   8.253   0.815  0.0196  0.2425  0.2860
16649SOL    HW251190   0.308   8.162   0.721 -0.8996  0.4853  0.7838
16650SOL     OW51191   5.028   5.923   2.872  0.0627  0.1398 -0.5731
16650SOL    HW151192   4.944   5.878   2.881 -0.5451  1.2138 -0.7519
16650SOL    HW251193   5.088   5.856   2.841 -1.2627 -0.1159 -2.6745
16651SOL     OW51194   6.493   6.803   3.917  0.2737  0.0433 -0.0999
16651SOL    HW151195   6.542   6.825   3.996 -0.0114 -1.0128  0.3852
16651SOL    HW251196   6.455   6.885   3.889  1.3060  0.6445  0.2239
16652SOL     OW51197   3.788   0.377   4.125  0.4541  0.2353 -0.1607
16652SOL    HW151198   3.842   0.332   4.060  0.8983  0.7799 -0.1705
16652SOL    HW251199   3.834   0.361   4.208 -0.1428 -0.5104  0.0376
16653SOL     OW51200   4.339   3.862   5.981  0.7150  0.4485 -0.1963
16653SOL    HW151201   4.342   3.888   6.074 -0.9559  2.5353 -0.6788
16653SOL    HW251202   4.332   3.945   5.934 -0.6060 -0.6957 -2.0657
16654SOL     OW51203   3.906   1.902   7.531  0.1129  0.4330 -0.5449
16654SOL    HW151204   3.924   1.910   7.437  0.8409 -0.5122 -0.4931
16654SOL    HW251205   3.983   1.859   7.567 -0.7455 -0.4691  0.2638
16655SOL     OW51206   8.222   1.005   6.896  0.2466  0.1628  0.0347
16655SOL    HW151207   8.293   1.048   6.944  0.1916  0.0039  0.2613
16655SOL    HW251208   8.264   0.930   6.853  0.2120  0.0627  0.1770
16656SOL     OW51209   3.090   3.025   6.141  0.0557  0.4635 -0.7784
16656SOL    HW151210   3.138   3.004   6.221  1.1786  2.1268 -0.9741
16656SOL    HW251211   3.075   2.941   6.098 -0.3968 -0.4200  1.0928
16657SOL     OW51212   6.628   4.642   0.940 -0.1652  0.0181 -0.2669
16657SOL    HW151213   6.604   4.584   0.868 -1.0584  1.6294 -1.2953
16657SOL    HW251214   6.708   4.604   0.976 -0.6471 -1.7528 -1.0180
16658SOL     OW51215   7.186   6.870   1.379  0.1655 -0.6913  0.1480
16658SOL    HW151216   7.180   6.932   1.452 -0.8764 -1.6704  0.9258
16658SOL    HW251217   7.216   6.789   1.419  0.2812 -1.0467 -0.6473
16659SOL     OW51218   5.239   4.846   4.408 -0.0277  0.0260 -0.2411
16659SOL    HW151219   5.312   4.843   4.345  0.9189 -0.4165  0.8675
16659SOL    HW251220   5.279   4.876   4.489 -1.7674  3.4147 -0.5466
16660SOL     OW51221   4.136   3.948   3.498  0.1791  0.3365 -0.4242
16660SOL    HW151222   4.057   3.943   3.552 -0.2715 -0.2239 -1.1282
16660SOL    HW251223   4.114   3.898   3.419  1.1877  0.2993 -0.6814
16661SOL     OW51224   1.931   4.593   3.183 -0.4448  0.1309  0.0666
16661SOL    HW151225   1.884   4.509   3.189  1.6141 -1.0582 -0.2100
16661SOL    HW251226   1.941   4.608   3.090  2.0092 -0.9538  0.1174
16662SOL     OW51227   3.934   5.280   7.561  0.2543 -0.0107 -0.4607
16662SOL    HW151228   3.990   5.237   7.496  2.6587  3.4240 -0.8131
16662SOL    HW251229   3.988   5.285   7.639 -0.5905  0.8621  0.0744
16663SOL     OW51230   7.477   1.036   7.012 -0.1086 -0.6882 -0.1818
16663SOL    HW151231   7.516   1.103   7.068 -0.7965 -0.3764 -0.0682
16663SOL    HW251232   7.399   1.078   6.975 -0.8629 -1.6053  0.3367
16664SOL     OW51233   5.146   3.588   1.770 -0.2134 -0.1356  0.1515
16664SOL    HW151234   5.135   3.613   1.862 -1.7849 -3.2736  0.8665
16664SOL    HW251235   5.073   3.530   1.752  0.3731  0.0364 -2.9665
16665SOL     OW51236   7.606   8.092   7.815  0.1442 -0.1733 -0.1230
16665SOL    HW151237   7.646   8.179   7.815  0.1275 -0.1616 -0.8133
16665SOL    HW251238   7.534   8.099   7.752  1.1632 -1.1632 -1.4040
16666SOL     OW51239   2.586   6.314   3.603  0.3305  0.5213  0.1674
16666SOL    HW151240   2.522   6.272   3.661 -0.6265  1.6107 -0.0879
16666SOL    HW251241   2.557   6.405   3.597  1.1706  0.7191 -0.9869
16667SOL     OW51242   3.163   3.630   5.859  0.3213 -0.0387  0.5752
16667SOL    HW151243   3.101   3.650   5.929  0.2305  0.5110  0.3427
16667SOL    HW251244   3.179   3.536   5.867  1.3054  0.2507  2.1199
16668SOL     OW51245   8.237   6.002   7.678 -0.2068 -0.4235  0.2038
16668SOL    HW151246   8.172   6.023   7.746  0.0129  1.4798 -0.1303
16668SOL    HW251247   8.309   5.962   7.726 -0.2058  0.5818  1.0708
16669SOL     OW51248   6.881   6.800   1.837  0.0223  0.2114 -0.3435
16669SOL    HW151249   6.930   6.842   1.908 -1.3846 -1.7641  1.8781
16669SOL    HW251250   6.820   6.867   1.806 -1.0973  0.3510  2.0713
16670SOL     OW51251   6.212   5.157   4.890 -0.4079  0.4392  0.5737
16670SOL    HW151252   6.191   5.105   4.813 -0.8127 -0.9063  1.5532
16670SOL    HW251253   6.275   5.103   4.938  2.0931  2.5560 -0.2506
16671SOL     OW51254   2.797   6.949   0.618 -0.2484  0.2590  0.3551
16671SOL    HW151255   2.798   6.916   0.529 -0.3032 -0.4442  0.6159
16671SOL    HW251256   2.776   7.042   0.609  0.7905  0.4330 -0.4438
16672SOL     OW51257   7.341   7.165   4.007  0.0920 -0.2543  0.1122
16672SOL    HW151258   7.339   7.116   3.925 -3.2166 -0.1166  0.0339
16672SOL    HW251259   7.382   7.105   4.069 -0.6490 -1.7786 -0.8344
16673SOL     OW51260   5.434   6.989   1.333  0.1583  0.0908  0.1094
16673SOL    HW151261   5.423   7.074   1.291  1.6272  0.4158  0.3367
16673SOL    HW251262   5.442   7.009   1.426  3.6529  0.0592 -0.1049
16674SOL     OW51263   6.600   5.997   4.164 -0.2423  0.1139 -0.3647
16674SOL    HW151264   6.537   6.033   4.226 -2.0001 -0.7403 -1.5968
16674SOL    HW251265   6.671   5.962   4.218 -0.0512  2.4961  0.9773
16675SOL     OW51266   0.822   7.844   4.298 -0.0780  0.0094 -0.1210
16675SOL    HW151267   0.793   7.924   4.341 -1.9216 -0.4704 -0.4310
16675SOL    HW251268   0.914   7.835   4.323 -0.3302  1.2853  1.3324
16676SOL     OW51269   4.835   1.638   6.123  0.3047 -0.0555 -0.3807
16676SOL    HW151270   4.836   1.716   6.067  1.4037  1.5313  1.7426
16676SOL    HW251271   4.857   1.672   6.210  0.3741 -2.7005  0.6633
16677SOL     OW51272   4.075   5.271   3.553  0.9900  0.1405  0.3459
16677SOL    HW151273   4.113   5.183   3.564  2.0401  0.5701  0.2292
16677SOL    HW251274   4.025   5.285   3.634  1.7220 -0.1336  0.8604
16678SOL     OW51275   7.351   5.092   4.886 -0.3889 -0.1093 -0.1766
16678SOL    HW151276   7.292   5.077   4.812 -1.6310  0.5138  0.6769
16678SOL    HW251277   7.322   5.175   4.924 -0.0306 -0.6245  1.2628
16679SOL     OW51278   2.207   5.084   0.658 -0.4334  0.5575 -0.5978
16679SOL    HW151279   2.136   5.147   0.645 -1.1495 -0.1935 -0.2915
16679SOL    HW251280   2.192   5.017   0.592  0.8581  1.1598 -1.5330
16680SOL     OW51281   5.253   0.165   1.000 -0.3721  1.1204  0.0829
16680SOL    HW151282   5.227   0.079   1.033 -1.8456  0.9009 -1.5606
16680SOL    HW251283   5.199   0.227   1.048  0.1386  1.0660  0.7229
16681SOL     OW51284   2.296   2.186   5.293 -0.7080 -0.0272  0.2904
16681SOL    HW151285   2.226   2.180   5.227  1.4047  2.4658 -2.3523
16681SOL    HW251286   2.283   2.273   5.332 -0.1418 -0.2712  1.0170
16682SOL     OW51287   0.277   7.467   8.124  0.0387 -0.6608  0.8324
16682SOL    HW151288   0.257   7.511   8.207  0.7086 -0.4572  0.8883
16682SOL    HW251289   0.324   7.387   8.150 -0.1732 -0.8376  0.6729
16683SOL     OW51290   7.747   8.232   3.739 -0.0287  0.1294  0.0884
16683SOL    HW151291   7.717   8.273   3.820  1.3136 -1.8529  1.6094
16683SOL    HW251292   7.727   8.139   3.750 -1.4060  0.0512 -2.5951
16684SOL     OW51293   6.530   1.972   0.129 -0.3962 -0.2037  0.0677
16684SOL    HW151294   6.560   1.910   0.196  2.2057 -0.3387 -1.1315
16684SOL    HW251295   6.478   1.920   0.068 -0.9942 -0.5077  0.8353
16685SOL     OW51296   7.974   6.591   4.455  0.1638  0.3397 -0.9909
16685SOL    HW151297   7.928   6.578   4.372 -2.0665 -1.8208  0.5001
16685SOL    HW251298   7.963   6.684   4.474 -1.5163  0.3540 -1.9046
16686SOL     OW51299   6.163   2.195   0.570 -0.1290 -0.0651  0.2486
16686SOL    HW151300   6.243   2.164   0.612  0.1121 -0.5910 -0.5741
16686SOL    HW251301   6.194   2.247   0.496 -0.5458  0.8630  0.7284
16687SOL     OW51302   1.975   7.270   1.334 -0.2218 -0.0852  0.4217
16687SOL    HW151303   1.976   7.366   1.329  0.7155 -0.1443 -0.5305
16687SOL    HW251304   1.916   7.243   1.263  1.0429 -0.2815 -0.5785
16688SOL     OW51305   2.657   1.172   0.543 -0.8617  0.3738 -0.2526
16688SOL    HW151306   2.590   1.124   0.591 -1.4808 -0.2788 -1.7458
16688SOL    HW251307   2.689   1.111   0.477  1.2874  0.6398  0.4763
16689SOL     OW51308   0.841   5.221   0.466  0.6010  0.6339 -0.4113
16689SOL    HW151309   0.883   5.164   0.402  1.0814  0.8686 -0.3137
16689SOL    HW251310   0.861   5.180   0.551  0.2838  0.5235 -0.3925
16690SOL     OW51311   6.703   5.599   6.073  0.1060  0.5256  0.0020
16690SOL    HW151312   6.787   5.621   6.033 -0.1564 -0.1953 -0.9624
16690SOL    HW251313   6.638   5.633   6.013 -0.2925  0.7482  0.5618
16691SOL     OW51314   1.517   7.269   7.893  0.1322  0.3362 -0.0647
16691SOL    HW151315   1.548   7.201   7.952  0.3471  0.2969 -0.2209
16691SOL    HW251316   1.501   7.224   7.810 -1.9529  0.0304  0.4710
16692SOL     OW51317   1.435   5.940   4.243 -0.0860  0.5545  0.0467
16692SOL    HW151318   1.451   6.012   4.304  1.4553 -1.9770  2.7629
16692SOL    HW251319   1.340   5.936   4.236 -0.2565  1.5985  1.4574
16693SOL     OW51320   7.852   6.359   3.391 -0.0549 -0.2130 -0.4756
16693SOL    HW151321   7.781   6.314   3.437 -0.1580 -0.0230 -0.4484
16693SOL    HW251322   7.840   6.452   3.413  1.1125 -0.3380  0.7503
16694SOL     OW51323   3.734   5.357   5.740  0.1397 -0.0119  0.1583
16694SOL    HW151324   3.747   5.363   5.646  0.1767 -0.2007  0.1515
16694SOL    HW251325   3.716   5.265   5.756  0.1412  0.0184  0.3364
16695SOL     OW51326   8.054   0.315   5.096 -0.5061 -0.1136 -0.1580
16695SOL    HW151327   8.088   0.400   5.066  0.0290 -0.8049 -1.5490
16695SOL    HW251328   8.055   0.260   5.018  1.5288 -2.1660  1.2384
16696SOL     OW51329   5.986   0.177   5.564 -0.2802 -0.3105 -0.2280
16696SOL    HW151330   5.975   0.132   5.648  1.9119  0.3388  0.4257
16696SOL    HW251331   5.896   0.188   5.532 -1.1213 -1.1010  1.7211
16697SOL     OW51332   5.684   6.934   1.683 -0.1241 -0.3591 -0.2178
16697SOL    HW151333   5.620   6.985   1.634  0.0991 -0.5409 -0.6988
16697SOL    HW251334   5.633   6.890   1.751 -0.4529 -0.2000 -0.3625
16698SOL     OW51335   5.623   1.879   5.600 -0.8601  0.3245 -0.1742
16698SOL    HW151336   5.544   1.866   5.652 -0.7738 -0.1389 -0.1594
16698SOL    HW251337   5.608   1.829   5.520 -0.2511 -0.4235  0.1732
16699SOL     OW51338   2.583   0.449   2.505 -0.4002 -0.0188 -0.3540
16699SOL    HW151339   2.645   0.521   2.502 -0.0680 -0.1991  2.0118
16699SOL    HW251340   2.542   0.455   2.591  0.3546 -3.2682  0.2806
16700SOL     OW51341   5.662   5.268   0.496  0.0757 -0.4237  0.3443
16700SOL    HW151342   5.757   5.255   0.496  0.2086  0.5158 -0.0904
16700SOL    HW251343   5.630   5.211   0.566  0.7463 -2.2598 -0.8201
16701SOL     OW51344   7.425   3.735   3.905 -0.2809  0.0226 -0.6382
16701SOL    HW151345   7.517   3.762   3.903 -0.3245  0.3244  0.7586
16701SOL    HW251346   7.377   3.809   3.868 -0.0318  0.2166 -0.5720
16702SOL     OW51347   5.024   5.129   5.958  0.0750 -0.7988  0.0403
16702SOL    HW151348   4.971   5.055   5.929 -1.1747 -0.3871  1.2523
16702SOL    HW251349   5.080   5.093   6.027 -0.0313 -0.7654  0.1428
16703SOL     OW51350   1.614   0.537   6.624  0.0480 -0.3088 -0.6037
16703SOL    HW151351   1.706   0.562   6.635 -0.4030  1.6633 -1.0020
16703SOL    HW251352   1.613   0.485   6.544  0.9830 -1.2786  0.0103
16704SOL     OW51353   1.317   6.765   6.176  0.3804 -0.2427 -0.5212
16704SOL    HW151354   1.230   6.729   6.162  0.6861 -0.9720 -0.6241
16704SOL    HW251355   1.317   6.850   6.132 -1.0867  0.9360  1.6758
16705SOL     OW51356   1.561   2.996   0.166  0.1553 -0.2313 -0.3599
16705SOL    HW151357   1.638   3.043   0.134  0.8270  0.2186  1.8420
16705SOL    HW251358   1.596   2.916   0.204 -0.4642 -0.0880  0.5354
16706SOL     OW51359   6.480   1.946   3.497 -0.0436 -0.5835  0.1115
16706SOL    HW151360   6.443   2.024   3.457  0.3098  0.8911  2.5534
16706SOL    HW251361   6.564   1.934   3.453  0.7751  1.5806  1.0081
16707SOL     OW51362   2.889   1.713   7.996 -0.4266  0.1144  0.7072
16707SOL    HW151363   2.833   1.637   8.007 -0.0923 -0.1036  0.9236
16707SOL    HW251364   2.966   1.695   8.051  0.3222 -0.0630 -0.3764
16708SOL     OW51365   6.587   4.300   4.330 -0.0975 -0.1367  0.6417
16708SOL    HW151366   6.644   4.286   4.405  0.1676 -1.6801  0.1763
16708SOL    HW251367   6.643   4.283   4.254 -0.4191  1.2063  0.0871
16709SOL     OW51368   4.096   5.429   5.812  0.1933 -0.2770  0.3562
16709SOL    HW151369   4.016   5.381   5.790  0.5503 -0.8685  0.3641
16709SOL    HW251370   4.093   5.439   5.907 -1.3340  2.2550  0.1005
16710SOL     OW51371   0.097   4.688   6.137  0.7890 -0.4086 -0.1438
16710SOL    HW151372   0.120   4.780   6.149  0.7227 -0.3196 -0.6633
16710SOL    HW251373   0.017   4.690   6.084 -0.4541 -0.7102  1.6620
16711SOL     OW51374   0.637   2.003   7.470 -0.6654  0.3925  0.3544
16711SOL    HW151375   0.551   2.039   7.447 -0.2562  0.9869 -0.2669
16711SOL    HW251376   0.695   2.079   7.472 -0.3195  0.0978  1.6050
16712SOL     OW51377   3.177   7.239   3.788 -0.7240  0.1756 -0.0148
16712SOL    HW151378   3.255   7.292   3.774  0.6285 -1.7817 -0.1694
16712SOL    HW251379   3.139   7.228   3.701  0.9085 -1.8961 -0.5166
16713SOL     OW51380   1.549   7.199   5.122  0.4601 -0.0324  0.1164
16713SOL    HW151381   1.637   7.161   5.126  0.1647 -0.6878  0.5796
16713SOL    HW251382   1.549   7.268   5.188  0.6282 -0.0319  0.1146
16714SOL     OW51383   7.684   4.756   1.317 -0.2029 -0.2033  0.1994
16714SOL    HW151384   7.674   4.733   1.410 -0.0817  1.0207  0.5219
16714SOL    HW251385   7.706   4.849   1.318  3.5434 -1.0238 -0.8857
16715SOL     OW51386   3.509   2.903   1.400 -0.3689 -0.2566 -0.3005
16715SOL    HW151387   3.443   2.947   1.453 -0.4745  1.2572 -1.6191
16715SOL    HW251388   3.540   2.830   1.454 -0.8335  0.9192  1.5989
16716SOL     OW51389   0.668   6.540   8.116 -0.2280 -0.2843  0.5112
16716SOL    HW151390   0.653   6.530   8.022 -1.7442  0.3732  0.6608
16716SOL    HW251391   0.753   6.583   8.122 -0.5197  0.4828 -0.6051
16717SOL     OW51392   7.275   5.393   5.338 -0.1535  0.1114 -0.6092
16717SOL    HW151393   7.334   5.456   5.380  0.3667 -1.0260  0.3922
16717SOL    HW251394   7.188   5.419   5.369 -0.1134  1.2800 -1.4318
16718SOL     OW51395   2.640   6.264   7.536  0.4396  0.3395 -0.2295
16718SOL    HW151396   2.560   6.315   7.548  0.4708  0.8289 -2.0056
16718SOL    HW251397   2.665   6.280   7.445  2.0768 -0.5043  0.0614
16719SOL     OW51398   0.700   2.470   1.817  0.0466  0.3511 -0.1427
16719SOL    HW151399   0.776   2.421   1.846  0.5677  1.7101  0.8526
16719SOL    HW251400   0.681   2.436   1.729  2.4994  0.8066 -0.8843
16720SOL     OW51401   3.162   4.515   5.440 -0.1228 -0.0874 -0.1386
16720SOL    HW151402   3.090   4.553   5.389  0.9608  1.9924 -0.1718
16720SOL    HW251403   3.121   4.445   5.491 -1.7567 -0.3199 -1.7324
16721SOL     OW51404   7.120   6.935   5.478  0.1458 -0.3293  0.3235
16721SOL    HW151405   7.142   7.006   5.538  0.6806  0.9162 -1.3358
16721SOL    HW251406   7.033   6.958   5.444 -0.0338 -0.8899  0.3915
16722SOL     OW51407   7.197   6.605   6.151  0.0680 -0.2982  0.1535
16722SOL    HW151408   7.185   6.581   6.059 -1.5384  2.3516 -0.3620
16722SOL    HW251409   7.292   6.599   6.165  0.2030 -2.1094 -1.2397
16723SOL     OW51410   5.090   7.242   4.529 -0.5961  0.6000  0.2669
16723SOL    HW151411   5.170   7.294   4.523 -0.9641  1.0145 -1.4127
16723SOL    HW251412   5.113   7.169   4.586  0.7756  1.0735  0.3450
16724SOL     OW51413   4.595   7.253   0.949  0.2543 -0.7085 -0.5360
16724SOL    HW151414   4.590   7.180   1.010 -0.4808 -1.2208 -1.2094
16724SOL    HW251415   4.555   7.221   0.869  2.5767 -0.5544 -1.8115
16725SOL     OW51416   2.996   2.708   6.267  0.4830  0.5978  0.2488
16725SOL    HW151417   2.984   2.785   6.324  3.4456  0.8982  0.5636
16725SOL    HW251418   3.027   2.745   6.184  0.5147 -0.1701 -0.0828
16726SOL     OW51419   5.749   3.494   3.760  0.4593 -0.3671 -0.1391
16726SOL    HW151420   5.805   3.421   3.733 -0.4945 -0.6510 -1.3555
16726SOL    HW251421   5.793   3.572   3.726  0.6772 -0.4968 -0.1571
16727SOL     OW51422   4.159   4.481   6.997 -0.5963  0.0917 -0.0738
16727SOL    HW151423   4.133   4.392   6.975 -3.0226  0.8247 -0.3136
16727SOL    HW251424   4.157   4.484   7.093 -0.5983 -0.1039 -0.0687
16728SOL     OW51425   2.652   6.383   2.800 -0.3537  0.1613  0.5733
16728SOL    HW151426   2.581   6.348   2.745 -0.4015  0.9856  0.1098
16728SOL    HW251427   2.722   6.403   2.738  0.7045 -1.6264  1.1295
16729SOL     OW51428   3.731   2.472   3.012  0.4276  0.2676 -0.3100
16729SOL    HW151429   3.658   2.533   3.024  2.2237  2.5027 -0.3175
16729SOL    HW251430   3.787   2.487   3.088 -0.1313 -2.9667  0.8117
16730SOL     OW51431   8.286   3.410   0.700  0.3336  0.2513  0.6822
16730SOL    HW151432   8.363   3.356   0.682  0.2256  0.5581 -0.7076
16730SOL    HW251433   8.318   3.500   0.696  0.0601  0.3582  0.8827
16731SOL     OW51434   5.736   1.197   3.998 -0.0680 -0.1366 -0.0210
16731SOL    HW151435   5.758   1.207   3.905  1.1625  0.3108  0.3003
16731SOL    HW251436   5.664   1.134   3.999  1.4898 -1.9889 -1.1345
16732SOL     OW51437   6.775   2.864   6.243  0.0064 -0.2753  0.4901
16732SOL    HW151438   6.871   2.866   6.251  0.2987  0.0028 -2.5101
16732SOL    HW251439   6.745   2.933   6.301  1.7521  0.7663  0.2006
16733SOL     OW51440   6.130   6.322   4.155 -0.3982 -0.5443 -0.0225
16733SOL    HW151441   6.102   6.322   4.246 -0.5439 -1.9070 -0.0550
16733SOL    HW251442   6.221   6.293   4.158 -0.0512  0.5139 -0.2157
16734SOL     OW51443   3.642   2.787   5.286  0.3219  0.0739 -0.5652
16734SOL    HW151444   3.555   2.825   5.281  0.3729  0.1163 -1.2570
16734SOL    HW251445   3.661   2.759   5.196 -0.5151 -3.3957  0.2638
16735SOL     OW51446   5.015   2.185   5.757 -0.1894  0.4402  0.1840
16735SOL    HW151447   5.081   2.120   5.780 -0.9231 -0.8405 -1.2415
16735SOL    HW251448   5.051   2.229   5.680 -1.3302 -0.7932 -1.0660
16736SOL     OW51449   6.795   4.559   0.338  0.1641 -0.0235  0.0192
16736SOL    HW151450   6.828   4.646   0.360  0.2087  0.4241 -1.6793
16736SOL    HW251451   6.870   4.516   0.294 -0.0243 -0.7148  0.3674
16737SOL     OW51452   1.415   2.633   7.425 -0.2099 -1.1007 -0.1601
16737SOL    HW151453   1.495   2.685   7.435 -0.2641 -0.7405 -1.4852
16737SOL    HW251454   1.446   2.542   7.427 -0.1235 -1.0623  2.2242
16738SOL     OW51455   4.764   7.751   2.901  0.0021  0.7573 -0.0603
16738SOL    HW151456   4.697   7.703   2.851 -1.2493  2.1171  0.2960
16738SOL    HW251457   4.739   7.738   2.992  1.5440 -0.6251  0.1843
16739SOL     OW51458   0.491   3.138   1.787 -0.3346  0.0395 -0.1400
16739SOL    HW151459   0.430   3.128   1.860  0.1995 -0.3744  0.2532
16739SOL    HW251460   0.546   3.212   1.812  0.6470 -0.8612  0.4642
16740SOL     OW51461   0.732   5.937   4.412  0.2097 -0.3843  0.0373
16740SOL    HW151462   0.677   5.933   4.491  0.7328 -1.6655  0.3384
16740SOL    HW251463   0.774   6.023   4.417  0.5027 -0.5881  1.3424
16741SOL     OW51464   6.115   1.537   4.725 -0.3685  0.2757 -0.2509
16741SOL    HW151465   6.107   1.571   4.636 -0.3037  1.7838  0.3125
16741SOL    HW251466   6.117   1.614   4.781 -0.7726 -0.6678  1.1036
16742SOL     OW51467   4.114   3.066   2.047 -0.3773 -0.5000 -0.1906
16742SOL    HW151468   4.133   3.107   1.963 -0.7680 -0.3731 -0.2153
16742SOL    HW251469   4.186   3.004   2.060  0.0756  0.0105 -0.2691
16743SOL     OW51470   1.467   0.680   3.404 -0.3708  0.0725 -0.5495
16743SOL    HW151471   1.377   0.712   3.400  0.4332  2.2979 -1.4726
16743SOL    HW251472   1.510   0.720   3.328  1.4390 -0.8304 -0.0243
16744SOL     OW51473   3.304   0.874   3.098  0.6273  0.7388  0.1060
16744SOL    HW151474   3.323   0.908   3.186  0.7065 -1.5602  0.9902
16744SOL    HW251475   3.374   0.811   3.081 -1.6585 -1.8969  0.1228
16745SOL     OW51476   6.176   0.344   7.266  0.2049 -0.3361 -0.1823
16745SOL    HW151477   6.093   0.304   7.239 -0.5932 -0.9680  2.9674
16745SOL    HW251478   6.230   0.344   7.187 -1.5169 -3.1967 -1.4369
16746SOL     OW51479   2.589   5.561   5.120 -0.0780 -0.6255  0.3680
16746SOL    HW151480   2.602   5.510   5.040  0.2432  0.3522 -0.2119
16746SOL    HW251481   2.575   5.495   5.188 -2.4513 -1.4435 -0.8478
16747SOL     OW51482   7.497   4.990   7.092  0.4508  0.3756 -0.0398
16747SOL    HW151483   7.504   5.021   7.182 -0.8141  0.0426  0.1884
16747SOL    HW251484   7.432   5.047   7.052  0.7230  0.2735 -0.6282
16748SOL     OW51485   6.345   0.669   8.190 -0.2088 -0.1511 -0.3216
16748SOL    HW151486   6.357   0.697   8.281  0.4722  0.5173 -0.6135
16748SOL    HW251487   6.275   0.726   8.157  0.4665  0.5304 -0.6075
16749SOL     OW51488   1.595   5.163   2.969 -0.2305 -0.1360 -0.2196
16749SOL    HW151489   1.681   5.188   3.002 -0.1105 -2.4557  1.3915
16749SOL    HW251490   1.611   5.082   2.922 -1.6091 -0.9446  0.6706
16750SOL     OW51491   4.069   4.366   0.499  0.1477 -0.0065  0.0465
16750SOL    HW151492   4.067   4.400   0.588  0.4372  1.2654 -0.4147
16750SOL    HW251493   4.006   4.420   0.451  1.3685  0.5769 -0.9273
16751SOL     OW51494   2.233   0.929   7.869 -0.1755 -0.1871 -0.8811
16751SOL    HW151495   2.145   0.965   7.876  0.2941  0.6912  0.8245
16751SOL    HW251496   2.276   0.983   7.804 -0.7238 -0.2497 -1.2988
16752SOL     OW51497   2.099   5.881   6.165 -0.4481  0.1605 -0.4998
16752SOL    HW151498   2.036   5.952   6.181 -1.2305 -0.4912 -0.6571
16752SOL    HW251499   2.094   5.866   6.071  0.4908  0.6019 -0.6255
16753SOL     OW51500   7.193   4.798   1.869  0.1264 -0.3015 -0.6511
16753SOL    HW151501   7.107   4.770   1.836 -0.5123 -0.1542  0.8280
16753SOL    HW251502   7.209   4.740   1.943 -0.0553  1.6024  0.8892
16754SOL     OW51503   3.349   3.230   5.447 -0.0422  0.8405 -0.1720
16754SOL    HW151504   3.430   3.202   5.404 -0.1521 -0.4686  0.4440
16754SOL    HW251505   3.337   3.321   5.419  0.0120  0.1021 -2.7060
16755SOL     OW51506   6.794   6.624   1.392  0.4219 -0.5337  0.0914
16755SOL    HW151507   6.851   6.604   1.466 -1.1143  1.3051  1.8527
16755SOL    HW251508   6.800   6.719   1.382 -0.4238 -0.6061 -1.2720
16756SOL     OW51509   4.538   5.523   5.293 -0.0535  0.1108 -0.1189
16756SOL    HW151510   4.539   5.617   5.309  0.0901 -0.0648  0.9339
16756SOL    HW251511   4.596   5.487   5.360 -1.5178 -0.8877  0.6557
16757SOL     OW51512   5.044   0.379   0.763  0.0101 -0.4009  0.2543
16757SOL    HW151513   5.012   0.331   0.839  0.7060 -0.8918  0.2527
16757SOL    HW251514   5.127   0.336   0.741 -0.3673 -0.5204 -1.0168
16758SOL     OW51515   6.996   7.811   6.485  0.1777 -0.8014 -0.0821
16758SOL    HW151516   6.912   7.766   6.494 -0.8401  1.0564  0.0043
16758SOL    HW251517   7.037   7.770   6.409 -0.6125 -2.0242  0.1390
16759SOL     OW51518   3.202   3.874   3.285 -0.4830 -0.9151 -0.1258
16759SOL    HW151519   3.204   3.795   3.231 -1.4366 -0.8963 -0.1955
16759SOL    HW251520   3.289   3.911   3.276  0.2484 -2.3970  0.5553
16760SOL     OW51521   7.809   0.446   4.158  0.2389 -0.0111 -0.0321
16760SOL    HW151522   7.788   0.419   4.247  0.4460  0.6806  0.2279
16760SOL    HW251523   7.902   0.468   4.161  0.2172  0.1269 -0.3907
16761SOL     OW51524   7.412   2.978   5.977 -0.6600 -0.4283 -0.1318
16761SOL    HW151525   7.479   2.940   6.033 -0.3822  0.3401  0.0571
16761SOL    HW251526   7.383   2.905   5.921  1.9659 -0.2318 -1.8117
16762SOL     OW51527   5.390   4.000   3.717 -0.0348 -0.2000  0.2202
16762SOL    HW151528   5.371   4.073   3.776 -0.2101  0.4336 -0.6090
16762SOL    HW251529   5.419   3.929   3.775  1.9423  1.1155  0.9046
16763SOL     OW51530   2.040   4.168   5.708  0.6777  0.1905  0.4674
16763SOL    HW151531   1.956   4.212   5.719  0.3580 -0.5764  1.1252
16763SOL    HW251532   2.076   4.206   5.628  0.3003  1.4680  0.8803
16764SOL     OW51533   2.685   5.337   6.351  0.3133 -0.4101 -0.1172
16764SOL    HW151534   2.689   5.348   6.446  0.8823  0.7028 -0.2652
16764SOL    HW251535   2.607   5.283   6.336  1.2237 -2.1065  1.0981
16765SOL     OW51536   6.175   0.023   0.132 -0.0906  0.4315 -0.4327
16765SOL    HW151537   6.214  -0.010   0.051 -0.5686 -0.7042 -0.2099
16765SOL    HW251538   6.083  -0.005   0.128 -0.0553  0.1344  0.6295
16766SOL     OW51539   0.143   2.406   1.873 -0.6233 -0.1177  0.3765
16766SOL    HW151540   0.094   2.324   1.880  0.7210 -1.0841 -1.1325
16766SOL    HW251541   0.230   2.385   1.909 -0.0036  0.4021 -0.7881
16767SOL     OW51542   4.834   7.282   4.678 -0.1811  0.6193  0.2466
16767SOL    HW151543   4.797   7.314   4.595  1.9466 -0.5154 -1.1954
16767SOL    HW251544   4.926   7.267   4.659 -0.0495 -1.4614  2.3037
16768SOL     OW51545   0.688   0.728   4.740 -0.2557  0.3567 -0.1177
16768SOL    HW151546   0.695   0.678   4.822  0.4383  1.9631  0.8215
16768SOL    HW251547   0.701   0.663   4.671 -0.5620 -0.9664  1.0495
16769SOL     OW51548   4.895   1.609   7.760 -0.3226 -0.0488 -0.0323
16769SOL    HW151549   4.895   1.614   7.856  0.0547  0.5749 -0.0677
16769SOL    HW251550   4.928   1.694   7.731  0.3897 -0.5542 -0.7057
16770SOL     OW51551   4.703   5.935   1.823 -0.2134  0.0748  0.2255
16770SOL    HW151552   4.688   5.841   1.823 -1.0302  0.1725 -1.8761
16770SOL    HW251553   4.655   5.967   1.746  0.0691  2.1956  0.8927
16771SOL     OW51554   1.571   1.641   4.375  0.3052  0.3328 -0.2080
16771SOL    HW151555   1.616   1.640   4.460 -1.6229 -0.8089  0.8298
16771SOL    HW251556   1.606   1.567   4.328 -1.3417 -1.3368  1.0995
16772SOL     OW51557   3.319   1.548   7.288 -0.7347  0.3010  0.1348
16772SOL    HW151558   3.366   1.631   7.300  0.0977 -0.2694  0.9461
16772SOL    HW251559   3.254   1.546   7.357 -0.1039 -0.1567  0.7233
16773SOL     OW51560   5.852   0.152   0.716  0.2011 -0.8120  0.0607
16773SOL    HW151561   5.802   0.133   0.796  1.8729  0.0463  1.3543
16773SOL    HW251562   5.941   0.165   0.747  1.0048 -1.1030 -2.0614
16774SOL     OW51563   3.863   2.890   0.559 -0.1634 -0.5857 -0.6550
16774SOL    HW151564   3.816   2.820   0.514 -0.4830 -1.0040  0.3158
16774SOL    HW251565   3.845   2.968   0.506 -1.8768 -0.7570 -0.3519
16775SOL     OW51566   4.993   3.948   6.594  0.3565 -0.2395  0.0163
16775SOL    HW151567   5.044   4.005   6.652  0.0136  1.0780 -0.9593
16775SOL    HW251568   4.988   3.996   6.512 -2.6345 -0.2518  0.1546
16776SOL     OW51569   6.167   5.403   7.032  0.0338 -0.1525  0.0107
16776SOL    HW151570   6.233   5.384   7.099 -0.4994  1.1285  0.9215
16776SOL    HW251571   6.089   5.355   7.061  0.3638 -1.1234 -0.7070
16777SOL     OW51572   6.333   0.668   1.773  0.1602  0.3967  0.2542
16777SOL    HW151573   6.275   0.683   1.848 -1.6842  2.0460 -1.4137
16777SOL    HW251574   6.372   0.753   1.755  1.8999 -0.3665  0.3890
16778SOL     OW51575   2.549   3.457   2.135 -0.0484  0.0682 -0.2998
16778SOL    HW151576   2.601   3.467   2.214  0.4245  2.1074 -0.8289
16778SOL    HW251577   2.464   3.425   2.165  0.5718 -0.4972  0.8644
16779SOL     OW51578   2.899   6.671   4.103 -0.4119  0.5100  0.3672
16779SOL    HW151579   2.920   6.586   4.140 -1.7034  0.7560  1.7132
16779SOL    HW251580   2.916   6.733   4.174 -1.1932  1.1752 -0.0169
16780SOL     OW51581   6.074   7.178   6.586 -0.0105  0.2038  0.1090
16780SOL    HW151582   6.066   7.211   6.675 -1.0526 -0.7085  0.3696
16780SOL    HW251583   5.991   7.200   6.544 -0.2172 -0.9005 -0.1009
16781SOL     OW51584   5.861   1.959   6.851 -0.5809  0.6610 -0.2506
16781SOL    HW151585   5.884   1.891   6.915  0.6648  2.3501  1.1467
16781SOL    HW251586   5.945   1.997   6.825 -1.2546  1.5665 -1.1438
16782SOL     OW51587   7.509   2.592   3.261  0.3264  0.6059 -0.0518
16782SOL    HW151588   7.452   2.586   3.337 -1.0345 -0.2573 -1.1238
16782SOL    HW251589   7.459   2.552   3.190  2.6668 -1.1444 -0.7902
16783SOL     OW51590   7.355   2.831   0.595  0.1578  0.2503  0.4004
16783SOL    HW151591   7.284   2.800   0.538  0.7444 -1.3997  0.5554
16783SOL    HW251592   7.415   2.757   0.601  0.5862  0.7471  2.4051
16784SOL     OW51593   2.717   2.959   5.098 -0.0998  0.3690  0.1091
16784SOL    HW151594   2.640   3.011   5.074  1.1272  2.1559 -0.0796
16784SOL    HW251595   2.686   2.901   5.167 -1.8736  0.3195 -0.6919
16785SOL     OW51596   4.785   0.240   2.683  0.5091 -0.0711 -0.1782
16785SOL    HW151597   4.811   0.284   2.602 -2.2896  1.7424 -0.1596
16785SOL    HW251598   4.703   0.196   2.660 -0.6212  0.9602  1.8362
16786SOL     OW51599   4.090   4.127   8.236 -0.3491  0.6399  0.1642
16786SOL    HW151600   4.119   4.219   8.235  0.0143  0.5295  0.5977
16786SOL    HW251601   3.995   4.132   8.221 -0.0173  0.9584 -1.9666
16787SOL     OW51602   0.096   2.301   0.171 -0.4166 -0.3158 -0.5803
16787SOL    HW151603   0.109   2.215   0.210 -0.4335  0.3192  0.8343
16787SOL    HW251604   0.087   2.360   0.245  1.8085  1.2544 -1.4926
16788SOL     OW51605   3.360   5.467   4.169  0.0460  0.0169 -0.1416
16788SOL    HW151606   3.455   5.459   4.164 -0.0741 -1.0621 -0.7499
16788SOL    HW251607   3.342   5.559   4.147  1.0540  0.6488  1.5724
16789SOL     OW51608   3.692   3.019   2.810  0.0160 -0.5301  0.1653
16789SOL    HW151609   3.614   2.993   2.760  0.5568  0.5567 -1.2770
16789SOL    HW251610   3.758   3.040   2.744  1.6197 -1.6339  1.3725
16790SOL     OW51611   3.510   2.605   4.842 -0.5643 -0.5720 -0.2709
16790SOL    HW151612   3.417   2.617   4.858 -0.9347 -2.1654 -1.1089
16790SOL    HW251613   3.514   2.555   4.760  1.0041 -0.7776 -0.0857
16791SOL     OW51614   4.870   7.564   5.422  0.6204 -0.8026  0.0972
16791SOL    HW151615   4.931   7.498   5.389  1.0205  0.6950 -2.2682
16791SOL    HW251616   4.923   7.644   5.430  0.0259 -0.6021  2.4045
16792SOL     OW51617   6.837   2.777   1.778  0.0989  0.3448  0.0427
16792SOL    HW151618   6.792   2.781   1.863  1.6180 -0.0066  0.8770
16792SOL    HW251619   6.887   2.859   1.774  0.0183  0.3645 -0.5184
16793SOL     OW51620   7.387   2.448   5.294 -0.9499  0.2440  0.1765
16793SOL    HW151621   7.423   2.502   5.223 -2.2351 -0.4299 -0.9985
16793SOL    HW251622   7.454   2.453   5.363 -0.2418  1.8974 -0.5888
16794SOL     OW51623   7.817   4.322   1.374 -0.1766 -0.4572 -0.3671
16794SOL    HW151624   7.747   4.383   1.350 -0.7170 -0.3090  1.5293
16794SOL    HW251625   7.779   4.235   1.361 -0.3055 -0.3786 -0.5077
16795SOL     OW51626   5.784   6.045   0.788  0.6404  0.5764  0.6922
16795SOL    HW151627   5.786   5.956   0.753 -0.8270  0.9629 -0.4217
16795SOL    HW251628   5.841   6.094   0.729  1.0131  0.4923  0.9808
16796SOL     OW51629   1.069   3.581   3.846  0.5127  0.0037 -0.2279
16796SOL    HW151630   1.068   3.497   3.892 -0.4122  0.5219  0.7398
16796SOL    HW251631   1.142   3.575   3.785  0.4587 -1.4964 -0.1609
16797SOL     OW51632   1.841   7.478   0.788 -0.2161  0.0730  0.0389
16797SOL    HW151633   1.820   7.387   0.765 -0.1519  0.3533 -1.1566
16797SOL    HW251634   1.806   7.530   0.715  2.5586  0.7414 -0.8724
16798SOL     OW51635   1.560   0.091   3.755  0.2815 -0.0498 -0.5618
16798SOL    HW151636   1.488   0.031   3.776  0.5092 -0.1354 -0.0285
16798SOL    HW251637   1.569   0.145   3.833  1.4041 -0.6346 -0.2847
16799SOL     OW51638   6.705   0.839   2.673 -0.1772 -0.2617  0.1304
16799SOL    HW151639   6.615   0.868   2.658  0.0206  1.8750  2.7295
16799SOL    HW251640   6.697   0.767   2.736 -0.0983 -0.4645 -0.0903
16800SOL     OW51641   6.899   8.105   0.482 -0.0763 -0.0063  0.0381
16800SOL    HW151642   6.878   8.144   0.397 -0.1810 -0.9893 -0.3910
16800SOL    HW251643   6.977   8.052   0.465 -0.0538 -0.1393  0.5707
16801SOL     OW51644   6.482   2.103   5.909 -0.0140  0.3265  0.1601
16801SOL    HW151645   6.441   2.083   5.825  1.3952  0.3953 -0.5431
16801SOL    HW251646   6.410   2.096   5.972 -1.2360  0.9561 -1.1249
16802SOL     OW51647   2.537   6.770   3.224  1.0928 -0.3728 -0.2398
16802SOL    HW151648   2.471   6.753   3.157  0.4643 -0.4999  0.4165
16802SOL    HW251649   2.617   6.728   3.190  0.9253  0.0673 -1.1833
16803SOL     OW51650   0.558   0.897   6.072  0.2371 -0.0581  0.1685
16803SOL    HW151651   0.580   0.964   6.136 -0.6752 -0.7195  1.1777
16803SOL    HW251652   0.463   0.899   6.065  0.4083  1.1241 -2.3835
16804SOL     OW51653   7.641   5.794   7.948  0.0903 -0.1189 -0.1781
16804SOL    HW151654   7.713   5.731   7.947 -0.1793 -0.4413  0.4800
16804SOL    HW251655   7.610   5.796   7.857 -0.2325 -1.3334 -0.1034
16805SOL     OW51656   8.221   4.716   5.023 -0.5773  0.5178 -0.0271
16805SOL    HW151657   8.251   4.656   5.091  0.1556  0.2443 -0.5790
16805SOL    HW251658   8.200   4.659   4.948 -1.7104  0.7798  0.0744
16806SOL     OW51659   1.649   6.801   5.916 -0.3269 -0.2420  0.0885
16806SOL    HW151660   1.623   6.725   5.968 -1.1009 -0.8814 -1.2035
16806SOL    HW251661   1.726   6.771   5.868  0.2984  0.2979  0.7470
16807SOL     OW51662   7.683   1.106   3.761 -0.5950 -0.5338 -0.1037
16807SOL    HW151663   7.724   1.112   3.675 -0.5054  0.5053  0.0003
16807SOL    HW251664   7.659   1.014   3.771 -1.9717 -0.3828 -1.8657
16808SOL     OW51665   5.291   7.362   6.275  0.7566 -0.2343  0.1456
16808SOL    HW151666   5.351   7.329   6.342  0.6953  0.2682  0.4486
16808SOL    HW251667   5.216   7.303   6.280  0.1855  0.5741  1.4162
16809SOL     OW51668   4.369   6.411   0.761  0.3229  0.3592  0.5377
16809SOL    HW151669   4.384   6.318   0.775  1.4783  0.5683  0.6978
16809SOL    HW251670   4.358   6.419   0.666  0.0794  0.0494  0.5362
16810SOL     OW51671   7.195   6.460   5.827  0.0361  0.2231 -0.0773
16810SOL    HW151672   7.224   6.474   5.737 -0.3968  1.5496 -0.0228
16810SOL    HW251673   7.133   6.531   5.843 -0.0931 -0.1707  1.1770
16811SOL     OW51674   6.016   7.300   4.058 -0.8085 -0.3268  0.1004
16811SOL    HW151675   6.018   7.358   4.134 -0.3264 -1.5659  1.0416
16811SOL    HW251676   6.101   7.314   4.015 -1.0708  0.3533 -0.2052
16812SOL     OW51677   5.717   3.428   0.860 -0.2632  0.2047 -0.3572
16812SOL    HW151678   5.708   3.500   0.922 -1.9025  1.1826 -1.6957
16812SOL    HW251679   5.718   3.470   0.774 -1.6806 -1.3690 -1.1781
16813SOL     OW51680   5.556   7.548   1.667  0.8964 -0.2561  0.1905
16813SOL    HW151681   5.566   7.548   1.762  1.4128  0.8699  0.1365
16813SOL    HW251682   5.502   7.625   1.648 -0.5593 -1.3798 -0.2921
16814SOL     OW51683   6.869   4.565   7.494  0.1411 -0.1100  0.3484
16814SOL    HW151684   6.802   4.630   7.474  0.4573 -0.0538 -0.5605
16814SOL    HW251685   6.820   4.489   7.526 -0.3732 -0.1657 -0.5674
16815SOL     OW51686   6.010   4.441   4.548 -0.6602  0.1077 -0.4242
16815SOL    HW151687   5.961   4.359   4.536 -1.6730  0.8027 -1.0630
16815SOL    HW251688   6.097   4.412   4.576 -0.6676 -1.2412 -1.6916
16816SOL     OW51689   5.858   6.687   6.627  0.2817 -0.0656  0.0994
16816SOL    HW151690   5.817   6.683   6.541 -0.2190 -0.8974  0.3779
16816SOL    HW251691   5.936   6.741   6.613  0.1756 -0.1445 -0.8612
16817SOL     OW51692   0.692   4.347   3.847  0.4068 -0.5440  0.1939
16817SOL    HW151693   0.772   4.396   3.828  1.5279 -2.7040 -0.6936
16817SOL    HW251694   0.704   4.316   3.937  0.7656 -1.2704 -0.1076
16818SOL     OW51695   7.883   0.402   8.282  0.5929 -0.1508  0.5917
16818SOL    HW151696   7.906   0.347   8.357  1.8319  0.3664  0.5944
16818SOL    HW251697   7.963   0.407   8.230 -0.0054  0.2429 -0.2989
16819SOL     OW51698   3.498   1.238   3.355 -0.0325  0.0850 -0.3421
16819SOL    HW151699   3.534   1.323   3.332  1.6711 -0.3882  0.5537
16819SOL    HW251700   3.461   1.249   3.442 -1.8006  0.4784 -1.1185
16820SOL     OW51701   1.785   3.172   2.016  0.3295 -0.2121  0.3130
16820SOL    HW151702   1.827   3.254   2.043  0.9856 -0.9264  1.5245
16820SOL    HW251703   1.748   3.136   2.096 -2.2934  0.1819 -0.6634
16821SOL     OW51704   7.646   0.539   4.845  0.7996  0.1572  0.0728
16821SOL    HW151705   7.616   0.627   4.820 -1.3881 -0.2928  1.0284
16821SOL    HW251706   7.625   0.484   4.770 -2.3273 -0.4628  1.3300
16822SOL     OW51707   0.590   4.157   3.325  0.6262 -0.2325 -0.5113
16822SOL    HW151708   0.536   4.092   3.369  3.0814 -1.2252  1.1311
16822SOL    HW251709   0.670   4.111   3.301  1.6527  1.7230 -0.9981
16823SOL     OW51710   5.771   2.496   4.706  0.2245  0.3809 -0.1627
16823SOL    HW151711   5.783   2.536   4.792  1.2882  1.3743 -0.7743
16823SOL    HW251712   5.785   2.402   4.722 -0.9637  0.3848  1.0041
16824SOL     OW51713   0.494   6.429   5.747 -0.8564 -0.5119 -1.1501
16824SOL    HW151714   0.495   6.377   5.827  0.7419 -0.5232 -1.1752
16824SOL    HW251715   0.490   6.364   5.676 -0.0758 -0.5666 -1.1448
16825SOL     OW51716   2.694   1.478   7.958  0.0378 -0.0205  0.1560
16825SOL    HW151717   2.665   1.403   7.905 -1.2433  1.1048 -0.7544
16825SOL    HW251718   2.640   1.473   8.037 -1.3730  1.0114 -0.7290
16826SOL     OW51719   7.413   5.312   1.605 -0.0782  0.2205 -0.2569
16826SOL    HW151720   7.409   5.225   1.565  1.9608  1.0406 -2.3894
16826SOL    HW251721   7.409   5.295   1.699  2.2179 -2.3916 -0.5409
16827SOL     OW51722   6.104   3.535   1.887  0.0968  0.4434  0.7172
16827SOL    HW151723   6.104   3.445   1.921 -1.7227 -0.6723 -2.0619
16827SOL    HW251724   6.185   3.541   1.836  0.1508  0.3236  0.7878
16828SOL     OW51725   3.494   6.930   0.873  0.5141  0.2722 -0.2286
16828SOL    HW151726   3.473   7.009   0.823 -0.1776 -0.8654 -1.8142
16828SOL    HW251727   3.561   6.886   0.821 -0.5767 -1.1917 -0.4307
16829SOL     OW51728   5.051   1.579   8.004  0.1738  0.2008 -0.6272
16829SOL    HW151729   5.069   1.489   8.032  1.3708  1.0242  1.3339
16829SOL    HW251730   5.136   1.615   7.982 -0.2966  0.8765 -1.3416
16830SOL     OW51731   1.324   2.049   7.576  0.5791  0.4547  0.6080
16830SOL    HW151732   1.399   1.991   7.588  0.9067  0.7884  0.1484
16830SOL    HW251733   1.250   1.999   7.611  0.7346 -0.5556 -0.4859
16831SOL     OW51734   1.662   3.321   0.490 -0.1521  0.1492 -0.1532
16831SOL    HW151735   1.755   3.345   0.486 -0.2512  0.4095 -0.9255
16831SOL    HW251736   1.624   3.358   0.410 -1.1839  1.1331  0.7837
16832SOL     OW51737   4.822   6.299   1.447 -0.1964  0.3201  0.4289
16832SOL    HW151738   4.900   6.340   1.484 -0.2510  1.3068 -0.5391
16832SOL    HW251739   4.809   6.220   1.501  3.4902 -1.8033 -1.5426
16833SOL     OW51740   8.177   8.003   6.426  0.0758  0.3505  0.4961
16833SOL    HW151741   8.191   7.928   6.368  0.1994  0.5186  0.3112
16833SOL    HW251742   8.084   8.000   6.447 -0.0571  0.5605 -0.0739
16834SOL     OW51743   2.563   4.275   7.695  0.0092  0.5398 -0.3587
16834SOL    HW151744   2.479   4.306   7.727 -0.4278 -0.9601 -0.0067
16834SOL    HW251745   2.583   4.332   7.621 -1.6134  0.5235 -0.8264
16835SOL     OW51746   1.505   7.207   4.603  0.0471 -0.1656 -0.7287
16835SOL    HW151747   1.495   7.207   4.508  0.6033 -0.6666 -0.7952
16835SOL    HW251748   1.523   7.115   4.625 -0.9596 -0.2073 -0.0427
16836SOL     OW51749   0.422   2.411   2.223 -0.1678 -0.1243 -0.1338
16836SOL    HW151750   0.379   2.342   2.273 -0.8286 -0.3076 -0.9563
16836SOL    HW251751   0.377   2.412   2.139  1.5822 -0.4981 -1.1018
16837SOL     OW51752   3.017   4.866   3.065  0.4714  0.4555 -0.6078
16837SOL    HW151753   3.025   4.795   3.001 -0.8451  0.3099 -0.6241
16837SOL    HW251754   3.018   4.946   3.012 -2.3265  0.2778 -1.0109
16838SOL     OW51755   7.993   3.075   5.399  0.2271 -0.3200  0.2334
16838SOL    HW151756   7.939   3.122   5.336 -1.7952 -1.5063  1.0201
16838SOL    HW251757   8.033   3.143   5.452 -1.1379  0.5787  0.1459
16839SOL     OW51758   8.020   5.797   7.906  0.0262  0.0082  0.1277
16839SOL    HW151759   8.072   5.875   7.924  1.0238 -0.7652  0.6809
16839SOL    HW251760   8.082   5.725   7.914 -0.7601 -0.7969 -0.9194
16840SOL     OW51761   3.680   0.348   6.841 -0.0344  0.5740  0.1501
16840SOL    HW151762   3.771   0.359   6.812  0.6349 -1.6173  1.2801
16840SOL    HW251763   3.638   0.302   6.768 -0.3212  1.8504 -0.4960
16841SOL     OW51764   3.672   6.340   3.952  0.2180  0.5827 -0.2058
16841SOL    HW151765   3.664   6.295   3.868  0.3593 -0.6440  0.4216
16841SOL    HW251766   3.758   6.314   3.984 -0.6818 -0.6537  1.2792
16842SOL     OW51767   5.439   1.307   0.881  0.2170  0.4787 -0.1151
16842SOL    HW151768   5.355   1.301   0.836  0.7963  1.0857 -1.2960
16842SOL    HW251769   5.416   1.317   0.973 -1.0163  1.1822 -0.4839
16843SOL     OW51770   5.192   2.634   7.701  0.7461 -0.0774  0.2676
16843SOL    HW151771   5.097   2.643   7.698  0.6861 -0.7327  0.1576
16843SOL    HW251772   5.223   2.717   7.738  0.0896 -0.1183  0.9230
16844SOL     OW51773   2.072   0.905   5.503 -0.2635  0.1335  0.0502
16844SOL    HW151774   2.092   0.942   5.590 -0.2596 -0.2176  0.1983
16844SOL    HW251775   2.129   0.829   5.496  0.1148  0.4674 -0.4823
16845SOL     OW51776   1.867   6.601   1.346  0.3927 -0.0189 -0.1013
16845SOL    HW151777   1.849   6.549   1.267  0.3309 -3.3648  2.0535
16845SOL    HW251778   1.960   6.587   1.363  0.7929  2.0273 -0.4495
16846SOL     OW51779   8.276   5.030   3.519 -0.0339 -0.0350 -0.3756
16846SOL    HW151780   8.237   4.965   3.577 -2.6662  0.7330 -1.2088
16846SOL    HW251781   8.286   5.108   3.573  0.8040 -0.3831 -0.0290
16847SOL     OW51782   2.337   3.368   3.337  0.1767 -0.2969  0.1150
16847SOL    HW151783   2.396   3.294   3.352  0.0865 -0.8718 -2.1784
16847SOL    HW251784   2.394   3.439   3.307  0.0428  0.0108  0.5846
16848SOL     OW51785   5.132   2.592   3.636  0.4334 -0.0920 -0.0614
16848SOL    HW151786   5.079   2.669   3.657 -0.7226 -1.2078  1.1625
16848SOL    HW251787   5.212   2.603   3.687 -0.3191 -0.3841  1.1871
16849SOL     OW51788   6.560   4.197   0.309  0.0130  0.5864 -0.0376
16849SOL    HW151789   6.581   4.164   0.397  1.2159  0.1721 -0.4691
16849SOL    HW251790   6.584   4.289   0.312  1.6677  0.1960 -0.4202
16850SOL     OW51791   6.969   6.294   5.769  0.1463  0.3829 -0.1687
16850SOL    HW151792   6.984   6.205   5.737  0.4689  0.8628 -1.3778
16850SOL    HW251793   7.056   6.334   5.771  0.0765  0.4903  0.9404
16851SOL     OW51794   1.494   6.571   5.557 -0.5757 -0.2962 -0.2192
16851SOL    HW151795   1.556   6.642   5.541  0.5283 -0.6724  2.0648
16851SOL    HW251796   1.549   6.493   5.564 -1.6797 -1.2159 -1.7066
16852SOL     OW51797   2.121   4.238   3.512 -0.0245 -0.1677  0.2112
16852SOL    HW151798   2.073   4.156   3.520  0.1199 -0.2687  0.0200
16852SOL    HW251799   2.181   4.225   3.439 -0.4533  0.3270 -0.2377
16853SOL     OW51800   1.041   6.973   8.256  0.0078 -0.2041  0.0030
16853SOL    HW151801   1.082   6.913   8.318  0.9703  0.5041  0.0597
16853SOL    HW251802   1.027   7.054   8.306  2.0831  0.8428 -1.0801
16854SOL     OW51803   5.375   6.935   2.970  0.0740  0.1325  0.1313
16854SOL    HW151804   5.414   7.016   3.004  1.8062 -1.2155  1.4459
16854SOL    HW251805   5.419   6.920   2.887  0.7380 -0.1752  0.5354
16855SOL     OW51806   1.246   5.586   4.860 -0.6924 -0.0502 -0.4639
16855SOL    HW151807   1.255   5.535   4.941 -1.8208  0.4769  0.0105
16855SOL    HW251808   1.327   5.569   4.812  0.0974 -0.2123  0.8746
16856SOL     OW51809   8.078   4.713   8.264 -0.2607 -0.9096  0.2194
16856SOL    HW151810   8.085   4.636   8.208  0.0793 -0.8904  0.2343
16856SOL    HW251811   8.167   4.728   8.296 -0.5741 -1.2938  1.2797
16857SOL     OW51812   4.064   3.585   8.024  0.0792  0.6970 -0.7162
16857SOL    HW151813   4.114   3.661   8.055 -0.0927  0.5032  0.0679
16857SOL    HW251814   3.985   3.622   7.984  0.2462  0.9518 -0.8101
16858SOL     OW51815   7.596   2.130   7.078  0.1462  0.1370 -0.0397
16858SOL    HW151816   7.652   2.112   7.154  1.6076  1.3215 -0.8020
16858SOL    HW251817   7.627   2.215   7.046 -1.0209  0.0341 -1.4566
16859SOL     OW51818   0.446   2.348   3.833  0.1063 -0.0092  0.2786
16859SOL    HW151819   0.507   2.278   3.859 -0.2572 -0.2046  0.6193
16859SOL    HW251820   0.495   2.429   3.846 -0.1009 -0.0986  1.7029
16860SOL     OW51821   0.745   8.127   0.741  0.2208 -0.3852 -0.3868
16860SOL    HW151822   0.820   8.073   0.714  1.6131  0.7672  1.0592
16860SOL    HW251823   0.747   8.201   0.682 -1.1731 -1.4557 -1.8138
16861SOL     OW51824   3.567   1.647   5.450 -0.0400 -0.8964  0.5579
16861SOL    HW151825   3.643   1.591   5.465 -0.1341 -0.6011  2.2862
16861SOL    HW251826   3.602   1.735   5.445 -0.0140 -0.9878 -1.0725
16862SOL     OW51827   6.785   7.774   0.276  0.3352  0.1987 -0.0815
16862SOL    HW151828   6.731   7.778   0.355 -1.6311  1.2531 -1.4130
16862SOL    HW251829   6.771   7.686   0.241 -0.5394  0.4535 -0.4001
16863SOL     OW51830   7.989   0.158   2.642  0.1510 -0.2689 -0.5355
16863SOL    HW151831   7.928   0.194   2.578  0.1060  1.5125  0.4762
16863SOL    HW251832   7.941   0.160   2.725  0.3400 -2.2051 -0.3512
16864SOL     OW51833   5.558   6.491   7.971  0.0008  0.1613 -0.3749
16864SOL    HW151834   5.643   6.517   8.004  1.3263 -1.4255 -2.3963
16864SOL    HW251835   5.556   6.396   7.981 -1.3318  0.1237 -0.7820
16865SOL     OW51836   6.351   1.812   7.761  0.3564 -0.1511  0.6195
16865SOL    HW151837   6.360   1.756   7.838 -0.4355  0.2727  1.0294
16865SOL    HW251838   6.279   1.871   7.783  0.9749  0.8282  0.0666
16866SOL     OW51839   2.075   6.879   7.620 -0.2704 -0.2423  0.1466
16866SOL    HW151840   2.071   6.920   7.534  3.0344 -0.0422 -0.0012
16866SOL    HW251841   2.166   6.893   7.649 -0.1831 -3.7456  1.9168
16867SOL     OW51842   6.506   4.541   7.867  0.0911 -0.1509  0.6483
16867SOL    HW151843   6.463   4.472   7.919 -0.2282 -1.2837 -1.0462
16867SOL    HW251844   6.588   4.501   7.838 -0.2850  0.0242 -0.6879
16868SOL     OW51845   6.057   0.856   3.978  0.3259 -0.1697  0.3410
16868SOL    HW151846   6.005   0.869   4.057 -0.9163  0.3632 -0.5489
16868SOL    HW251847   6.145   0.840   4.010 -0.5914 -2.3311  1.9410
16869SOL     OW51848   4.339   7.510   6.473  0.6222 -0.4760 -0.4384
16869SOL    HW151849   4.303   7.425   6.501  0.1966 -0.1982 -0.1432
16869SOL    HW251850   4.431   7.506   6.499  0.8086 -1.1908 -1.2048
16870SOL     OW51851   5.919   7.133   1.046  0.0486  0.5238  0.2198
16870SOL    HW151852   5.920   7.210   1.104  1.2246 -0.0279  0.9618
16870SOL    HW251853   6.000   7.087   1.067  0.2583  0.0500 -1.5439
16871SOL     OW51854   8.055   1.874   6.677 -0.0294  0.1488 -0.3359
16871SOL    HW151855   7.995   1.933   6.723 -0.7185  2.0784 -3.5359
16871SOL    HW251856   7.998   1.804   6.644  0.3794 -0.9376  1.1884
16872SOL     OW51857   6.314   4.526   5.441 -1.1408 -0.1978 -0.7132
16872SOL    HW151858   6.335   4.443   5.397 -1.9174 -1.0563  0.5254
16872SOL    HW251859   6.240   4.505   5.498  0.2690  0.7606  1.4986
16873SOL     OW51860   7.248   8.069   7.234  0.0475 -0.6092 -0.1482
16873SOL    HW151861   7.202   8.137   7.284 -1.6525 -0.7525 -1.4933
16873SOL    HW251862   7.282   8.115   7.157  0.8443 -0.8346  0.0607
16874SOL     OW51863   0.065   4.934   3.875  0.0442 -0.3350 -0.3668
16874SOL    HW151864   0.048   4.869   3.943 -0.4413 -0.7857 -0.9255
16874SOL    HW251865  -0.015   4.985   3.870  0.3712  0.2243 -0.0332
16875SOL     OW51866   2.025   5.399   6.335  0.7159  0.3808  0.0831
16875SOL    HW151867   2.009   5.307   6.355 -1.0506  0.8015  0.6789
16875SOL    HW251868   2.115   5.401   6.303  0.6302 -1.6235 -0.3726
16876SOL     OW51869   8.032   1.955   4.180  0.3951  0.2159 -0.1121
16876SOL    HW151870   8.024   2.046   4.152  2.9211  0.1771 -1.0891
16876SOL    HW251871   8.020   1.957   4.275 -2.1062  1.1908 -0.4049
16877SOL     OW51872   0.370   6.087   3.431  0.1053 -0.2675 -0.0079
16877SOL    HW151873   0.307   6.063   3.363  0.9660 -0.1255 -0.8570
16877SOL    HW251874   0.375   6.010   3.487 -0.3399 -0.5181 -0.3036
16878SOL     OW51875   1.895   6.489   0.320 -0.3289 -0.0514 -0.0299
16878SOL    HW151876   1.952   6.537   0.260  0.5526  0.1980  1.0002
16878SOL    HW251877   1.835   6.556   0.354 -0.4015 -0.0649 -0.1321
16879SOL     OW51878   4.444   1.497   5.766 -0.0083  0.4230 -0.1100
16879SOL    HW151879   4.521   1.447   5.741 -1.2231 -0.5179 -2.1355
16879SOL    HW251880   4.379   1.430   5.788 -0.1126  1.2068  2.0566
16880SOL     OW51881   8.286   5.289   3.633  0.1626 -0.4859  0.1909
16880SOL    HW151882   8.264   5.370   3.679 -0.3519  0.0863 -1.0291
16880SOL    HW251883   8.272   5.309   3.540 -1.4178 -2.3949 -0.0320
16881SOL     OW51884   2.738   8.194   2.111 -0.1136 -0.0417  0.1495
16881SOL    HW151885   2.652   8.187   2.070  0.4276  1.7502 -1.3759
16881SOL    HW251886   2.767   8.104   2.123 -1.9174 -0.6537  0.0953
16882SOL     OW51887   5.617   1.734   3.088 -0.4728  0.0454  0.0857
16882SOL    HW151888   5.637   1.763   2.999 -1.0379  2.6388  0.7716
16882SOL    HW251889   5.686   1.771   3.143 -1.1725  0.0468  0.9826
16883SOL     OW51890   1.720   5.689   1.785 -0.4615 -0.0949  0.4412
16883SOL    HW151891   1.701   5.605   1.827 -1.1082  0.0184  0.3895
16883SOL    HW251892   1.719   5.671   1.691 -0.4917 -0.0543  0.4331
16884SOL     OW51893   5.333   4.887   4.665 -0.2193  0.2081  0.0694
16884SOL    HW151894   5.391   4.960   4.687 -0.3169  0.6207 -1.0267
16884SOL    HW251895   5.353   4.820   4.730  0.9843  0.6100  0.1155
16885SOL     OW51896   6.616   7.438   6.247 -0.3545 -0.0678  0.1442
16885SOL    HW151897   6.659   7.515   6.208 -0.3240 -0.7094 -1.0948
16885SOL    HW251898   6.653   7.433   6.336  0.1095  0.9828  0.0178
16886SOL     OW51899   6.130   8.064   7.063 -0.5846  0.6312 -0.3874
16886SOL    HW151900   6.212   8.080   7.016 -0.2150  1.0315  0.3867
16886SOL    HW251901   6.117   7.969   7.055 -0.0873  0.5747 -0.5750
16887SOL     OW51902   2.484   6.139   6.993 -0.3855 -0.6509 -0.4462
16887SOL    HW151903   2.566   6.090   7.006 -0.2568 -0.4462 -0.4839
16887SOL    HW251904   2.427   6.110   7.063  0.1944  0.2259  0.4024
16888SOL     OW51905   1.559   4.913   6.799  0.3854  0.3886  0.4268
16888SOL    HW151906   1.647   4.946   6.816  0.3666  0.7488 -0.1987
16888SOL    HW251907   1.569   4.818   6.798  0.6508  0.4082  1.0045
16889SOL     OW51908   7.252   2.947   1.144 -0.0974 -0.3657  0.0365
16889SOL    HW151909   7.220   3.001   1.216 -0.8317 -0.5102 -0.1764
16889SOL    HW251910   7.180   2.888   1.124  0.5450 -1.1403 -0.0227
16890SOL     OW51911   7.482   4.325   7.302  0.3188 -0.0230  0.7448
16890SOL    HW151912   7.535   4.399   7.272  1.3678 -0.7752  0.7139
16890SOL    HW251913   7.403   4.330   7.249  1.5156 -0.4690 -1.1206
16891SOL     OW51914   5.118   8.212   2.341  0.2032 -0.9339  0.1660
16891SOL    HW151915   5.174   8.277   2.385 -0.9538 -0.0852  0.4254
16891SOL    HW251916   5.050   8.193   2.406 -1.6216  0.4445 -1.2815
16892SOL     OW51917   0.219   6.002   6.504 -0.5071 -0.2135  0.2396
16892SOL    HW151918   0.265   6.075   6.462  0.7828 -2.6877 -2.7988
16892SOL    HW251919   0.127   6.018   6.484 -0.2688  0.7011 -0.1731
16893SOL     OW51920   5.507   3.440   5.050  0.3711 -0.2499 -0.2569
16893SOL    HW151921   5.589   3.402   5.017 -0.0986 -0.7490 -0.8669
16893SOL    HW251922   5.474   3.375   5.112  0.9907  0.4535  0.8142
16894SOL     OW51923   4.106   4.445   1.470  0.1802  0.3374  0.0510
16894SOL    HW151924   4.129   4.524   1.421  0.5206 -0.6837 -1.4566
16894SOL    HW251925   4.188   4.396   1.477 -0.0462  0.0829  0.9176
16895SOL     OW51926   8.084   2.950   0.983 -0.0359 -0.1043 -0.1126
16895SOL    HW151927   8.028   3.019   1.021  0.4393 -0.2286  0.8106
16895SOL    HW251928   8.121   2.991   0.905 -0.5920  0.3330 -0.1585
16896SOL     OW51929   1.116   0.427   0.943  0.1697 -0.1071  0.4102
16896SOL    HW151930   1.126   0.520   0.922  1.2435 -0.1273  0.7715
16896SOL    HW251931   1.028   0.419   0.978  0.1232  0.8007  0.5111
16897SOL     OW51932   0.951   6.419   6.702 -0.1677 -0.3388 -0.1754
16897SOL    HW151933   0.892   6.367   6.756 -0.2871  0.3463  0.3515
16897SOL    HW251934   1.038   6.403   6.739 -0.1584 -0.4350 -0.2364
16898SOL     OW51935   3.450   7.089   0.220  0.1392 -0.1264  0.1169
16898SOL    HW151936   3.359   7.114   0.201  0.5723  2.6940  1.4902
16898SOL    HW251937   3.501   7.129   0.149  0.5321  0.4486  0.7107
16899SOL     OW51938   5.878   3.377   7.396 -0.5738  0.4734  0.4580
16899SOL    HW151939   5.906   3.451   7.450 -1.3732  0.3670  1.0206
16899SOL    HW251940   5.960   3.334   7.371 -0.2084  0.1283  2.1583
16900SOL     OW51941   2.573   7.592   6.008 -0.4855 -0.5707 -0.2643
16900SOL    HW151942   2.579   7.499   5.990 -0.0172 -0.6694  0.3673
16900SOL    HW251943   2.595   7.634   5.925 -1.7782 -1.0244 -0.8368
16901SOL     OW51944   5.911   6.516   2.928  0.4212 -0.1217  1.0115
16901SOL    HW151945   5.823   6.536   2.896 -0.0300 -0.3687  2.0790
16901SOL    HW251946   5.970   6.555   2.863 -0.4756 -0.9530 -0.3230
16902SOL     OW51947   2.667   6.237   0.279  0.1073 -0.3814  0.1731
16902SOL    HW151948   2.615   6.317   0.287 -0.3138 -0.7962  1.6570
16902SOL    HW251949   2.639   6.199   0.195  0.5358  1.1645 -0.6905
16903SOL     OW51950   8.005   6.606   3.677  0.2522  0.0287 -0.0584
16903SOL    HW151951   8.007   6.518   3.638 -1.0095  0.7330 -1.7676
16903SOL    HW251952   7.965   6.661   3.610 -0.7142  1.5628  1.7373
16904SOL     OW51953   1.981   6.667   0.121 -0.0475 -0.3439 -0.2810
16904SOL    HW151954   2.035   6.721   0.063 -0.3648 -1.1705 -1.3567
16904SOL    HW251955   1.899   6.716   0.130 -0.2231 -0.5019 -1.0149
16905SOL     OW51956   2.058   0.423   4.844  0.1936  0.1136  0.9841
16905SOL    HW151957   2.015   0.348   4.803  1.0162 -0.7963  1.7529
16905SOL    HW251958   2.025   0.424   4.933  0.9281  0.0618  1.2632
16906SOL     OW51959   1.507   6.580   7.245 -0.2188 -0.1631  0.3718
16906SOL    HW151960   1.442   6.510   7.244 -0.0351 -0.3366  0.6021
16906SOL    HW251961   1.507   6.612   7.336  0.0983 -0.2400  0.4015
16907SOL     OW51962   0.822   7.604   1.150 -0.1920  0.6051  0.4062
16907SOL    HW151963   0.778   7.688   1.136 -2.2193 -0.5273 -0.2696
16907SOL    HW251964   0.762   7.539   1.112  1.5017 -1.1116  0.5984
16908SOL     OW51965   1.606   5.489   0.906 -0.2172  0.0901 -0.0910
16908SOL    HW151966   1.517   5.504   0.876  0.0103  0.4594 -0.5943
16908SOL    HW251967   1.655   5.467   0.826  0.0963 -0.3269  0.2088
16909SOL     OW51968   0.488   0.875   5.198 -0.1195 -0.1265  0.0054
16909SOL    HW151969   0.546   0.887   5.123 -1.1384  0.3345 -0.7233
16909SOL    HW251970   0.424   0.810   5.168  0.7325 -1.5462  1.2215
16910SOL     OW51971   4.731   6.318   7.747  0.2810 -0.0251  0.1404
16910SOL    HW151972   4.640   6.345   7.763  0.1350 -1.5912  2.1894
16910SOL    HW251973   4.783   6.371   7.808  0.6192 -0.0204 -0.1491
16911SOL     OW51974   0.831   2.230   0.718  0.9000 -0.4048  0.0729
16911SOL    HW151975   0.872   2.156   0.763  1.4092 -0.3557 -0.3113
16911SOL    HW251976   0.876   2.235   0.634  1.5741  0.9901  0.5064
16912SOL     OW51977   2.156   8.125   1.418 -0.0522  0.2004 -0.0025
16912SOL    HW151978   2.063   8.113   1.434 -0.5948 -0.0097 -3.0656
16912SOL    HW251979   2.178   8.205   1.465 -1.0447 -1.3566  3.2672
16913SOL     OW51980   3.087   5.619   1.815 -0.1070 -0.0683 -0.7235
16913SOL    HW151981   3.154   5.589   1.754 -0.8530 -0.4139 -1.3949
16913SOL    HW251982   3.135   5.654   1.890  0.8029 -0.6816 -1.0232
16914SOL     OW51983   1.510   5.434   2.941 -0.9084  0.0455 -0.1233
16914SOL    HW151984   1.529   5.451   3.033 -0.9228  0.3715 -0.1803
16914SOL    HW251985   1.490   5.340   2.937 -0.7027 -0.0094  0.1699
16915SOL     OW51986   4.696   6.217   1.893 -0.3087  0.2837 -0.0023
16915SOL    HW151987   4.743   6.235   1.975  0.0387 -1.4242  0.1760
16915SOL    HW251988   4.669   6.126   1.900 -0.6790  0.2645 -1.6092
16916SOL     OW51989   6.249   3.123   4.512 -0.1628 -0.4763 -0.7959
16916SOL    HW151990   6.247   3.036   4.472 -2.0633 -0.7322 -0.1953
16916SOL    HW251991   6.335   3.128   4.554  0.4288 -1.5930 -1.8442
16917SOL     OW51992   2.297   0.578   4.543  0.1332 -0.4138 -0.8429
16917SOL    HW151993   2.253   0.595   4.626  0.5148  1.8657 -1.0685
16917SOL    HW251994   2.372   0.523   4.566 -0.9493 -1.5700 -0.0021
16918SOL     OW51995   3.122   2.093   3.976 -0.3493 -0.3653 -0.5048
16918SOL    HW151996   3.122   1.999   3.957 -0.6657 -0.2396 -1.1283
16918SOL    HW251997   3.030   2.114   3.989 -0.2293 -0.2483  0.2000
16919SOL     OW51998   0.871   1.102   3.746  0.4792  0.1172  0.4977
16919SOL    HW151999   0.901   1.046   3.817 -1.2977 -2.4865 -0.7047
16919SOL    HW252000   0.943   1.101   3.683  1.1446  0.5720  1.2482
16920SOL     OW52001   8.051   5.127   1.603 -0.1879 -0.3779 -0.4478
16920SOL    HW152002   8.140   5.156   1.582  0.8086 -4.3752 -2.3589
16920SOL    HW252003   7.994   5.188   1.557  1.5475  1.6541 -0.0067
16921SOL     OW52004   0.739   3.162   4.544  0.1023 -0.3717  0.3604
16921SOL    HW152005   0.699   3.105   4.610 -0.5586 -1.0711 -0.6304
16921SOL    HW252006   0.792   3.102   4.490 -2.0939 -0.4033 -1.8628
16922SOL     OW52007   2.349   1.045   5.947  0.1377  0.1051 -0.1138
16922SOL    HW152008   2.357   0.999   6.030 -0.4684  1.0712  0.4771
16922SOL    HW252009   2.391   1.129   5.961  0.3742  0.1246 -0.9041
16923SOL     OW52010   2.363   7.360   0.220  0.5591 -0.6691 -0.5707
16923SOL    HW152011   2.340   7.445   0.183 -0.5225 -1.4985 -1.8591
16923SOL    HW252012   2.280   7.322   0.248  0.8598 -1.8433 -1.2226
16924SOL     OW52013   6.224   5.223   2.677 -0.2398 -0.4799 -0.0918
16924SOL    HW152014   6.263   5.260   2.598  1.0734 -0.9321  0.3418
16924SOL    HW252015   6.274   5.261   2.749 -1.0480 -0.5243  0.5056
16925SOL     OW52016   5.312   3.374   5.935 -0.1786  0.2901  0.2227
16925SOL    HW152017   5.324   3.396   6.027 -1.3043 -0.4349  0.5597
16925SOL    HW252018   5.335   3.281   5.930  0.1935  0.4088 -0.2903
16926SOL     OW52019   7.001   0.141   5.217 -0.7483 -0.8533 -0.0778
16926SOL    HW152020   7.090   0.169   5.239 -1.2411  0.4306  0.3251
16926SOL    HW252021   6.978   0.191   5.139 -0.9331 -1.5411 -0.4625
16927SOL     OW52022   1.742   3.074   5.393 -0.6658  0.1476 -0.6913
16927SOL    HW152023   1.777   3.056   5.481  3.7124  1.9807 -1.9249
16927SOL    HW252024   1.679   3.144   5.406  1.2675  1.6608  0.8126
16928SOL     OW52025   7.154   5.347   4.631  0.0962 -0.0369 -0.2454
16928SOL    HW152026   7.133   5.255   4.648  1.3227 -0.4889 -1.0579
16928SOL    HW252027   7.227   5.343   4.569 -0.5586  1.4935 -1.1430
16929SOL     OW52028   4.617   0.213   3.499 -1.2499 -0.1272 -0.1532
16929SOL    HW152029   4.603   0.239   3.590 -2.5445 -0.9663 -0.1119
16929SOL    HW252030   4.636   0.296   3.454  1.1923  0.0844  1.1826
16930SOL     OW52031   0.325   2.739   4.107 -0.0733 -0.2154 -0.5990
16930SOL    HW152032   0.292   2.649   4.102  1.6949 -0.7848 -3.1623
16930SOL    HW252033   0.266   2.789   4.051  0.0058 -0.1357 -0.6105
16931SOL     OW52034   4.438   7.276   4.853  0.3104  0.0873 -0.3275
16931SOL    HW152035   4.356   7.232   4.829  0.4216  0.1586 -0.8434
16931SOL    HW252036   4.424   7.368   4.831  0.0501  0.3349  0.8275
16932SOL     OW52037   7.410   1.513   7.214  0.0830 -0.2342 -0.6297
16932SOL    HW152038   7.353   1.475   7.148  2.3917 -2.2407 -1.5245
16932SOL    HW252039   7.477   1.447   7.230  1.0844  1.2792  1.7964
16933SOL     OW52040   2.446   7.033   6.435 -0.2829 -1.3092 -0.1893
16933SOL    HW152041   2.400   7.004   6.356 -0.7182 -2.4303  0.4679
16933SOL    HW252042   2.412   6.977   6.505  2.1071 -2.1965  0.3209
16934SOL     OW52043   7.366   6.388   0.551 -0.0574 -0.0402  0.0184
16934SOL    HW152044   7.365   6.399   0.456  1.3536  0.6569  0.0689
16934SOL    HW252045   7.399   6.472   0.584 -1.9666  0.2705  1.2049
16935SOL     OW52046   4.020   1.524   7.657 -0.1572 -0.5941  0.0279
16935SOL    HW152047   3.996   1.488   7.571 -0.1523 -0.5693  0.0159
16935SOL    HW252048   4.113   1.547   7.648 -0.4374  0.4162 -0.3046
16936SOL     OW52049   3.364   1.173   4.625  0.1835  0.1913 -0.0478
16936SOL    HW152050   3.365   1.196   4.718  1.1235  1.5639 -0.3949
16936SOL    HW252051   3.344   1.079   4.624  3.4483 -0.6119  1.7046
16937SOL     OW52052   3.209   2.395   3.931 -0.6264  0.0134  0.1592
16937SOL    HW152053   3.255   2.479   3.932  1.6538 -1.2147  0.3130
16937SOL    HW252054   3.162   2.394   3.848  0.6531  0.7238 -0.5745
16938SOL     OW52055   5.808   6.796   2.147  0.7403  0.1138 -0.0126
16938SOL    HW152056   5.799   6.885   2.181 -1.4310 -0.2760  0.5396
16938SOL    HW252057   5.754   6.795   2.068  0.1038 -0.9061  0.4118
16939SOL     OW52058   6.982   5.674   5.709  0.4450  0.3221  0.1634
16939SOL    HW152059   7.033   5.600   5.741  0.1215 -0.1226 -0.3323
16939SOL    HW252060   7.046   5.744   5.697  0.2759  1.1264  3.6139
16940SOL     OW52061   6.164   4.657   2.971 -0.1926  0.0733  0.3747
16940SOL    HW152062   6.140   4.568   2.998 -0.2666  0.5099  1.8223
16940SOL    HW252063   6.136   4.712   3.045  1.0712  1.1368  0.0786
16941SOL     OW52064   0.096   7.704   1.029 -0.6962  0.2244  0.3224
16941SOL    HW152065   0.050   7.621   1.018 -1.7388  0.8219  0.1282
16941SOL    HW252066   0.136   7.721   0.944 -0.0301 -0.3462  0.5200
16942SOL     OW52067   0.662   7.320   6.313 -0.5859  0.3096 -0.5017
16942SOL    HW152068   0.622   7.403   6.341 -0.5642 -0.1858  1.0725
16942SOL    HW252069   0.681   7.274   6.395 -1.2124 -1.5558 -1.3708
16943SOL     OW52070   5.391   1.421   7.299 -0.1041 -0.4951  0.2777
16943SOL    HW152071   5.402   1.474   7.378  0.6245 -1.1719  0.6446
16943SOL    HW252072   5.301   1.438   7.271  0.1545  1.0270  0.3083
16944SOL     OW52073   2.207   5.618   8.293 -0.1743 -0.4019 -0.7903
16944SOL    HW152074   2.290   5.650   8.257 -1.2054  2.7594 -0.4828
16944SOL    HW252075   2.141   5.678   8.258 -2.2488 -2.2572 -0.2050
16945SOL     OW52076   3.679   2.308   0.247  0.1832  0.0740 -0.4992
16945SOL    HW152077   3.727   2.370   0.191  1.3516 -0.4357 -0.0689
16945SOL    HW252078   3.690   2.223   0.204  2.8100 -0.6840  1.5418
16946SOL     OW52079   2.833   7.749   6.869  0.1910  0.0229 -0.1600
16946SOL    HW152080   2.794   7.814   6.810 -2.0585 -0.7971  0.3486
16946SOL    HW252081   2.758   7.696   6.898  1.2701  0.2551  3.2515
16947SOL     OW52082   2.766   0.248   8.004  0.1958 -0.0846 -0.1811
16947SOL    HW152083   2.761   0.182   7.935  1.3477 -2.2079  1.6831
16947SOL    HW252084   2.767   0.331   7.957  1.1380 -1.4625 -2.7319
16948SOL     OW52085   4.139   3.134   4.557  0.1774  0.5377  0.0183
16948SOL    HW152086   4.145   3.041   4.577  0.5442  0.3610 -0.8918
16948SOL    HW252087   4.053   3.160   4.590  1.5061  0.7355  3.6185
16949SOL     OW52088   6.493   8.236   0.680  0.1454  0.0986 -0.2144
16949SOL    HW152089   6.549   8.247   0.603  0.6146  0.7722  0.2216
16949SOL    HW252090   6.464   8.324   0.702 -1.0136 -0.2329 -0.3740
16950SOL     OW52091   1.344   1.973   1.090  0.4880 -0.0597 -0.1267
16950SOL    HW152092   1.378   1.998   1.004 -0.0075  0.1270 -0.2727
16950SOL    HW252093   1.314   2.055   1.129 -3.1728 -0.6399 -1.5122
16951SOL     OW52094   0.529   3.196   4.948 -0.0397  0.1264  0.3386
16951SOL    HW152095   0.601   3.240   4.993 -1.1393  0.5959  1.7103
16951SOL    HW252096   0.453   3.212   5.005 -0.8139 -2.0713 -0.0192
16952SOL     OW52097   2.411   3.207   4.417  0.0018 -0.0099 -0.1989
16952SOL    HW152098   2.333   3.203   4.361 -0.2102  0.3740  0.0678
16952SOL    HW252099   2.385   3.262   4.490  0.5951  0.3032 -0.2191
16953SOL     OW52100   1.098   2.203   1.683 -0.1921  0.2235 -0.3572
16953SOL    HW152101   1.071   2.113   1.700 -2.0988  0.8717  0.0693
16953SOL    HW252102   1.187   2.208   1.719 -0.8609 -0.8956  1.5280
16954SOL     OW52103   1.729   5.453   7.369 -0.1574 -0.2144  0.2224
16954SOL    HW152104   1.729   5.410   7.454 -0.8837  0.5582  0.6193
16954SOL    HW252105   1.637   5.449   7.341  0.2754 -1.5533 -1.0774
16955SOL     OW52106   2.195   7.459   4.166  0.2702  0.3828 -0.5882
16955SOL    HW152107   2.291   7.457   4.169  0.2433 -0.0451 -0.0876
16955SOL    HW252108   2.168   7.446   4.256 -0.2719  0.0263 -0.8012
16956SOL     OW52109   0.974   3.125   0.571 -0.2103 -0.0447 -0.6646
16956SOL    HW152110   1.059   3.168   0.580 -0.3877  0.1490  0.1325
16956SOL    HW252111   0.963   3.078   0.653 -0.4552 -0.8337 -1.1428
16957SOL     OW52112   2.200   1.474   5.598  0.5346 -0.2242 -0.5225
16957SOL    HW152113   2.128   1.417   5.574  1.2633 -0.1678 -2.9633
16957SOL    HW252114   2.224   1.518   5.517  1.3933  1.9525  0.8610
16958SOL     OW52115   6.240   5.570   7.303 -0.1268  0.2253 -0.1087
16958SOL    HW152116   6.185   5.647   7.317 -0.7473 -0.0599 -0.9104
16958SOL    HW252117   6.203   5.503   7.359 -1.1545 -0.2238 -1.2941
16959SOL     OW52118   0.345   2.017   1.593 -0.4816 -0.0660 -0.4790
16959SOL    HW152119   0.436   1.996   1.611 -0.3435  2.4759  2.1534
16959SOL    HW252120   0.295   1.951   1.642 -0.0475  0.0214  0.0863
16960SOL     OW52121   6.206   3.221   1.601  0.6036 -0.3717  0.8213
16960SOL    HW152122   6.266   3.284   1.642  0.1979  1.0816 -0.7312
16960SOL    HW252123   6.206   3.146   1.659  0.1149  1.5770  3.4338
16961SOL     OW52124   0.112   7.287   0.278  0.6689 -0.3203 -0.1264
16961SOL    HW152125   0.163   7.280   0.358 -0.6212 -0.0586  0.7369
16961SOL    HW252126   0.054   7.362   0.292  0.1896 -0.4763 -1.1623
16962SOL     OW52127   4.436   3.917   2.846 -0.0936 -0.0896  0.2329
16962SOL    HW152128   4.405   3.971   2.919 -1.2557 -0.1505 -0.2086
16962SOL    HW252129   4.443   3.829   2.883 -1.9169 -0.3611 -0.0641
16963SOL     OW52130   5.529   5.208   2.414  0.0402  0.4730  0.2513
16963SOL    HW152131   5.621   5.213   2.387 -0.4310 -0.7402 -1.6650
16963SOL    HW252132   5.527   5.138   2.479  0.6481  1.2361  1.1022
16964SOL     OW52133   0.842   0.723   0.662  0.0138  0.7126 -0.5048
16964SOL    HW152134   0.817   0.631   0.654  1.2406  0.2599  0.6703
16964SOL    HW252135   0.786   0.757   0.732 -0.4332  0.8548 -0.9328
16965SOL     OW52136   2.160   5.965   0.108 -0.2116  0.3042 -0.0508
16965SOL    HW152137   2.093   5.932   0.168 -0.6934  0.3921 -0.5483
16965SOL    HW252138   2.129   5.941   0.021  0.7283 -0.2580 -0.2399
16966SOL     OW52139   6.511   0.268   2.566  0.1488 -0.7954 -0.0907
16966SOL    HW152140   6.440   0.228   2.516  0.2462 -0.0993 -0.8051
16966SOL    HW252141   6.572   0.299   2.499 -0.6523  1.8793  0.3692
16967SOL     OW52142   6.430   3.463   2.906  0.0259 -0.0664 -0.1282
16967SOL    HW152143   6.453   3.371   2.923 -1.7668 -0.4104  0.4920
16967SOL    HW252144   6.410   3.499   2.992 -2.4655  0.0216 -0.7221
16968SOL     OW52145   1.757   2.764   0.500  0.5731  0.1644 -0.0131
16968SOL    HW152146   1.810   2.835   0.537 -0.2529  0.5210  0.5079
16968SOL    HW252147   1.677   2.764   0.554 -0.1576 -0.0393 -1.0916
16969SOL     OW52148   0.417   1.471   4.079 -0.1782 -0.3886  0.2581
16969SOL    HW152149   0.389   1.379   4.083 -0.8791 -0.2235 -0.6513
16969SOL    HW252150   0.452   1.482   3.990 -1.3904  0.5775 -0.1132
16970SOL     OW52151   8.283   1.795   3.569  0.1822  0.3136 -0.4322
16970SOL    HW152152   8.297   1.818   3.661  2.1327  0.9907 -0.8958
16970SOL    HW252153   8.266   1.878   3.525 -2.8452 -0.2111 -0.3553
16971SOL     OW52154   7.361   2.452   5.886 -0.1625 -0.0170  0.3059
16971SOL    HW152155   7.352   2.454   5.791 -0.6293  1.9676  0.3726
16971SOL    HW252156   7.454   2.434   5.901  0.1844  1.0394 -0.5413
16972SOL     OW52157   5.725   5.766   7.196 -0.6696  0.7040  0.3368
16972SOL    HW152158   5.795   5.721   7.148  0.0059  0.2646  1.6871
16972SOL    HW252159   5.741   5.859   7.180 -2.3213  0.5125 -2.8212
16973SOL     OW52160   7.068   2.236   0.954  0.7008  0.3755  0.0398
16973SOL    HW152161   7.008   2.303   0.985  0.1627 -0.4537  0.7814
16973SOL    HW252162   7.050   2.229   0.860 -0.6628 -0.1865  0.3449
16974SOL     OW52163   2.840   2.118   0.554 -0.5443  0.5508 -0.3752
16974SOL    HW152164   2.896   2.195   0.543 -0.0483  0.1186 -0.9389
16974SOL    HW252165   2.887   2.063   0.617 -0.7432  0.5666 -0.2143
16975SOL     OW52166   5.666   6.664   3.425 -0.1114 -0.4445 -0.0732
16975SOL    HW152167   5.585   6.681   3.472 -0.1697 -0.6759 -0.0884
16975SOL    HW252168   5.730   6.723   3.465 -0.6005  0.7112 -0.9610
16976SOL     OW52169   4.364   7.686   7.703 -0.4267 -0.1384 -0.0327
16976SOL    HW152170   4.440   7.744   7.707 -1.0638  0.6893  0.2840
16976SOL    HW252171   4.366   7.650   7.614 -0.6537  1.2320 -0.6040
16977SOL     OW52172   3.994   1.246   1.766 -0.3951  0.6004  0.0424
16977SOL    HW152173   3.953   1.315   1.714  1.1352 -0.2868 -2.4128
16977SOL    HW252174   4.080   1.233   1.725 -0.6021 -2.6525  0.5479
16978SOL     OW52175   5.298   5.268   4.639  0.4912  0.3879 -0.0385
16978SOL    HW152176   5.389   5.247   4.623  0.1037 -1.3678  0.0347
16978SOL    HW252177   5.291   5.274   4.734  0.5364  0.5925 -0.0468
16979SOL     OW52178   2.121   6.957   7.354 -0.0380 -0.1187  0.1653
16979SOL    HW152179   2.120   6.922   7.265  0.9483 -0.8118  0.4121
16979SOL    HW252180   2.064   7.034   7.350 -0.1579 -0.2500 -1.0143
16980SOL     OW52181   3.456   0.233   0.808 -0.4088  0.5484  0.4345
16980SOL    HW152182   3.479   0.297   0.876  1.8687  0.2463  0.0055
16980SOL    HW252183   3.446   0.285   0.728  0.4277  0.4998  0.2940
16981SOL     OW52184   2.899   4.608   7.609 -0.2090 -0.1218 -0.4579
16981SOL    HW152185   2.927   4.533   7.660  1.1168  1.0094  0.5153
16981SOL    HW252186   2.815   4.634   7.648 -0.7318 -1.1595 -0.8824
16982SOL     OW52187   3.918   7.587   2.217 -0.4331 -0.1582 -0.1439
16982SOL    HW152188   3.956   7.501   2.235 -0.1779  0.0716  0.4373
16982SOL    HW252189   3.828   7.580   2.248  0.1073  0.3471  1.5912
16983SOL     OW52190   2.018   7.776   2.952  0.1818  0.3688 -0.6324
16983SOL    HW152191   2.090   7.776   3.016 -0.4573 -2.1786  0.1434
16983SOL    HW252192   2.032   7.855   2.900  2.8096  0.5859  0.3345
16984SOL     OW52193   5.042   6.738   1.033  0.5803  0.0335  0.1354
16984SOL    HW152194   5.124   6.778   1.060  0.2560 -0.6778  2.3424
16984SOL    HW252195   5.039   6.655   1.081 -1.0745 -0.2749 -0.4630
16985SOL     OW52196   6.570   7.841   4.256 -0.0904 -0.0105 -0.3667
16985SOL    HW152197   6.565   7.830   4.351  0.6065 -1.4668 -0.4939
16985SOL    HW252198   6.663   7.833   4.235  0.2334  3.7066 -0.8040
16986SOL     OW52199   5.266   4.481   5.344  0.3699  0.3134  0.0799
16986SOL    HW152200   5.302   4.543   5.407  1.0530 -0.0073  0.0091
16986SOL    HW252201   5.225   4.536   5.277 -1.4807  0.6258  1.4379
16987SOL     OW52202   2.700   7.693   2.778 -0.2466  0.5679  0.2056
16987SOL    HW152203   2.646   7.688   2.699  0.6633 -1.8892 -0.3306
16987SOL    HW252204   2.658   7.634   2.839 -0.9031  2.4145  1.5624
16988SOL     OW52205   4.088   0.128   6.158  0.4809  0.2788  0.4573
16988SOL    HW152206   4.144   0.198   6.192  1.0111  0.4763 -0.7750
16988SOL    HW252207   4.007   0.172   6.132 -0.0502  0.0764  1.7502
16989SOL     OW52208   0.982   7.184   4.728 -1.3238  0.4186  0.3666
16989SOL    HW152209   1.073   7.214   4.732 -0.9165 -0.8479  0.9014
16989SOL    HW252210   0.987   7.095   4.695 -2.2922  0.0201  1.2433
16990SOL     OW52211   3.651   5.563   2.278  0.3620 -0.2808  0.2773
16990SOL    HW152212   3.743   5.537   2.270  0.1263 -0.4595 -2.6033
16990SOL    HW252213   3.618   5.511   2.350  1.8949 -2.1554 -0.3099
16991SOL     OW52214   5.645   4.098   7.721 -0.1675 -0.1077  0.3270
16991SOL    HW152215   5.657   4.176   7.667 -1.3373  0.8291  1.3795
16991SOL    HW252216   5.734   4.072   7.746  0.2972  0.1472 -1.0521
16992SOL     OW52217   2.682   2.699   8.208  0.2891 -0.5164  0.2728
16992SOL    HW152218   2.622   2.773   8.201 -0.9998 -1.5526  0.4134
16992SOL    HW252219   2.756   2.724   8.152 -0.0470  0.9514  0.4600
16993SOL     OW52220   7.474   3.368   5.016  0.2659  0.5227  0.7731
16993SOL    HW152221   7.425   3.412   5.085  1.7566  1.3233  1.3569
16993SOL    HW252222   7.533   3.435   4.982 -1.7562  0.6665 -2.6104
16994SOL     OW52223   2.402   6.407   7.583 -0.2098 -0.0938  0.0356
16994SOL    HW152224   2.344   6.344   7.625 -0.6110  0.4668  0.3434
16994SOL    HW252225   2.393   6.389   7.489 -0.3576 -0.4643  0.1214
16995SOL     OW52226   7.596   0.811   7.667 -0.3294 -0.0459  0.4548
16995SOL    HW152227   7.636   0.803   7.753  1.7714  0.6182 -0.4354
16995SOL    HW252228   7.586   0.905   7.653 -0.4865 -0.1426 -0.0976
16996SOL     OW52229   6.911   6.637   5.378 -0.2319 -0.2783 -0.6331
16996SOL    HW152230   6.826   6.595   5.365 -1.5296  1.3664  2.2402
16996SOL    HW252231   6.891   6.730   5.382  1.7008  0.1091  0.2413
16997SOL     OW52232   4.033   7.563   1.005 -0.4925  0.1417  0.2512
16997SOL    HW152233   3.986   7.480   0.992  0.0181 -0.1749  0.3936
16997SOL    HW252234   4.074   7.554   1.091  1.2688 -0.3156 -0.5920
16998SOL     OW52235   1.920   4.168   7.774 -0.4912 -0.1270 -0.5425
16998SOL    HW152236   1.847   4.110   7.795  0.2980 -1.2391 -0.8684
16998SOL    HW252237   1.921   4.171   7.679 -1.0227  1.0559 -0.5178
16999SOL     OW52238   7.518   7.019   8.240 -0.6115  0.4748  0.2411
16999SOL    HW152239   7.461   6.949   8.270  0.6411  0.0589  1.6960
16999SOL    HW252240   7.536   7.071   8.318 -0.3219  1.5458 -0.5335
17000SOL     OW52241   6.242   3.081   1.362 -0.0015 -0.3631 -0.2907
17000SOL    HW152242   6.212   3.120   1.443  0.7811  2.7078 -1.4354
17000SOL    HW252243   6.335   3.062   1.377 -0.3958 -1.9744  0.2884
17001SOL     OW52244   3.055   1.660   1.387 -0.4099 -0.6198 -0.5971
17001SOL    HW152245   3.022   1.587   1.335  0.1141 -0.7148 -0.7980
17001SOL    HW252246   3.149   1.645   1.393 -0.0957  0.8183 -1.8666
17002SOL     OW52247   6.900   2.745   6.580 -0.2473 -0.0184  0.1970
17002SOL    HW152248   6.888   2.833   6.617  0.9105  0.5612 -0.7601
17002SOL    HW252249   6.994   2.729   6.587 -0.5602 -1.5074  1.0622
17003SOL     OW52250   2.208   2.089   4.473  0.0619  0.2867 -0.5137
17003SOL    HW152251   2.211   2.038   4.391 -2.1279  1.3919 -1.3022
17003SOL    HW252252   2.146   2.041   4.528  2.2477 -0.9910  0.9238
17004SOL     OW52253   4.804   4.557   5.057  0.0751  0.0244  0.2049
17004SOL    HW152254   4.786   4.476   5.104  0.6227 -0.3381 -0.2048
17004SOL    HW252255   4.874   4.535   4.995  0.1876  0.7893  0.0447
17005SOL     OW52256   4.612   6.838   4.809  0.1666  0.3347 -0.0466
17005SOL    HW152257   4.638   6.930   4.803  0.1328  0.3271 -0.3443
17005SOL    HW252258   4.633   6.802   4.722 -0.9715  0.3660 -0.3337
17006SOL     OW52259   2.292   6.303   3.400  0.1912  0.4567  0.4415
17006SOL    HW152260   2.224   6.340   3.457 -1.2277 -0.7402 -0.4323
17006SOL    HW252261   2.354   6.374   3.388 -0.4074  1.2864  2.0368
17007SOL     OW52262   4.326   3.032   1.601 -0.5648  0.1243  0.6754
17007SOL    HW152263   4.241   2.996   1.576  0.4570 -0.3086 -2.4086
17007SOL    HW252264   4.389   2.980   1.552  1.3617  1.8090  1.2996
17008SOL     OW52265   5.760   7.877   7.803 -0.3636 -0.0399  0.4201
17008SOL    HW152266   5.696   7.916   7.743 -1.5869 -0.2947  1.5483
17008SOL    HW252267   5.782   7.947   7.863  0.7242  0.1570 -0.1885
17009SOL     OW52268   0.777   2.269   7.109  0.5470 -0.0949 -0.5452
17009SOL    HW152269   0.824   2.195   7.072  1.1090 -1.1356  2.1042
17009SOL    HW252270   0.821   2.286   7.192 -0.0142  2.7777 -0.7743
17010SOL     OW52271   0.197   1.466   4.954 -0.0801 -0.5770 -0.2683
17010SOL    HW152272   0.276   1.413   4.941 -0.2506 -1.0947  0.6947
17010SOL    HW252273   0.226   1.537   5.012 -0.2996 -0.7224  0.0208
17011SOL     OW52274   6.422   3.388   1.726  0.5586  0.4493  0.2293
17011SOL    HW152275   6.438   3.453   1.657  1.0444  0.6059  0.4931
17011SOL    HW252276   6.441   3.434   1.808 -0.1037  0.2859  0.4765
17012SOL     OW52277   0.907   3.655   7.597 -0.7269 -0.3625 -0.1031
17012SOL    HW152278   0.964   3.578   7.603 -1.4787 -1.0861 -1.7141
17012SOL    HW252279   0.964   3.725   7.565 -0.2303 -0.4679  0.5417
17013SOL     OW52280   7.851   3.587   3.430 -0.3169 -0.3301  0.2663
17013SOL    HW152281   7.864   3.494   3.412  0.6549 -0.2671  0.6178
17013SOL    HW252282   7.808   3.621   3.352  0.7546 -0.7550 -0.5213
17014SOL     OW52283   3.387   5.252   3.700 -0.5761 -0.2826  0.0741
17014SOL    HW152284   3.305   5.202   3.693 -0.6986 -0.4014  2.0514
17014SOL    HW252285   3.360   5.337   3.735  0.0596 -0.0134 -0.0843
17015SOL     OW52286   3.277   2.630   1.896  0.1617 -0.1986 -0.0573
17015SOL    HW152287   3.236   2.567   1.955 -0.1501 -0.7789 -0.8704
17015SOL    HW252288   3.287   2.710   1.948  0.4864 -0.9005  0.9598
17016SOL     OW52289   5.910   8.241   6.724  0.7732 -0.1792 -0.3696
17016SOL    HW152290   5.819   8.215   6.710  0.1348  0.8870  1.5629
17016SOL    HW252291   5.940   8.272   6.639 -0.7431 -0.3299 -0.9663
17017SOL     OW52292   0.888   7.320   3.183  0.2239 -0.2439 -0.1631
17017SOL    HW152293   0.910   7.266   3.107 -0.7600  1.2448 -1.5484
17017SOL    HW252294   0.793   7.316   3.189  0.2367  0.3021  0.5064
17018SOL     OW52295   4.665   0.934   0.662 -0.3029  0.3583 -0.3523
17018SOL    HW152296   4.697   1.019   0.634 -2.1423  0.4952 -2.2282
17018SOL    HW252297   4.633   0.948   0.751 -0.2831  1.5631 -0.5293
17019SOL     OW52298   4.957   8.173   1.447 -0.4723 -0.0021 -0.1215
17019SOL    HW152299   4.990   8.261   1.466 -2.4621  0.4758  1.2700
17019SOL    HW252300   5.028   8.114   1.474 -0.2670  1.0576  1.7484
17020SOL     OW52301   7.950   0.617   5.012  0.2148 -0.2752 -0.0285
17020SOL    HW152302   8.002   0.655   4.941  0.0416 -0.3873 -0.2154
17020SOL    HW252303   7.859   0.635   4.988  0.1009 -1.5129 -0.5099
17021SOL     OW52304   0.488   7.067   7.100  0.1357  0.1640  0.1997
17021SOL    HW152305   0.531   7.111   7.174 -1.0258  1.4626  0.1402
17021SOL    HW252306   0.501   6.974   7.116  0.2667  0.4436  1.8209
17022SOL     OW52307   1.414   4.705   3.494  0.3370  0.3731 -0.0551
17022SOL    HW152308   1.396   4.734   3.404  0.1905 -1.1428 -0.5239
17022SOL    HW252309   1.488   4.758   3.522  2.1819 -1.0671 -2.0750
17023SOL     OW52310   7.874   5.415   2.817 -0.0443  0.6708 -0.2676
17023SOL    HW152311   7.857   5.326   2.847 -2.4771  0.5841 -1.7869
17023SOL    HW252312   7.969   5.425   2.825 -0.0311 -1.0582  2.5788
17024SOL     OW52313   2.118   2.725   4.255 -0.5898 -0.3469  0.0050
17024SOL    HW152314   2.077   2.768   4.329 -0.4744 -2.5732  1.4062
17024SOL    HW252315   2.212   2.729   4.273 -0.5213 -0.3036 -0.3490
17025SOL     OW52316   3.629   4.204   6.132 -0.4607  0.1376 -0.1555
17025SOL    HW152317   3.705   4.188   6.076 -1.4913 -2.7049 -0.8403
17025SOL    HW252318   3.592   4.286   6.099  1.0700  0.4419 -1.1908
17026SOL     OW52319   5.373   5.594   5.003 -0.3298 -0.7811 -0.1651
17026SOL    HW152320   5.453   5.620   5.048 -1.1006 -0.1749  0.8647
17026SOL    HW252321   5.373   5.646   4.922 -0.0205 -0.2846  0.1564
17027SOL     OW52322   4.637   0.526   2.328  0.0801 -0.0485 -0.1658
17027SOL    HW152323   4.732   0.530   2.338 -0.1361 -0.0400  2.0860
17027SOL    HW252324   4.613   0.613   2.297  0.6807  0.3882  0.5525
17028SOL     OW52325   6.322   8.251   4.666  0.1334  0.3228 -0.2984
17028SOL    HW152326   6.262   8.323   4.687  1.1607  0.7775  1.1791
17028SOL    HW252327   6.334   8.205   4.750  2.0888  0.4331 -0.4937
17029SOL     OW52328   6.597   0.889   4.038  0.1390  0.0570  0.1829
17029SOL    HW152329   6.659   0.828   3.998 -1.6888 -0.7180 -1.5703
17029SOL    HW252330   6.512   0.859   4.008 -0.9478  2.2332  1.0153
17030SOL     OW52331   4.734   6.457   6.646  0.5672 -0.2039 -0.3434
17030SOL    HW152332   4.677   6.390   6.683  0.2026 -0.9501 -2.1899
17030SOL    HW252333   4.797   6.476   6.715  0.3365 -2.0482  0.4020
17031SOL     OW52334   0.671   6.863   6.935 -0.0387 -0.9275  0.1312
17031SOL    HW152335   0.754   6.891   6.972 -0.9618  0.6296  1.0694
17031SOL    HW252336   0.622   6.826   7.010 -1.0942  0.3173  0.0709
17032SOL     OW52337   2.922   6.597   3.614 -0.1342 -0.9147  0.2881
17032SOL    HW152338   2.836   6.633   3.635 -0.0683 -1.0661  0.8209
17032SOL    HW252339   2.911   6.502   3.621  0.2247 -0.9103  0.9325
17033SOL     OW52340   0.632   1.642   2.023 -0.6425 -0.0951  0.5580
17033SOL    HW152341   0.595   1.692   2.096  1.5109  3.3995 -0.6379
17033SOL    HW252342   0.608   1.692   1.945  1.4200 -1.0291 -0.7079
17034SOL     OW52343   3.170   7.574   2.322  0.5367  0.0374  0.2754
17034SOL    HW152344   3.182   7.563   2.228  1.6533 -0.8408  0.5122
17034SOL    HW252345   3.258   7.567   2.359  0.0647  0.0055  1.4274
17035SOL     OW52346   5.932   4.134   7.494 -0.0982 -0.2948 -0.7100
17035SOL    HW152347   5.907   4.211   7.545  2.3263 -1.0621  1.7370
17035SOL    HW252348   5.919   4.061   7.554 -0.1814 -1.5774 -2.2636
17036SOL     OW52349   4.996   3.019   4.702  0.0540  0.3269  0.5029
17036SOL    HW152350   4.942   3.058   4.633 -1.6003  1.5910  2.4713
17036SOL    HW252351   4.972   2.926   4.701 -0.0334  0.3574 -0.5536
17037SOL     OW52352   7.997   8.297   5.582 -0.1962 -0.1721  0.2142
17037SOL    HW152353   7.943   8.225   5.549  0.5331 -0.6714  0.1032
17037SOL    HW252354   7.957   8.321   5.665  0.4492 -1.7187  0.9867
17038SOL     OW52355   1.640   5.463   0.381  0.1736 -0.0011 -0.3775
17038SOL    HW152356   1.567   5.492   0.436  0.2574  0.3153 -0.4301
17038SOL    HW252357   1.614   5.485   0.292  0.0248 -0.5405 -0.4708
17039SOL     OW52358   7.288   6.174   3.493  0.3207 -0.4967  0.1276
17039SOL    HW152359   7.272   6.206   3.582 -1.2160 -0.6277 -0.0827
17039SOL    HW252360   7.272   6.251   3.438  0.5374 -0.6091 -0.0906
17040SOL     OW52361   2.174   7.456   7.287  0.4443 -0.4928 -0.2046
17040SOL    HW152362   2.257   7.497   7.264  0.5972 -0.5611  0.2128
17040SOL    HW252363   2.143   7.506   7.363  0.9263 -1.5188  0.6838
17041SOL     OW52364   7.459   2.839   7.425  0.0964 -0.0413  0.5878
17041SOL    HW152365   7.553   2.822   7.415  0.1971  0.9101 -0.1145
17041SOL    HW252366   7.449   2.864   7.516  0.4423 -0.6828  0.8054
17042SOL     OW52367   0.830   6.098   5.733  0.1238 -0.4474  0.5929
17042SOL    HW152368   0.908   6.044   5.746  1.1173  0.0849 -2.6694
17042SOL    HW252369   0.861   6.188   5.744  0.0804 -0.2196 -0.9961
17043SOL     OW52370   7.702   1.772   2.445  0.2547  0.4334 -0.1112
17043SOL    HW152371   7.691   1.778   2.350  0.5946 -0.8612 -0.2398
17043SOL    HW252372   7.683   1.680   2.466 -1.3469  1.0580  1.2789
17044SOL     OW52373   5.704   4.366   5.541 -0.0474 -0.3123 -0.0837
17044SOL    HW152374   5.633   4.344   5.481  0.1549 -1.0688 -0.0531
17044SOL    HW252375   5.782   4.367   5.485 -0.1068  0.7580 -0.1649
17045SOL     OW52376   8.185   6.053   8.190  0.4902 -0.1189 -0.4831
17045SOL    HW152377   8.128   5.985   8.225  0.8740 -0.3363 -0.2823
17045SOL    HW252378   8.158   6.133   8.237 -1.8463  0.4452 -2.7055
17046SOL     OW52379   4.967   3.343   0.749  0.0616  0.0579  0.6798
17046SOL    HW152380   4.892   3.284   0.739 -0.1887  0.4361  0.3476
17046SOL    HW252381   5.025   3.320   0.676  0.1412 -0.0365  0.7712
17047SOL     OW52382   5.580   0.042   4.031 -0.1976  0.0866 -0.2955
17047SOL    HW152383   5.617   0.039   4.120  0.3423  1.6386 -0.4461
17047SOL    HW252384   5.584   0.135   4.007 -0.2534 -0.3357 -1.9862
17048SOL     OW52385   3.773   5.054   0.343 -0.1482 -0.2375  0.0774
17048SOL    HW152386   3.826   5.029   0.419  1.0440 -0.3090 -0.7586
17048SOL    HW252387   3.811   5.005   0.270  1.4329  2.9715 -1.3667
17049SOL     OW52388   4.613   4.502   1.508 -0.2550  0.8835 -0.0028
17049SOL    HW152389   4.604   4.454   1.590  0.4455 -1.2414 -1.1548
17049SOL    HW252390   4.707   4.514   1.497 -0.2707  0.0943 -1.0938
17050SOL     OW52391   1.894   0.461   2.248  0.3997 -0.5117 -1.1937
17050SOL    HW152392   1.907   0.529   2.314  0.6911  1.3867 -3.1405
17050SOL    HW252393   1.817   0.413   2.278 -0.6077  1.5120 -0.4397
17051SOL     OW52394   1.530   5.042   0.330 -0.0729 -0.1911  0.0660
17051SOL    HW152395   1.565   5.109   0.389 -0.4168 -0.9156  1.0940
17051SOL    HW252396   1.535   4.961   0.380 -1.2397 -0.6573 -0.5677
17052SOL     OW52397   2.020   5.891   7.812  0.1159  0.2351  0.1759
17052SOL    HW152398   2.036   5.982   7.789  0.0771 -0.1580 -1.4281
17052SOL    HW252399   1.928   5.877   7.789  0.6409 -0.7402 -1.3349
17053SOL     OW52400   6.482   3.407   0.440  0.3288  0.1842 -0.2458
17053SOL    HW152401   6.546   3.437   0.504  2.3174 -0.3033 -1.9506
17053SOL    HW252402   6.519   3.324   0.408 -0.4947  0.5792 -2.2138
17054SOL     OW52403   4.156   5.851   7.482  0.1594  0.2935 -0.0349
17054SOL    HW152404   4.250   5.851   7.464  0.2443 -0.6821  0.3519
17054SOL    HW252405   4.141   5.930   7.533  0.8044  0.3639  0.0483
17055SOL     OW52406   1.194   3.056   0.277 -0.4946 -0.5390 -0.1963
17055SOL    HW152407   1.174   3.004   0.355  0.0445  0.1728  0.4182
17055SOL    HW252408   1.231   2.992   0.215  1.0030 -0.7376  0.8756
17056SOL     OW52409   3.058   3.094   2.502  0.0807 -0.2183  0.0508
17056SOL    HW152410   3.103   3.148   2.567  1.1935 -2.0042  0.8027
17056SOL    HW252411   3.097   3.118   2.418  1.7258 -1.0015  0.5736
17057SOL     OW52412   6.141   4.938   1.141 -0.1117 -0.3432  1.0013
17057SOL    HW152413   6.221   4.986   1.120 -0.7722  0.2662 -0.1696
17057SOL    HW252414   6.154   4.908   1.231  0.5865  1.4649  1.5167
17058SOL     OW52415   1.535   7.667   3.089  0.4631  0.2979  0.3403
17058SOL    HW152416   1.441   7.680   3.072 -0.1261  0.4825  3.4013
17058SOL    HW252417   1.576   7.748   3.060 -0.1221 -0.2692 -2.2023
17059SOL     OW52418   5.208   4.812   3.001 -0.2899 -0.2873  0.3160
17059SOL    HW152419   5.169   4.726   3.015  2.3828 -1.2457  2.2675
17059SOL    HW252420   5.263   4.801   2.924 -1.8352  0.3742 -0.9070
17060SOL     OW52421   7.618   3.546   8.170 -0.0139  0.0395 -0.0299
17060SOL    HW152422   7.612   3.503   8.256  1.0715  0.1315  0.1023
17060SOL    HW252423   7.583   3.482   8.109  1.6132 -1.0673  0.1617
17061SOL     OW52424   4.532   4.714   2.616  0.2944  0.3332 -0.0058
17061SOL    HW152425   4.442   4.741   2.600 -0.5899 -1.8700  1.0340
17061SOL    HW252426   4.554   4.657   2.543  0.4181 -0.1307  0.3895
17062SOL     OW52427   0.621   5.901   1.918 -0.3606  0.2364  0.3898
17062SOL    HW152428   0.589   5.960   1.987  0.9764  2.5762 -0.9594
17062SOL    HW252429   0.575   5.819   1.935 -1.5607  1.3577  2.8811
17063SOL     OW52430   5.425   2.187   2.231 -0.0501 -0.1440 -0.2111
17063SOL    HW152431   5.398   2.241   2.157  0.5829 -1.1359 -1.1820
17063SOL    HW252432   5.520   2.189   2.229 -0.0244 -0.9168  0.0147
17064SOL     OW52433   1.879   6.660   2.298 -0.7034 -0.1192 -0.3890
17064SOL    HW152434   1.847   6.617   2.378  2.1557 -0.8988  0.4084
17064SOL    HW252435   1.926   6.737   2.330  0.8445 -0.6799 -1.2444
17065SOL     OW52436   0.556   2.066   0.731  0.1803 -0.1517  0.0580
17065SOL    HW152437   0.608   1.991   0.700 -0.1706 -0.6795  0.7201
17065SOL    HW252438   0.584   2.078   0.822 -1.1522 -0.7212  0.5581
17066SOL     OW52439   8.298   1.301   1.348 -0.4130  0.3352 -0.1751
17066SOL    HW152440   8.312   1.218   1.303  1.9324  0.2756  0.6043
17066SOL    HW252441   8.307   1.367   1.280  0.8486  0.1150 -0.2346
17067SOL     OW52442   6.882   3.028   2.801 -0.3076  0.8191  0.1369
17067SOL    HW152443   6.906   2.997   2.888 -1.0922  1.2130  0.5068
17067SOL    HW252444   6.846   3.115   2.816 -0.6022  0.8208 -0.5600
17068SOL     OW52445   7.596   7.789   6.314  0.0235 -0.3736 -0.3519
17068SOL    HW152446   7.516   7.790   6.368 -0.2675  1.2568 -0.7733
17068SOL    HW252447   7.667   7.794   6.378 -0.2274 -1.4604  0.0132
17069SOL     OW52448   0.988   3.743   4.194  0.2873  0.1191 -0.4365
17069SOL    HW152449   1.004   3.826   4.149  0.1068 -0.1285 -0.9573
17069SOL    HW252450   0.929   3.695   4.137  1.7473 -1.0741 -0.9778
17070SOL     OW52451   0.701   3.892   3.602  0.1249  0.1107 -0.4894
17070SOL    HW152452   0.684   3.971   3.655 -2.2036 -0.3251 -0.5083
17070SOL    HW252453   0.701   3.820   3.665 -1.1454 -0.2341 -0.8553
17071SOL     OW52454   4.487   1.677   4.366 -0.1442  0.0903  0.1642
17071SOL    HW152455   4.486   1.669   4.270  0.9925 -0.6669  0.1986
17071SOL    HW252456   4.524   1.594   4.396  0.8204  0.8735  1.1899
17072SOL     OW52457   2.403   1.584   3.857 -0.3446  0.1331 -0.1620
17072SOL    HW152458   2.343   1.614   3.788  0.7575  0.7726 -0.8583
17072SOL    HW252459   2.487   1.572   3.812  0.2726  0.1111  0.9767
17073SOL     OW52460   6.406   1.307   8.188 -0.0752  0.3954  0.0635
17073SOL    HW152461   6.328   1.268   8.149 -0.6686  0.1235  1.5146
17073SOL    HW252462   6.476   1.244   8.170 -0.8278 -0.8721  1.5183
17074SOL     OW52463   5.295   7.682   0.802 -0.1119 -0.0661 -0.1600
17074SOL    HW152464   5.206   7.717   0.802 -0.0535  0.1216  1.1184
17074SOL    HW252465   5.350   7.759   0.816  0.1265 -0.4150  0.8640
17075SOL     OW52466   7.089   3.934   5.623  0.1540 -0.1539  0.1298
17075SOL    HW152467   7.096   3.969   5.712 -0.1302  0.5954 -0.1322
17075SOL    HW252468   7.110   3.841   5.632  1.3033  0.1581  0.7949
17076SOL     OW52469   2.635   3.691   2.263 -0.6058 -0.0206  0.4042
17076SOL    HW152470   2.658   3.611   2.310  0.6284  0.7277  1.0894
17076SOL    HW252471   2.716   3.741   2.259 -1.6145  1.6932  0.9528
17077SOL     OW52472   2.764   7.362   7.083 -0.2756 -0.1049 -0.0872
17077SOL    HW152473   2.700   7.346   7.152  0.8608 -1.5787  0.6734
17077SOL    HW252474   2.832   7.414   7.126 -0.0035 -0.2461 -0.3479
17078SOL     OW52475   5.308   5.285   4.045  0.3497  0.1280 -0.3140
17078SOL    HW152476   5.243   5.249   4.106  0.2655 -0.1587 -0.5717
17078SOL    HW252477   5.391   5.280   4.093  0.3633 -0.5558 -0.4006
17079SOL     OW52478   2.870   3.492   3.330  0.1230 -0.1097 -0.0042
17079SOL    HW152479   2.909   3.461   3.411  1.0686  0.3428 -0.2762
17079SOL    HW252480   2.808   3.424   3.306 -1.4536  0.5821  2.0156
17080SOL     OW52481   3.020   7.927   3.788 -0.6328  0.0739 -0.1603
17080SOL    HW152482   3.042   7.833   3.789 -1.3415 -0.0958  0.8079
17080SOL    HW252483   2.926   7.929   3.802 -0.9723  0.8682 -2.4619
17081SOL     OW52484   4.909   7.152   2.477 -0.1635 -0.2597 -0.2762
17081SOL    HW152485   4.948   7.239   2.478 -0.9800  0.1697 -2.5804
17081SOL    HW252486   4.875   7.140   2.566 -1.3118  2.3637 -0.3070
17082SOL     OW52487   5.049   5.060   1.180 -0.0490  0.0443 -0.5099
17082SOL    HW152488   5.113   5.035   1.247  0.2848  1.0871 -0.4245
17082SOL    HW252489   5.015   5.145   1.210 -0.0688  0.4084 -1.5394
17083SOL     OW52490   4.217   1.763   0.121 -0.0167  1.1727  0.3214
17083SOL    HW152491   4.259   1.720   0.047 -1.2767  0.5615 -0.0378
17083SOL    HW252492   4.209   1.695   0.187 -1.3290  1.0483  0.0311
17084SOL     OW52493   1.145   7.661   1.762  0.2468  0.4867  0.1053
17084SOL    HW152494   1.096   7.741   1.781  0.0236 -0.0450  1.7903
17084SOL    HW252495   1.080   7.591   1.764  0.4061  0.2501 -1.5744
17085SOL     OW52496   0.694   1.273   1.866 -0.1775  0.6140 -0.8829
17085SOL    HW152497   0.770   1.248   1.919 -0.3969 -1.4623 -1.5236
17085SOL    HW252498   0.643   1.330   1.923  1.3102  1.1601 -0.0665
17086SOL     OW52499   2.847   0.713   0.178 -0.2216  0.1419  0.0786
17086SOL    HW152500   2.911   0.771   0.220 -1.1952  0.7741  0.7187
17086SOL    HW252501   2.884   0.695   0.091  1.2882 -0.2969  0.7902
17087SOL     OW52502   0.454   1.864   0.261  0.5821  0.4610  0.0048
17087SOL    HW152503   0.412   1.788   0.300  0.0512  0.4263 -0.6234
17087SOL    HW252504   0.521   1.890   0.324  0.2469 -0.0565  0.5746
17088SOL     OW52505   4.761   4.267   7.658 -0.4383  0.0437  0.0265
17088SOL    HW152506   4.713   4.197   7.703 -0.3519 -0.2568 -0.3515
17088SOL    HW252507   4.804   4.315   7.729 -0.4769 -0.3006  0.2841
17089SOL     OW52508   4.045   5.585   6.603  0.5075  0.1483  0.0787
17089SOL    HW152509   4.078   5.536   6.528 -1.2438 -0.5632 -0.2343
17089SOL    HW252510   3.969   5.536   6.633  0.7898  0.7919  1.9130
17090SOL     OW52511   1.094   0.591   8.223 -0.3554  0.1866  0.6673
17090SOL    HW152512   1.188   0.611   8.225 -0.6859  1.7757  0.7249
17090SOL    HW252513   1.077   0.567   8.132  0.1659 -0.3884  0.7193
17091SOL     OW52514   5.099   5.660   6.141 -0.1155  0.0279 -0.6700
17091SOL    HW152515   5.139   5.640   6.057 -0.9194  0.5130 -1.1744
17091SOL    HW252516   5.173   5.665   6.202  0.4603 -0.4083 -1.3237
17092SOL     OW52517   1.749   6.439   7.895 -0.0840 -0.6659 -0.5471
17092SOL    HW152518   1.706   6.524   7.904  0.8999 -0.0484 -1.6399
17092SOL    HW252519   1.821   6.442   7.958  0.3074 -0.4609 -1.0025
17093SOL     OW52520   5.969   6.548   7.426 -0.2770 -0.3755 -0.5437
17093SOL    HW152521   5.941   6.521   7.338 -2.3225 -1.0396  0.2827
17093SOL    HW252522   5.914   6.497   7.485  0.0489  1.1548  1.1142
17094SOL     OW52523   3.229   1.766   4.592 -0.1909  0.3162  0.1094
17094SOL    HW152524   3.223   1.807   4.505 -0.9988 -1.2366 -0.5761
17094SOL    HW252525   3.188   1.680   4.581  4.4601 -2.1295  0.6354
17095SOL     OW52526   5.118   5.235   7.662 -0.2984 -0.1699  0.2232
17095SOL    HW152527   5.117   5.141   7.683  2.5412 -0.2129  0.4394
17095SOL    HW252528   5.207   5.263   7.685 -0.6269  2.2465 -1.2931
17096SOL     OW52529   8.004   0.489   1.802 -0.6172 -0.0676  0.4358
17096SOL    HW152530   7.945   0.430   1.849 -1.1445 -1.0051 -1.3557
17096SOL    HW252531   7.992   0.467   1.710  1.7506  0.4643 -0.0417
17097SOL     OW52532   3.603   0.476   0.709  0.9543  0.4122  0.3261
17097SOL    HW152533   3.627   0.462   0.801  0.0602 -0.7263  0.4063
17097SOL    HW252534   3.661   0.546   0.679  3.3597 -1.2930  0.8819
17098SOL     OW52535   3.934   5.184   2.452 -0.2685  0.1104  0.0482
17098SOL    HW152536   3.872   5.204   2.522  0.2176  0.7678  0.2949
17098SOL    HW252537   3.993   5.259   2.450  0.0536 -0.1566 -0.7006
17099SOL     OW52538   1.135   6.443   0.879 -0.3658  0.1136 -0.2640
17099SOL    HW152539   1.101   6.430   0.968 -0.4391 -1.6295 -0.5198
17099SOL    HW252540   1.083   6.515   0.844 -0.6105  0.5570  0.9709
17100SOL     OW52541   4.215   4.469   5.143 -0.3738  0.0450 -0.3259
17100SOL    HW152542   4.272   4.486   5.068  1.2785  1.0556  1.1013
17100SOL    HW252543   4.147   4.535   5.138  0.3830  0.8287 -0.3012
17101SOL     OW52544   1.696   2.425   5.618 -0.0037 -0.2157 -0.1406
17101SOL    HW152545   1.619   2.441   5.673  0.3868  1.3344 -0.0334
17101SOL    HW252546   1.769   2.419   5.679  0.1473 -0.4219 -0.3401
17102SOL     OW52547   3.133   3.713   5.375 -0.5897  0.1114  0.2337
17102SOL    HW152548   3.207   3.766   5.404  2.0943 -2.4097 -1.6992
17102SOL    HW252549   3.096   3.677   5.456  1.8372 -0.5197  1.1171
17103SOL     OW52550   2.588   2.248   5.304  0.5172 -0.2249 -0.1540
17103SOL    HW152551   2.572   2.341   5.286  0.7636  0.0250  0.9170
17103SOL    HW252552   2.504   2.206   5.284  0.5357  0.1526 -1.0825
17104SOL     OW52553   2.371   1.629   1.991 -0.6374  0.3716 -0.7323
17104SOL    HW152554   2.363   1.564   2.061 -1.4342 -1.1787 -2.2199
17104SOL    HW252555   2.419   1.702   2.030  0.4028 -1.1881  0.9270
17105SOL     OW52556   5.159   7.455   0.114 -0.4808  0.6506  0.2914
17105SOL    HW152557   5.106   7.535   0.122 -0.1657  0.7910  1.0692
17105SOL    HW252558   5.157   7.417   0.202  0.4695  0.4984  0.2480
17106SOL     OW52559   2.879   2.938   6.386 -0.6899 -0.0121  0.4370
17106SOL    HW152560   2.821   2.871   6.423 -3.0636  0.1586 -2.6982
17106SOL    HW252561   2.819   2.999   6.342  1.6886  2.0733 -0.0281
17107SOL     OW52562   3.615   8.124   7.600 -0.2571 -0.0331  0.0084
17107SOL    HW152563   3.619   8.035   7.565  0.3261 -0.6298  1.5795
17107SOL    HW252564   3.698   8.135   7.647 -0.3724  1.3083 -0.0659
17108SOL     OW52565   8.241   2.588   2.246  0.2277  0.5918 -0.4390
17108SOL    HW152566   8.179   2.572   2.175  0.9330 -1.4012 -0.6399
17108SOL    HW252567   8.209   2.534   2.319  0.7496  0.8934  0.0175
17109SOL     OW52568   0.543   5.499   4.394  0.0076 -0.2092  0.1218
17109SOL    HW152569   0.493   5.581   4.402  1.5123  0.8685 -1.2094
17109SOL    HW252570   0.619   5.512   4.450  1.4873  0.2864 -1.9568
17110SOL     OW52571   8.249   4.769   1.670  0.5258 -0.3015 -0.2096
17110SOL    HW152572   8.209   4.800   1.589  0.4187 -0.6421 -0.2862
17110SOL    HW252573   8.197   4.809   1.740  0.8129  0.2504 -0.3084
17111SOL     OW52574   4.738   2.253   2.299  0.3964  0.0859 -0.4488
17111SOL    HW152575   4.804   2.241   2.368 -1.3067 -1.3481  0.9816
17111SOL    HW252576   4.683   2.324   2.332  0.5040  0.4597 -1.0767
17112SOL     OW52577   1.211   7.327   3.415  0.0178  0.2504  0.1011
17112SOL    HW152578   1.129   7.315   3.462  0.1265 -1.4839 -0.1004
17112SOL    HW252579   1.236   7.418   3.431 -0.4109 -0.0541  2.6181
17113SOL     OW52580   1.299   4.457   4.335 -0.1545 -0.2545  0.2354
17113SOL    HW152581   1.299   4.364   4.311  0.5576 -0.0581 -0.5365
17113SOL    HW252582   1.261   4.501   4.260  0.8830  0.2349 -0.0059
17114SOL     OW52583   0.632   4.787   4.442 -0.6071  0.2902  0.0428
17114SOL    HW152584   0.563   4.782   4.508 -1.1808 -2.0638 -0.6877
17114SOL    HW252585   0.711   4.810   4.492 -1.4197  0.4798  1.2555
17115SOL     OW52586   2.014   5.295   6.698  0.2865  0.0634  0.2614
17115SOL    HW152587   2.076   5.366   6.681  1.8653 -1.0716  1.1311
17115SOL    HW252588   1.930   5.338   6.707  0.8314  1.5742 -1.6365
17116SOL     OW52589   7.580   2.212   6.454  0.2948 -0.0233 -0.1318
17116SOL    HW152590   7.610   2.216   6.363 -0.4351  2.4669 -0.2937
17116SOL    HW252591   7.496   2.258   6.453 -0.1965 -0.8564  1.6233
17117SOL     OW52592   0.690   7.140   6.835  0.1571  0.1672  0.1886
17117SOL    HW152593   0.673   7.054   6.875 -0.1874 -0.1933 -0.7349
17117SOL    HW252594   0.631   7.199   6.882 -0.0814 -0.2192  0.3809
17118SOL     OW52595   5.507   1.212   5.341 -0.3922 -0.7635 -0.2377
17118SOL    HW152596   5.571   1.244   5.404 -0.4467 -1.0420 -0.0407
17118SOL    HW252597   5.551   1.219   5.257  0.1509 -1.6021 -0.0294
17119SOL     OW52598   3.929   3.848   8.254  0.2871  0.1619  0.2245
17119SOL    HW152599   3.946   3.894   8.335 -1.8042  0.0466  0.7661
17119SOL    HW252600   4.013   3.849   8.207  1.2872  0.9633  1.9892
17120SOL     OW52601   7.377   4.418   0.597  0.0218 -0.0167 -0.3555
17120SOL    HW152602   7.345   4.339   0.554  0.2424  1.0159 -2.5330
17120SOL    HW252603   7.421   4.467   0.527  1.1519  1.3586  1.2597
17121SOL     OW52604   5.046   6.432   5.433 -0.0856  0.2615 -0.1100
17121SOL    HW152605   5.012   6.470   5.352 -1.3398 -0.6272 -0.0227
17121SOL    HW252606   4.971   6.387   5.471  1.6222 -3.3965 -0.8377
17122SOL     OW52607   0.117   4.604   6.670  0.4093  0.0874 -0.1187
17122SOL    HW152608   0.178   4.673   6.696  1.2587 -0.4134 -0.7657
17122SOL    HW252609   0.165   4.523   6.684  0.0178 -0.2960 -0.9779
17123SOL     OW52610   2.418   7.621   2.371 -0.2447 -0.0881  0.1040
17123SOL    HW152611   2.421   7.715   2.388  1.2363  0.4148 -2.5344
17123SOL    HW252612   2.408   7.581   2.457 -1.0088  2.4842  1.2546
17124SOL     OW52613   7.704   7.858   7.502  0.1868 -0.4870 -0.1416
17124SOL    HW152614   7.793   7.829   7.522  0.3667 -0.8695 -1.4970
17124SOL    HW252615   7.708   7.891   7.413 -0.8151  0.4442  0.1438
17125SOL     OW52616   6.284   3.940   1.990  0.1807 -0.0375  0.0291
17125SOL    HW152617   6.321   3.880   2.055 -0.9661  0.4794  1.1926
17125SOL    HW252618   6.237   3.884   1.929 -1.6601 -0.3094  1.6217
17126SOL     OW52619   2.170   0.012   1.178 -0.2173  0.1696  0.0507
17126SOL    HW152620   2.196   0.021   1.086  0.8497 -0.2009  0.3187
17126SOL    HW252621   2.234  -0.047   1.216 -1.8627 -1.3525  0.5412
17127SOL     OW52622   5.115   3.296   4.132  0.2106 -0.4470  0.8388
17127SOL    HW152623   5.059   3.374   4.133 -1.9302 -1.8750 -2.0863
17127SOL    HW252624   5.186   3.319   4.072  0.1236 -0.3931  0.7564
17128SOL     OW52625   7.767   4.272   3.702 -0.2642 -0.8633  0.2639
17128SOL    HW152626   7.789   4.223   3.622  1.4834 -0.1607  0.2958
17128SOL    HW252627   7.695   4.329   3.676 -0.5222 -1.5225 -0.4894
17129SOL     OW52628   0.975   1.778   5.499 -0.0775  0.3408 -0.1613
17129SOL    HW152629   0.885   1.745   5.494 -0.7367  1.8966  1.2816
17129SOL    HW252630   1.007   1.748   5.584  0.3997  0.7530 -0.1955
17130SOL     OW52631   4.736   2.884   1.325 -0.5626  0.3787 -0.4676
17130SOL    HW152632   4.823   2.915   1.300 -1.1748  1.2760 -1.5379
17130SOL    HW252633   4.682   2.899   1.247 -1.1752 -2.2092 -0.5734
17131SOL     OW52634   5.822   4.972   7.879 -0.0148 -0.4427  0.0965
17131SOL    HW152635   5.874   4.968   7.960 -0.9117 -2.8787  0.5745
17131SOL    HW252636   5.873   4.922   7.815  0.8943  1.8144 -1.0230
17132SOL     OW52637   2.059   6.068   4.137  0.5331 -0.1485  0.3096
17132SOL    HW152638   2.067   6.130   4.064  0.9571 -1.0520 -0.4277
17132SOL    HW252639   1.993   6.005   4.108  1.0593 -0.7928  0.4999
17133SOL     OW52640   3.975   5.988   7.863  0.2071  0.7158 -0.3638
17133SOL    HW152641   3.955   5.963   7.953  0.8764 -0.4587 -0.5339
17133SOL    HW252642   4.070   5.979   7.857  0.5330  3.5466 -0.3662
17134SOL     OW52643   2.642   4.047   2.967  0.2623 -0.2222 -0.2619
17134SOL    HW152644   2.655   4.076   3.057  0.9300 -0.7539 -0.1880
17134SOL    HW252645   2.725   4.006   2.942  1.3305  2.8837 -2.2421
17135SOL     OW52646   4.735   0.482   6.996 -0.0617 -0.6654 -0.2387
17135SOL    HW152647   4.674   0.424   7.041 -1.3684 -0.7468 -2.0545
17135SOL    HW252648   4.806   0.424   6.967  0.2377 -0.7989  0.7716
17136SOL     OW52649   1.822   5.273   3.112  0.3689 -0.0470 -0.5004
17136SOL    HW152650   1.787   5.350   3.156  0.1186 -0.4261 -0.0237
17136SOL    HW252651   1.782   5.199   3.158  1.6928 -0.4800 -0.0271
17137SOL     OW52652   1.047   7.857   2.992  0.2225 -0.0992 -0.0068
17137SOL    HW152653   1.024   7.827   3.080 -0.4527 -0.4715 -0.3034
17137SOL    HW252654   0.964   7.855   2.943  0.2934  1.5282 -0.2436
17138SOL     OW52655   0.485   3.629   8.108 -0.0815 -0.4497 -0.5488
17138SOL    HW152656   0.513   3.574   8.035 -0.6931 -1.7924  0.2076
17138SOL    HW252657   0.460   3.567   8.176 -3.9505  0.7157 -0.8214
17139SOL     OW52658   3.123   7.676   6.106 -0.0294 -0.2497 -0.4000
17139SOL    HW152659   3.103   7.684   6.013  5.0684  0.1031 -1.5874
17139SOL    HW252660   3.098   7.761   6.143  1.2537  0.9221 -2.1650
17140SOL     OW52661   5.697   4.334   7.585 -0.6544 -0.5518 -0.3647
17140SOL    HW152662   5.728   4.396   7.519  1.3735  1.6371  2.5047
17140SOL    HW252663   5.613   4.369   7.613 -0.9395 -0.7898 -0.9305
17141SOL     OW52664   7.301   3.235   4.852 -0.4873  0.2713 -0.6865
17141SOL    HW152665   7.373   3.279   4.897 -1.0059  0.5091 -0.0739
17141SOL    HW252666   7.227   3.295   4.861 -1.3500 -0.9270  0.6315
17142SOL     OW52667   6.965   0.109   0.114 -0.0444 -0.0117  0.0519
17142SOL    HW152668   7.041   0.148   0.156  0.0387  0.4399 -0.5016
17142SOL    HW252669   6.995   0.088   0.025 -0.9155  1.3030 -0.5627
17143SOL     OW52670   6.125   0.767   6.758  0.0151  0.3323  0.0587
17143SOL    HW152671   6.188   0.746   6.689 -0.8517 -0.3821 -0.5198
17143SOL    HW252672   6.175   0.758   6.840  0.6352 -0.3003 -0.3890
17144SOL     OW52673   2.124   2.726   7.747 -0.1116  0.1368  0.2939
17144SOL    HW152674   2.155   2.637   7.737 -1.0578 -0.1330 -0.2979
17144SOL    HW252675   2.055   2.720   7.814  0.7347  0.6391  1.2207
17145SOL     OW52676   3.016   7.696   5.873  0.0609 -0.0418 -0.1257
17145SOL    HW152677   2.948   7.763   5.877  1.8083  1.8786 -1.7296
17145SOL    HW252678   3.045   7.697   5.781  2.0799 -0.9999  0.4779
17146SOL     OW52679   1.622   4.145   5.681  0.3443 -0.2969  0.0016
17146SOL    HW152680   1.678   4.200   5.627  1.2138  0.5300  1.7138
17146SOL    HW252681   1.533   4.175   5.660  0.7955  1.6971  0.8169
17147SOL     OW52682   5.597   6.355   4.207 -0.6207 -0.4210 -0.1371
17147SOL    HW152683   5.621   6.446   4.187 -2.0356 -0.4639 -2.1634
17147SOL    HW252684   5.582   6.355   4.301  1.9125  0.8443  0.3244
17148SOL     OW52685   4.624   6.916   3.738 -0.2481 -0.1781  0.3452
17148SOL    HW152686   4.593   6.826   3.728 -0.8965  0.0566  0.2412
17148SOL    HW252687   4.574   6.951   3.811 -1.8503  0.9094 -1.2358
17149SOL     OW52688   3.678   5.756   6.063 -0.1308  0.0430  0.2828
17149SOL    HW152689   3.708   5.672   6.027  2.2095 -0.0180  2.1828
17149SOL    HW252690   3.751   5.816   6.047 -0.8437  1.1156  0.9634
17150SOL     OW52691   7.165   3.946   1.894 -0.4389 -0.3661  0.2742
17150SOL    HW152692   7.187   4.031   1.857 -1.1758 -0.1436  0.3428
17150SOL    HW252693   7.227   3.935   1.967 -0.4181  0.1570  0.3363
17151SOL     OW52694   1.844   2.686   6.672  0.0613 -0.1461  0.4239
17151SOL    HW152695   1.811   2.614   6.618 -0.9725 -1.8021  3.1635
17151SOL    HW252696   1.939   2.675   6.670  0.0160 -0.4723 -0.6448
17152SOL     OW52697   1.685   0.240   5.046  0.1335 -0.2953 -0.3977
17152SOL    HW152698   1.614   0.176   5.044 -0.4991  0.4218 -1.5814
17152SOL    HW252699   1.684   0.280   4.959 -1.0224  3.0030  1.0402
17153SOL     OW52700   0.822   1.808   7.527 -0.3133  0.3792 -0.4257
17153SOL    HW152701   0.886   1.828   7.459  0.0691  0.5269 -0.0210
17153SOL    HW252702   0.750   1.870   7.510  0.2346  1.1255 -0.0600
17154SOL     OW52703   7.830   5.502   4.378  0.1340  0.4157 -0.1141
17154SOL    HW152704   7.747   5.505   4.426 -0.6299 -0.9970 -1.3207
17154SOL    HW252705   7.870   5.588   4.395 -1.6143  1.1574  0.3831
17155SOL     OW52706   0.539   7.755   7.746 -0.4852 -0.0613  0.6689
17155SOL    HW152707   0.527   7.845   7.775  1.1976  0.6700 -0.8762
17155SOL    HW252708   0.628   7.732   7.772 -0.3487 -0.7304 -0.3519
17156SOL     OW52709   0.231   2.111   0.538  0.2927  0.4981 -0.2171
17156SOL    HW152710   0.139   2.136   0.538  0.1090 -0.0912 -1.6405
17156SOL    HW252711   0.240   2.051   0.612 -0.7057 -0.2116 -0.6528
17157SOL     OW52712   4.986   3.183   5.496  0.0208 -0.1542 -0.4747
17157SOL    HW152713   4.956   3.165   5.407  1.2265  0.7782 -1.0842
17157SOL    HW252714   4.966   3.275   5.510  0.1660 -0.2072  0.0883
17158SOL     OW52715   2.168   3.924   4.930  0.4250 -0.2406  0.4456
17158SOL    HW152716   2.221   4.004   4.929 -1.1900  0.8613 -0.9325
17158SOL    HW252717   2.080   3.954   4.951  0.2572 -2.0057  2.3674
17159SOL     OW52718   3.111   0.139   8.033 -0.5543  0.4712  0.1118
17159SOL    HW152719   3.103   0.209   7.968  1.3059 -0.2309 -0.9079
17159SOL    HW252720   3.051   0.071   8.002 -2.0989  1.4402  0.9125
17160SOL     OW52721   0.383   1.930   5.880  0.0478  0.3052 -0.6022
17160SOL    HW152722   0.294   1.917   5.912 -0.4506 -0.0470 -2.1050
17160SOL    HW252723   0.439   1.893   5.948 -0.9530  0.5402  0.3498
17161SOL     OW52724   6.857   1.283   4.785  0.5907 -0.4507 -0.0844
17161SOL    HW152725   6.817   1.275   4.698  0.3252 -0.7026  0.0605
17161SOL    HW252726   6.949   1.260   4.771  0.6473 -0.0657 -0.3803
17162SOL     OW52727   5.003   3.022   5.836 -0.5846 -0.1559 -0.1033
17162SOL    HW152728   4.924   2.967   5.838 -0.1764 -0.7526 -0.4008
17162SOL    HW252729   4.970   3.111   5.852 -1.2859 -0.4370  0.0530
17163SOL     OW52730   1.310   2.522   3.797 -0.2546  0.1806  0.7856
17163SOL    HW152731   1.219   2.503   3.778 -0.5121 -0.1943  2.3718
17163SOL    HW252732   1.308   2.590   3.864  0.6080 -0.9559  1.9961
17164SOL     OW52733   0.074   5.572   1.097 -0.2187 -0.2208 -0.3214
17164SOL    HW152734   0.143   5.575   1.164 -0.6121 -0.3152  0.0892
17164SOL    HW252735   0.032   5.488   1.110 -0.4984 -0.1065 -0.4874
17165SOL     OW52736   4.659   7.094   4.768 -0.2548 -0.4198  0.1822
17165SOL    HW152737   4.730   7.135   4.718  0.1745  0.9560  1.8228
17165SOL    HW252738   4.601   7.167   4.789 -0.9491 -1.1509  0.7886
17166SOL     OW52739   0.607   5.462   1.747 -0.4548 -0.0428 -0.1744
17166SOL    HW152740   0.569   5.525   1.687  0.4624  1.1304  0.4483
17166SOL    HW252741   0.606   5.506   1.832  1.4713 -0.3092  0.0141
17167SOL     OW52742   7.281   3.813   4.145 -0.1324 -0.1174  0.7033
17167SOL    HW152743   7.325   3.891   4.178  0.1497 -1.0293  2.5493
17167SOL    HW252744   7.341   3.779   4.078  1.0384 -0.2439  1.7941
17168SOL     OW52745   3.517   1.257   8.307 -0.6231 -0.7049 -0.0548
17168SOL    HW152746   3.593   1.315   8.306  0.1529 -1.7165  0.1382
17168SOL    HW252747   3.553   1.169   8.307 -1.7543 -1.1980  2.5398
17169SOL     OW52748   0.642   6.149   7.015  0.4265  0.4334  0.1180
17169SOL    HW152749   0.658   6.065   6.973  0.8063 -0.0006  1.1031
17169SOL    HW252750   0.547   6.156   7.020  0.2801  1.6246 -3.0018
17170SOL     OW52751   6.115   1.816   0.247  0.4081 -0.6187 -0.4642
17170SOL    HW152752   6.068   1.753   0.302 -0.0627 -0.0395 -0.1997
17170SOL    HW252753   6.200   1.826   0.290 -0.2505  0.4407  0.6270
17171SOL     OW52754   6.817   4.292   1.255  0.4106  0.1169  0.1853
17171SOL    HW152755   6.832   4.386   1.265 -0.9361  0.5337 -1.4372
17171SOL    HW252756   6.732   4.286   1.212  1.0988 -1.7860 -0.9873
17172SOL     OW52757   7.063   6.430   5.284  0.1712 -0.2220 -0.2321
17172SOL    HW152758   7.015   6.503   5.324  0.3991 -0.8327  1.1822
17172SOL    HW252759   7.107   6.469   5.209  1.1518  1.3533  1.1211
17173SOL     OW52760   2.446   0.236   1.771  0.1769 -0.0701  0.1290
17173SOL    HW152761   2.360   0.258   1.805  0.7457  0.5871  1.1587
17173SOL    HW252762   2.505   0.300   1.810  1.3041 -1.1883  0.3002
17174SOL     OW52763   7.061   1.312   6.008 -0.3572 -0.6918 -0.2559
17174SOL    HW152764   7.065   1.332   6.101 -0.2018  1.2902 -0.6708
17174SOL    HW252765   6.968   1.310   5.987 -0.3330  1.5190 -0.6027
17175SOL     OW52766   1.986   0.533   1.414  0.3433 -0.3016 -0.6325
17175SOL    HW152767   2.071   0.511   1.376 -0.2425 -1.6896 -1.1579
17175SOL    HW252768   1.925   0.473   1.373 -0.8518  0.4768 -0.0167
17176SOL     OW52769   4.458   3.577   5.557 -0.1221 -0.0303 -0.1240
17176SOL    HW152770   4.439   3.491   5.595 -1.3883 -0.0272 -0.7680
17176SOL    HW252771   4.468   3.634   5.633  0.6669 -0.7241  0.3070
17177SOL     OW52772   8.108   7.688   6.805  0.7032 -0.2207  0.0545
17177SOL    HW152773   8.109   7.780   6.777 -0.8321 -0.9162 -2.4508
17177SOL    HW252774   8.197   7.658   6.789  1.2514  0.8434  0.9942
17178SOL     OW52775   1.843   3.408   5.274 -0.3531 -0.4108  0.3837
17178SOL    HW152776   1.856   3.503   5.274 -0.9958 -0.3183  0.1754
17178SOL    HW252777   1.776   3.393   5.341 -0.6014 -0.6609  0.0854
17179SOL     OW52778   1.973   7.819   8.154 -0.6633 -0.5937  0.1164
17179SOL    HW152779   2.062   7.782   8.158  0.1807  1.2687 -1.0834
17179SOL    HW252780   1.963   7.847   8.063 -1.9690  0.4891  0.5905
17180SOL     OW52781   2.846   7.681   5.262  0.2901  0.2751 -0.3105
17180SOL    HW152782   2.898   7.664   5.184 -2.0100  0.7981 -1.9825
17180SOL    HW252783   2.760   7.644   5.243 -0.1367 -0.1484  2.2188
17181SOL     OW52784   1.159   0.072   7.245  0.0280  0.5303 -0.5132
17181SOL    HW152785   1.189  -0.018   7.229 -0.0424  0.2540  0.9165
17181SOL    HW252786   1.205   0.124   7.178  1.0685 -0.3756 -0.5238
17182SOL     OW52787   1.086   1.685   5.746  0.3339 -0.6296 -0.4568
17182SOL    HW152788   1.075   1.698   5.840  0.6938 -1.3188 -0.3125
17182SOL    HW252789   1.145   1.610   5.739 -0.8512 -1.5141 -1.2364
17183SOL     OW52790   2.551   0.794   5.133  0.0845  0.2846  0.0025
17183SOL    HW152791   2.564   0.867   5.072  2.2102 -0.7769 -0.8503
17183SOL    HW252792   2.601   0.819   5.210  0.5604 -0.1160 -0.1736
17184SOL     OW52793   3.330   1.249   7.690  0.1552 -0.0996 -0.0758
17184SOL    HW152794   3.316   1.322   7.750  0.0850  0.2460 -0.5105
17184SOL    HW252795   3.391   1.284   7.624 -0.7724 -0.0704 -0.9238
17185SOL     OW52796   4.853   0.268   0.276 -0.4722  0.2161  0.5871
17185SOL    HW152797   4.778   0.215   0.248 -1.6910  1.7276  0.8878
17185SOL    HW252798   4.862   0.334   0.208  2.8832 -2.0484 -1.3044
17186SOL     OW52799   4.688   5.640   7.558 -0.3900  0.3091 -0.3431
17186SOL    HW152800   4.739   5.705   7.607 -1.5375  1.0113 -0.0394
17186SOL    HW252801   4.742   5.561   7.558  0.3369  0.7949  0.6471
17187SOL     OW52802   2.333   4.504   7.378  0.0888  0.0654  0.1361
17187SOL    HW152803   2.408   4.502   7.438  2.1929  0.7959 -2.3581
17187SOL    HW252804   2.351   4.435   7.315 -2.4072 -1.1133  0.6591
17188SOL     OW52805   1.939   0.976   4.859  0.0013 -0.1669 -0.5363
17188SOL    HW152806   1.941   0.915   4.934 -1.3251  2.1694  1.4878
17188SOL    HW252807   1.938   0.919   4.782  2.0067 -2.6541  1.1913
17189SOL     OW52808   3.547   6.662   2.053 -0.7775  0.2219  0.0755
17189SOL    HW152809   3.503   6.745   2.072 -0.5756  0.1523  0.8985
17189SOL    HW252810   3.586   6.636   2.137  0.0379 -0.1874 -0.4251
17190SOL     OW52811   8.152   0.502   5.435  0.2185  0.7638 -0.1449
17190SOL    HW152812   8.095   0.434   5.471 -1.0801  1.3738 -1.0266
17190SOL    HW252813   8.191   0.544   5.512  1.0499 -0.9774  0.3997
17191SOL     OW52814   0.826   3.782   5.249  0.3777 -0.7107  0.0676
17191SOL    HW152815   0.882   3.768   5.172  0.7604  0.4166  0.1335
17191SOL    HW252816   0.879   3.835   5.308 -0.5878 -0.0223  0.3292
17192SOL     OW52817   7.879   5.871   4.597  0.6619 -0.2356 -0.2855
17192SOL    HW152818   7.847   5.897   4.510  1.4312  0.6020 -0.3245
17192SOL    HW252819   7.902   5.778   4.587 -1.7186 -0.8541 -0.2628
17193SOL     OW52820   6.270   1.344   3.845 -0.0366 -0.7035  0.5125
17193SOL    HW152821   6.352   1.389   3.826 -0.1646 -0.1066  1.3337
17193SOL    HW252822   6.229   1.331   3.759  0.5047 -0.2212  0.1765
17194SOL     OW52823   5.616   5.755   1.456  0.5384  0.1240  0.1637
17194SOL    HW152824   5.652   5.796   1.377  0.4344 -1.4846 -0.7438
17194SOL    HW252825   5.638   5.815   1.527  2.9288  0.3417 -0.7191
17195SOL     OW52826   0.946   3.087   2.256 -0.1916  0.3466 -0.1162
17195SOL    HW152827   0.915   3.106   2.168  2.0584 -0.8815 -1.2078
17195SOL    HW252828   0.881   3.028   2.293  0.3609 -1.5215 -2.0596
17196SOL     OW52829   5.554   2.780   7.085  0.2308 -0.3457 -0.4401
17196SOL    HW152830   5.498   2.832   7.143 -0.3582 -1.7256  0.2504
17196SOL    HW252831   5.529   2.808   6.997  0.4097  1.0305 -0.0696
17197SOL     OW52832   7.175   6.453   1.680  0.3159  0.3918  0.0440
17197SOL    HW152833   7.183   6.360   1.700 -0.8174 -0.0222 -1.3673
17197SOL    HW252834   7.185   6.496   1.765 -1.7247 -1.1743  1.1517
17198SOL     OW52835   3.479   1.185   0.258  0.3263 -0.1398  0.4013
17198SOL    HW152836   3.481   1.268   0.305  2.4443 -0.1541  0.3715
17198SOL    HW252837   3.466   1.210   0.167  3.0323  0.2997  0.1157
17199SOL     OW52838   1.890   5.113   2.855 -0.1631  0.0180 -0.0574
17199SOL    HW152839   1.849   5.028   2.864  1.3106 -0.6175  0.9068
17199SOL    HW252840   1.853   5.150   2.775 -2.4138 -0.6046  0.6811
17200SOL     OW52841   5.602   7.323   6.824  0.1592  0.0412  0.0506
17200SOL    HW152842   5.514   7.338   6.790  0.3423  0.2041 -0.3533
17200SOL    HW252843   5.589   7.307   6.918 -0.2981  0.0636 -0.0084
17201SOL     OW52844   1.520   2.856   6.939  0.3478 -0.0426  0.0074
17201SOL    HW152845   1.607   2.862   6.900 -0.1809  1.3735 -1.0086
17201SOL    HW252846   1.536   2.862   7.034  1.3572  0.1057 -0.1628
17202SOL     OW52847   6.216   4.178   2.541 -0.1754 -0.4867  0.1012
17202SOL    HW152848   6.267   4.139   2.612 -0.9542 -2.3594 -0.3460
17202SOL    HW252849   6.179   4.258   2.578  0.4727 -0.7832  1.4000
17203SOL     OW52850   2.179   5.184   2.878  0.0431  0.0851 -0.1268
17203SOL    HW152851   2.239   5.238   2.827 -0.6601  1.0681  0.0793
17203SOL    HW252852   2.226   5.101   2.890  1.2212  0.7213 -0.2491
17204SOL     OW52853   3.651   7.553   4.547 -0.3222 -0.4099  0.3773
17204SOL    HW152854   3.631   7.461   4.529  1.8432 -0.7210 -0.6271
17204SOL    HW252855   3.730   7.571   4.496  0.0020  1.6639  1.5311
17205SOL     OW52856   1.629   0.900   3.487  0.4397 -0.4428 -0.2790
17205SOL    HW152857   1.677   0.821   3.463 -0.2449 -0.4662 -1.6492
17205SOL    HW252858   1.538   0.872   3.497  0.4804 -0.1503  0.9599
17206SOL     OW52859   7.514   6.253   5.673 -0.4828 -1.2369  0.3277
17206SOL    HW152860   7.497   6.188   5.605 -1.6742 -0.7609  0.1677
17206SOL    HW252861   7.453   6.324   5.655  0.7079 -0.1200  0.5829
17207SOL     OW52862   2.706   7.219   0.589 -0.0815  0.4663  0.1848
17207SOL    HW152863   2.679   7.227   0.498 -2.0972  0.8663  0.7806
17207SOL    HW252864   2.658   7.289   0.635  0.3963 -0.1303  1.6352
17208SOL     OW52865   4.063   4.698   2.415  0.3962 -0.1394  0.0359
17208SOL    HW152866   4.055   4.711   2.321 -1.5837 -1.3308  0.0210
17208SOL    HW252867   4.076   4.786   2.450  0.6517  0.3668 -1.2920
17209SOL     OW52868   6.621   6.825   7.718 -0.1277  0.0396  0.5812
17209SOL    HW152869   6.540   6.790   7.682  0.5852 -1.0262 -0.0257
17209SOL    HW252870   6.594   6.894   7.779 -1.4605 -0.1274  0.1739
17210SOL     OW52871   0.086   6.017   0.070  0.7673 -0.1780 -0.7312
17210SOL    HW152872   0.095   5.927   0.102  0.6266 -0.0439 -0.3142
17210SOL    HW252873   0.044   6.007  -0.016 -1.5997 -0.3737  0.4104
17211SOL     OW52874   8.083   0.481   4.200 -0.6963 -0.3170 -0.0689
17211SOL    HW152875   8.136   0.525   4.266  0.3116 -1.5645 -0.0466
17211SOL    HW252876   8.096   0.388   4.215 -1.7614 -0.6312 -0.9793
17212SOL     OW52877   5.764   6.806   6.998  0.2260  0.3406  0.4861
17212SOL    HW152878   5.720   6.889   7.017  2.4371  1.3038  1.4767
17212SOL    HW252879   5.826   6.826   6.929  0.4808 -0.5950  0.4328
17213SOL     OW52880   6.085   7.182   6.126 -0.5311 -0.3237 -0.0097
17213SOL    HW152881   6.180   7.178   6.142 -0.8039  0.3975  1.8926
17213SOL    HW252882   6.066   7.100   6.080  1.1906  0.0637 -1.5020
17214SOL     OW52883   5.206   4.375   2.463 -0.3501 -0.2737 -0.2114
17214SOL    HW152884   5.113   4.374   2.440  0.2958  1.5875 -3.1994
17214SOL    HW252885   5.244   4.305   2.410  0.2179  0.1698 -0.3924
17215SOL     OW52886   6.283   3.688   5.113  0.0366  0.7102 -0.1837
17215SOL    HW152887   6.340   3.646   5.048 -1.8733 -1.6344 -0.4466
17215SOL    HW252888   6.336   3.693   5.192  1.4344  0.8805 -1.1148
17216SOL     OW52889   6.651   4.006   3.525 -0.2879 -0.5217  0.4810
17216SOL    HW152890   6.712   3.947   3.481  0.2827  0.4244  0.0008
17216SOL    HW252891   6.673   3.997   3.618  1.6726  1.0166  0.1884
17217SOL     OW52892   7.930   5.239   4.642  0.1495 -1.0540  0.2851
17217SOL    HW152893   8.015   5.241   4.597  0.1575 -2.4608  0.2084
17217SOL    HW252894   7.880   5.309   4.601  1.4605  0.1834  0.7235
17218SOL     OW52895   6.137   5.278   3.468  0.2349 -0.1395 -0.2838
17218SOL    HW152896   6.061   5.313   3.421  0.2369 -2.2059 -1.8932
17218SOL    HW252897   6.100   5.230   3.541  0.0405 -0.2831 -0.4753
17219SOL     OW52898   2.373   4.558   7.690 -0.0342  0.0140 -0.3990
17219SOL    HW152899   2.332   4.644   7.704  1.0071  0.6065 -0.9657
17219SOL    HW252900   2.351   4.509   7.769 -1.1365  0.6000 -0.3193
17220SOL     OW52901   5.205   5.028   2.338 -0.0212  0.5697 -0.0334
17220SOL    HW152902   5.164   4.947   2.305  0.2904  0.7821 -0.9670
17220SOL    HW252903   5.296   5.022   2.309  0.0221  1.2202 -0.0314
17221SOL     OW52904   4.712   7.767   3.177  0.4236 -0.1537 -0.4527
17221SOL    HW152905   4.738   7.699   3.239  0.0940 -0.3323 -0.5058
17221SOL    HW252906   4.629   7.800   3.213  0.7955  0.5103 -0.1981
17222SOL     OW52907   1.002   6.131   8.295  0.2337  0.1760 -0.7483
17222SOL    HW152908   1.076   6.188   8.275 -0.6770  1.0410 -1.7429
17222SOL    HW252909   0.942   6.143   8.221 -1.2294  0.0427  0.3920
17223SOL     OW52910   3.927   2.014   2.074 -0.1121  0.3438 -0.3893
17223SOL    HW152911   3.950   2.104   2.094 -1.0865  0.6872 -0.7918
17223SOL    HW252912   3.954   2.002   1.982 -1.2828  0.6735 -0.7864
17224SOL     OW52913   0.757   1.634   6.069  0.1660 -0.3475  1.0662
17224SOL    HW152914   0.829   1.698   6.070  0.0937 -0.2189 -0.4277
17224SOL    HW252915   0.780   1.573   5.999 -2.0235  0.7221 -0.6606
17225SOL     OW52916   7.179   5.433   7.527 -0.1234 -0.5474  0.0449
17225SOL    HW152917   7.174   5.376   7.450  1.6132 -1.8192  0.8199
17225SOL    HW252918   7.240   5.502   7.501 -1.7271  0.6049 -0.6754
17226SOL     OW52919   1.799   7.357   3.746  0.2468  0.1922 -0.3537
17226SOL    HW152920   1.864   7.307   3.698 -2.1966 -2.5741 -0.9440
17226SOL    HW252921   1.739   7.390   3.679 -1.1501 -0.6726  0.4175
17227SOL     OW52922   6.765   3.656   7.854  0.3385 -0.1449  0.0596
17227SOL    HW152923   6.845   3.604   7.860  0.7969  0.4657 -0.7072
17227SOL    HW252924   6.786   3.737   7.901 -0.9404 -1.3193  2.7429
17228SOL     OW52925   7.541   7.205   4.480 -0.3401  0.3972  0.4314
17228SOL    HW152926   7.493   7.130   4.514 -0.4773 -0.4786 -1.6032
17228SOL    HW252927   7.497   7.281   4.518 -2.5560 -0.4351 -0.3896
17229SOL     OW52928   4.848   7.317   3.901  0.0115 -0.6039 -0.1991
17229SOL    HW152929   4.888   7.379   3.840  0.0039 -0.8408 -0.4464
17229SOL    HW252930   4.922   7.281   3.950  0.0477 -0.6225 -0.2660
17230SOL     OW52931   1.567   6.899   4.546  0.4497  0.4843  0.6546
17230SOL    HW152932   1.526   6.945   4.473 -0.1022  0.5614  1.0088
17230SOL    HW252933   1.553   6.807   4.527  0.0826  0.5109  0.7876
17231SOL     OW52934   5.527   4.468   5.857  0.1707  0.4400  0.4321
17231SOL    HW152935   5.567   4.547   5.822 -1.4047  0.7415 -0.7264
17231SOL    HW252936   5.465   4.440   5.790 -1.7725  0.1319  2.2846
17232SOL     OW52937   2.715   3.485   1.222  0.3469 -0.4133  0.3001
17232SOL    HW152938   2.693   3.565   1.173 -3.8750 -1.3801  0.4140
17232SOL    HW252939   2.787   3.446   1.172  0.5914  1.9786 -1.3599
17233SOL     OW52940   4.712   1.430   2.639  0.0943 -0.3688  0.3404
17233SOL    HW152941   4.629   1.467   2.610 -0.7474 -3.1154 -0.9287
17233SOL    HW252942   4.765   1.506   2.664 -0.8309  1.8120 -3.9168
17234SOL     OW52943   0.112   7.209   5.187  0.0217 -0.1229 -0.1434
17234SOL    HW152944   0.029   7.165   5.208 -0.5879 -0.1387 -2.4383
17234SOL    HW252945   0.102   7.298   5.221 -1.2959  0.1362 -1.1770
17235SOL     OW52946   7.797   4.804   3.814 -0.2570  0.3916 -0.3509
17235SOL    HW152947   7.770   4.720   3.776  2.1961  0.0230 -1.3433
17235SOL    HW252948   7.775   4.868   3.747 -1.4987  0.4881  0.1286
17236SOL     OW52949   3.999   3.042   1.020  0.4678  0.4427 -0.6065
17236SOL    HW152950   3.951   2.976   0.971  0.1511  0.8082 -0.7955
17236SOL    HW252951   3.980   3.023   1.112  0.0343  0.5332 -0.6776
17237SOL     OW52952   4.568   3.394   1.949  0.0469  0.3760 -0.2095
17237SOL    HW152953   4.500   3.428   1.891  1.3969  0.4524 -1.7706
17237SOL    HW252954   4.581   3.465   2.013 -0.9059  0.6009 -0.2467
17238SOL     OW52955   1.118   5.399   0.174  0.1507 -0.7357  0.2370
17238SOL    HW152956   1.127   5.494   0.176  0.1472 -0.7290 -0.1157
17238SOL    HW252957   1.107   5.377   0.082 -2.2306 -0.8712  0.5235
17239SOL     OW52958   3.834   7.792   2.776 -0.1473  0.1865 -0.0632
17239SOL    HW152959   3.798   7.751   2.697 -0.1151  2.6472 -1.3903
17239SOL    HW252960   3.758   7.808   2.832 -0.6694  1.7797 -1.1853
17240SOL     OW52961   0.098   0.414   6.745  0.1618  0.1526 -0.4379
17240SOL    HW152962   0.141   0.329   6.747 -1.0650 -0.4742  0.3612
17240SOL    HW252963   0.030   0.405   6.679 -0.6216  0.1750  0.3537
17241SOL     OW52964   5.514   4.080   5.335 -0.6143  0.0323 -0.2578
17241SOL    HW152965   5.502   4.173   5.353 -1.9321  0.1978 -1.8091
17241SOL    HW252966   5.518   4.075   5.240 -1.3236 -1.5753 -0.2103
17242SOL     OW52967   6.974   2.050   2.617 -0.0037 -0.6169  0.2421
17242SOL    HW152968   7.028   2.105   2.561 -1.2571  0.1840 -0.1974
17242SOL    HW252969   6.898   2.028   2.563  0.2549 -2.3955  0.5759
17243SOL     OW52970   7.775   7.581   3.398 -0.1053 -1.0678 -0.0032
17243SOL    HW152971   7.849   7.528   3.427 -0.0389 -0.7878  0.3625
17243SOL    HW252972   7.704   7.519   3.385  0.1912 -1.3375 -0.3483
17244SOL     OW52973   3.732   4.960   6.813  0.3030  0.0078  0.1161
17244SOL    HW152974   3.821   4.994   6.819 -0.0309  0.6973  1.4095
17244SOL    HW252975   3.685   5.002   6.885 -0.7257 -1.3829  0.2929
17245SOL     OW52976   0.335   2.803   4.388  0.0195 -0.3026  0.4033
17245SOL    HW152977   0.262   2.750   4.419  2.4106 -2.7852  2.0543
17245SOL    HW252978   0.322   2.810   4.294 -3.2979  0.8811  0.9025
17246SOL     OW52979   0.798   5.306   2.448  0.3305 -0.5212  0.0629
17246SOL    HW152980   0.862   5.309   2.377 -1.0939 -0.9222 -1.2808
17246SOL    HW252981   0.843   5.261   2.519  1.2616 -1.5951 -1.1645
17247SOL     OW52982   2.894   3.400   3.944  0.2111  0.4524 -0.2959
17247SOL    HW152983   2.879   3.495   3.938 -0.3955  0.4590  1.0747
17247SOL    HW252984   2.855   3.364   3.865 -4.3980  0.8217  1.6501
17248SOL     OW52985   2.978   4.233   6.650 -0.4635  0.0882 -0.2027
17248SOL    HW152986   3.073   4.234   6.638 -0.7513 -0.1334 -2.9325
17248SOL    HW252987   2.964   4.195   6.736  1.8595 -2.2908 -0.8404
17249SOL     OW52988   8.262   6.557   3.806  0.2862  0.1562 -0.5534
17249SOL    HW152989   8.168   6.568   3.793  0.4403  0.7306 -1.2079
17249SOL    HW252990   8.302   6.610   3.737  1.1050  0.6668  0.2998
17250SOL     OW52991   3.933   1.016   0.375 -0.0218  0.8191  0.1740
17250SOL    HW152992   3.888   1.096   0.403  3.2584  3.2377 -1.1967
17250SOL    HW252993   4.014   1.015   0.425  0.4850 -1.0370 -0.6527
17251SOL     OW52994   6.437   1.076   6.503 -0.3035 -0.2857 -0.3200
17251SOL    HW152995   6.455   1.029   6.585 -1.4926  0.2892  0.2813
17251SOL    HW252996   6.391   1.013   6.449 -1.2820 -0.0525  0.2231
17252SOL     OW52997   7.056   4.949   4.403 -0.5124 -0.0319  0.0413
17252SOL    HW152998   7.011   4.896   4.338  1.7968 -0.7682 -0.9870
17252SOL    HW252999   7.145   4.915   4.406  0.0508  1.4717  1.9472
17253SOL     OW53000   5.414   7.800   1.198  0.6064 -0.0350  0.2965
17253SOL    HW153001   5.471   7.783   1.123 -0.2153 -1.3024 -0.0678
17253SOL    HW253002   5.393   7.893   1.192  0.2413 -0.2086 -1.2619
17254SOL     OW53003   6.680   8.198   7.635  0.4762  0.5806  0.6521
17254SOL    HW153004   6.602   8.243   7.666 -0.2533 -1.2748  1.5955
17254SOL    HW253005   6.745   8.212   7.704  0.2230  0.1598  0.9831
17255SOL     OW53006   7.248   1.213   2.722 -0.1572 -0.6854  0.1571
17255SOL    HW153007   7.207   1.283   2.670 -0.3750 -0.4452  0.6490
17255SOL    HW253008   7.255   1.250   2.810 -1.4579 -1.7686  0.7183
17256SOL     OW53009   1.780   2.793   2.647 -0.0699  0.4487  0.5656
17256SOL    HW153010   1.727   2.768   2.722  0.3818  0.6794  0.9696
17256SOL    HW253011   1.767   2.887   2.639 -0.4532  0.3524  0.0911
17257SOL     OW53012   2.390   8.183   2.379  0.2943 -0.0475 -0.1862
17257SOL    HW153013   2.452   8.248   2.411 -0.2334  1.0834 -1.4073
17257SOL    HW253014   2.317   8.187   2.441  0.3097  0.4419 -0.1989
17258SOL     OW53015   5.884   7.354   6.160  0.3046 -0.5976 -0.1370
17258SOL    HW153016   5.948   7.283   6.163  1.2093  0.1172 -1.9487
17258SOL    HW253017   5.804   7.315   6.196  0.7874 -2.5353 -1.0941
17259SOL     OW53018   0.536   0.450   7.603 -0.1446  0.2588  0.5627
17259SOL    HW153019   0.481   0.511   7.652 -0.3128 -0.7891  1.6986
17259SOL    HW253020   0.488   0.437   7.520  0.1012  1.9581  0.1391
17260SOL     OW53021   0.182   0.229   0.168  0.0105  0.0153 -0.0456
17260SOL    HW153022   0.102   0.281   0.173 -0.3113 -0.5356  0.5084
17260SOL    HW253023   0.240   0.280   0.111 -0.9363  0.1300 -0.9090
17261SOL     OW53024   3.094   6.976   4.718 -0.0768 -0.4862 -0.4703
17261SOL    HW153025   3.174   6.925   4.709 -0.6221 -1.3141 -0.7513
17261SOL    HW253026   3.064   6.989   4.628  1.0847  2.0330 -0.5507
17262SOL     OW53027   4.262   6.294   1.264  0.0228 -0.1828 -0.2754
17262SOL    HW153028   4.263   6.282   1.169  0.4382 -1.7588 -0.0878
17262SOL    HW253029   4.184   6.248   1.294 -0.1946  0.4441  0.1483
17263SOL     OW53030   7.960   1.625   1.464 -0.0792  0.0982  0.0082
17263SOL    HW153031   8.010   1.665   1.393  1.1425 -2.6381 -0.7444
17263SOL    HW253032   7.959   1.532   1.443 -2.0525 -0.4186  2.1720
17264SOL     OW53033   4.112   6.833   6.858 -0.0311 -0.9507 -0.5782
17264SOL    HW153034   4.135   6.871   6.773  1.2751 -2.4819 -0.9588
17264SOL    HW253035   4.098   6.908   6.916 -0.9087  0.1111 -2.1287
17265SOL     OW53036   2.041   4.162   3.054 -0.8684  0.0352  0.6145
17265SOL    HW153037   1.972   4.170   2.989  0.1709 -1.9004 -0.8019
17265SOL    HW253038   2.094   4.088   3.023  0.9787  0.5531  2.4335
17266SOL     OW53039   5.421   8.015   0.255 -0.5861 -0.0662  0.5628
17266SOL    HW153040   5.342   8.033   0.305 -1.0167  2.0685 -0.8267
17266SOL    HW253041   5.395   8.024   0.163  1.6939  2.7496  0.1156
17267SOL     OW53042   5.531   2.121   4.846  0.0088 -0.2057  0.1497
17267SOL    HW153043   5.541   2.026   4.845  1.7047 -0.0871  2.4347
17267SOL    HW253044   5.439   2.136   4.870 -0.1330 -1.2609  0.2645
17268SOL     OW53045   1.508   6.003   8.246 -0.4361 -0.1640 -0.2226
17268SOL    HW153046   1.598   5.985   8.271 -0.4834  2.2754  1.8896
17268SOL    HW253047   1.457   5.932   8.284  0.5452 -1.4452 -1.2633
17269SOL     OW53048   1.764   7.969   4.635 -0.5286  0.0229 -0.0520
17269SOL    HW153049   1.680   8.000   4.601 -0.4254  3.4077  2.4761
17269SOL    HW253050   1.742   7.930   4.720  0.6296  2.9714  1.6785
17270SOL     OW53051   1.822   4.621   5.469  0.8700 -0.5643 -0.4852
17270SOL    HW153052   1.826   4.693   5.406 -0.4095 -1.9839 -2.2345
17270SOL    HW253053   1.914   4.602   5.488  1.2266  1.2320 -0.3466
17271SOL     OW53054   0.290   4.039   1.859  0.4040  0.3347 -0.5777
17271SOL    HW153055   0.341   3.959   1.848  0.5611  0.3737 -0.1431
17271SOL    HW253056   0.200   4.009   1.867  0.9962 -0.4162  6.2396
17272SOL     OW53057   0.558   5.257   3.544  0.4015  0.1960  0.4155
17272SOL    HW153058   0.511   5.330   3.505  1.0325 -0.1386 -0.9870
17272SOL    HW253059   0.507   5.180   3.518  0.8176 -0.0257  0.2537
17273SOL     OW53060   0.934   8.204   1.246  0.0357  0.3029 -0.8380
17273SOL    HW153061   0.888   8.278   1.207  0.5221  0.3571 -1.3104
17273SOL    HW253062   0.921   8.215   1.341  0.5173  1.2567 -0.8843
17274SOL     OW53063   2.705   6.660   0.958 -0.0199  0.0885  0.3610
17274SOL    HW153064   2.766   6.734   0.960 -0.7382  0.6944  0.2491
17274SOL    HW253065   2.659   6.671   0.875 -1.4853  0.6199  1.2302
17275SOL     OW53066   5.051   7.962   6.470  0.4911 -0.2251 -0.1779
17275SOL    HW153067   5.124   7.901   6.459  1.3732  0.6851  0.5672
17275SOL    HW253068   5.015   7.972   6.382  0.4546 -1.6641 -0.3398
17276SOL     OW53069   6.189   0.745   3.337  0.2352  0.1796 -0.5712
17276SOL    HW153070   6.242   0.675   3.376 -1.3387  1.2055  3.6642
17276SOL    HW253071   6.126   0.699   3.281  2.2982 -1.3757 -1.6987
17277SOL     OW53072   7.580   0.673   1.728  0.4279 -0.3317  0.2057
17277SOL    HW153073   7.556   0.729   1.654 -1.2413 -1.3047 -0.0372
17277SOL    HW253074   7.624   0.731   1.789  0.5291  0.8025 -0.9172
17278SOL     OW53075   1.282   0.249   3.748 -0.6063 -0.0574  0.3646
17278SOL    HW153076   1.331   0.325   3.780 -0.6372 -0.0020  0.2814
17278SOL    HW253077   1.327   0.222   3.668 -0.6333 -0.0873  0.3593
17279SOL     OW53078   1.261   1.580   7.663 -0.2781  0.4901 -0.5254
17279SOL    HW153079   1.178   1.547   7.699  0.2957 -1.0413 -0.5796
17279SOL    HW253080   1.304   1.623   7.736 -1.7894  2.6371 -0.8586
17280SOL     OW53081   2.980   7.216   0.646 -0.4163 -0.0033  0.6864
17280SOL    HW153082   2.894   7.221   0.605 -0.0580  2.9581  0.1458
17280SOL    HW253083   2.963   7.191   0.736 -1.6568 -1.5545  0.0272
17281SOL     OW53084   1.122   6.880   7.357  0.5533  0.0392  0.7595
17281SOL    HW153085   1.164   6.947   7.302  1.3238 -0.7713  0.3470
17281SOL    HW253086   1.175   6.801   7.343 -0.5159 -0.7350  1.0184
17282SOL     OW53087   1.161   3.428   3.397 -0.3667 -0.0136  0.1088
17282SOL    HW153088   1.085   3.418   3.455 -1.5607 -1.0033 -1.5950
17282SOL    HW253089   1.226   3.473   3.451 -2.8377  2.6806  1.0188
17283SOL     OW53090   2.978   6.899   3.001 -0.2026 -0.3181 -0.2977
17283SOL    HW153091   2.919   6.827   3.023  0.9292 -1.2970 -0.4021
17283SOL    HW253092   3.060   6.877   3.045  0.1255  0.9565 -0.2567
17284SOL     OW53093   4.236   2.119   4.579  0.0644  0.2579 -0.1470
17284SOL    HW153094   4.206   2.143   4.666  1.0330 -0.2947  0.3466
17284SOL    HW253095   4.312   2.064   4.594  0.1796  0.0725 -1.3429
17285SOL     OW53096   1.402   8.056   4.098  0.2392 -0.2686  0.4624
17285SOL    HW153097   1.309   8.070   4.116  0.5174 -0.3743  2.0430
17285SOL    HW253098   1.424   7.977   4.147  1.1383 -0.3335 -0.0311
17286SOL     OW53099   2.748   7.259   8.221 -0.5950  0.8849  0.4664
17286SOL    HW153100   2.802   7.292   8.150 -0.3206 -1.0384 -0.2494
17286SOL    HW253101   2.677   7.212   8.177 -1.4799  1.2852  1.4448
17287SOL     OW53102   0.799   0.914   1.492 -0.4562  0.2476  0.2369
17287SOL    HW153103   0.789   0.820   1.481  0.9486 -0.2984  2.9717
17287SOL    HW253104   0.737   0.937   1.561  1.0857  0.7982  1.4903
17288SOL     OW53105   7.155   0.702   0.434 -0.0878 -0.1775 -0.0241
17288SOL    HW153106   7.140   0.729   0.525 -0.4233  1.1319 -0.4536
17288SOL    HW253107   7.120   0.613   0.430 -2.3712  0.6429  0.5148
17289SOL     OW53108   4.045   2.972   1.305  0.1725 -0.5601 -0.4631
17289SOL    HW153109   3.950   2.975   1.304  0.2118  3.1094 -0.0661
17289SOL    HW253110   4.068   2.950   1.396 -0.2824  0.6481 -0.0525
17290SOL     OW53111   1.938   2.421   3.525 -0.5492 -0.5898  0.4637
17290SOL    HW153112   1.921   2.407   3.618 -0.1155 -1.1927  0.4507
17290SOL    HW253113   1.853   2.448   3.489 -0.5545  0.3709  1.1722
17291SOL     OW53114   6.174   4.040   3.541  0.4316 -0.0172  0.3447
17291SOL    HW153115   6.126   4.091   3.476  0.0480  2.5059  2.5259
17291SOL    HW253116   6.109   3.979   3.576  0.1228 -0.0407 -0.2637
17292SOL     OW53117   3.070   6.377   3.843 -0.8556  0.3149  0.3577
17292SOL    HW153118   3.150   6.328   3.828 -0.3562  0.8719  1.1342
17292SOL    HW253119   3.015   6.358   3.768  1.0001  1.8880 -1.4548
17293SOL     OW53120   0.423   2.368   3.537  0.1645  0.2674 -0.2749
17293SOL    HW153121   0.330   2.349   3.528  0.1988 -0.0572  0.0389
17293SOL    HW253122   0.440   2.362   3.631  0.5397  0.1367 -0.3498
17294SOL     OW53123   7.399   5.478   5.781  0.1145 -0.0903 -0.3604
17294SOL    HW153124   7.433   5.529   5.708 -1.4714  1.6735  0.0799
17294SOL    HW253125   7.305   5.472   5.764  0.2326 -2.7370 -0.2899
17295SOL     OW53126   6.861   5.651   1.622 -0.2912  0.1768  0.2683
17295SOL    HW153127   6.930   5.585   1.633 -0.2905  0.0523 -0.4960
17295SOL    HW253128   6.880   5.716   1.690  0.1267 -0.2444  0.5648
17296SOL     OW53129   2.742   4.349   5.712 -0.2521  0.2028  0.0704
17296SOL    HW153130   2.648   4.363   5.724 -0.2729  1.5591 -1.5524
17296SOL    HW253131   2.782   4.395   5.785 -0.8437 -0.4240  0.7989
17297SOL     OW53132   8.176   1.517   6.670 -0.1983  0.2450  0.0148
17297SOL    HW153133   8.257   1.550   6.709 -0.2270  1.0552 -0.5815
17297SOL    HW253134   8.138   1.460   6.737  1.4188 -1.0324 -0.1401
17298SOL     OW53135   6.921   7.731   7.017  0.0994  0.0344 -0.0374
17298SOL    HW153136   6.864   7.760   6.946 -0.3178 -1.1977 -0.2100
17298SOL    HW253137   6.956   7.812   7.054 -0.1520  0.7137 -1.2531
17299SOL     OW53138   7.719   5.483   3.096 -0.5833 -0.1937  0.1950
17299SOL    HW153139   7.710   5.482   3.000 -2.8106 -1.6408  0.3783
17299SOL    HW253140   7.679   5.565   3.123 -0.6224 -0.1234 -0.0770
17300SOL     OW53141   4.638   0.076   5.734  0.0864 -0.4634 -0.2228
17300SOL    HW153142   4.703   0.137   5.700 -1.1394  1.0157 -0.0007
17300SOL    HW253143   4.681   0.032   5.807  1.0715 -0.0485 -0.5470
17301SOL     OW53144   5.989   3.924   4.903 -0.5234  0.4482  0.2704
17301SOL    HW153145   5.918   3.870   4.938 -1.2415  0.8447 -0.5516
17301SOL    HW253146   6.060   3.915   4.966 -0.4469 -1.9028 -0.1043
17302SOL     OW53147   7.443   2.130   8.214  0.0787 -0.0672  0.2763
17302SOL    HW153148   7.447   2.051   8.268 -0.5926  0.9956  1.8951
17302SOL    HW253149   7.419   2.200   8.274  0.9959  1.4548 -1.0796
17303SOL     OW53150   4.562   2.852   6.852 -0.3215  0.5264 -0.2944
17303SOL    HW153151   4.619   2.911   6.902  2.3997  0.4110 -3.0563
17303SOL    HW253152   4.585   2.765   6.883  0.0333  0.5756 -0.4067
17304SOL     OW53153   4.842   7.156   7.618 -0.0528  0.3667 -0.3348
17304SOL    HW153154   4.872   7.165   7.708 -1.2145  0.9034  0.0016
17304SOL    HW253155   4.823   7.245   7.589 -2.8425 -0.0618 -0.0020
17305SOL     OW53156   5.556   5.319   7.515  0.2287 -0.3456 -0.2535
17305SOL    HW153157   5.594   5.244   7.562 -0.5101 -0.1565  0.6616
17305SOL    HW253158   5.465   5.292   7.499  0.1727  0.0525 -0.5846
17306SOL     OW53159   4.347   3.577   6.667 -0.6676 -0.6658 -0.9282
17306SOL    HW153160   4.408   3.648   6.650  0.0225 -1.3318 -1.2876
17306SOL    HW253161   4.285   3.581   6.594 -1.3655  0.3332 -0.2884
17307SOL     OW53162   0.109   7.672   1.604  0.0755  0.6475 -0.6347
17307SOL    HW153163   0.167   7.727   1.551 -0.5848  0.5883 -1.4272
17307SOL    HW253164   0.089   7.597   1.549 -1.1504  0.9038 -0.5718
17308SOL     OW53165   0.766   0.996   3.268 -0.3706 -0.2738  0.5840
17308SOL    HW153166   0.751   1.037   3.353  0.1599 -0.7243  0.9018
17308SOL    HW253167   0.681   0.997   3.225 -0.8330 -0.8445  1.4755
17309SOL     OW53168   1.904   1.763   5.803 -0.4720 -0.0788 -0.2449
17309SOL    HW153169   1.999   1.755   5.806 -0.1270  2.1663 -2.7286
17309SOL    HW253170   1.875   1.691   5.746 -0.4709 -1.7490  1.8039
17310SOL     OW53171   7.642   3.047   6.402  0.2518 -0.4105  0.4684
17310SOL    HW153172   7.575   3.042   6.470 -0.5062  0.1301 -0.2265
17310SOL    HW253173   7.649   3.141   6.383 -1.2343 -0.7375 -1.8573
17311SOL     OW53174   7.307   4.794   7.359 -0.3491 -0.4458  0.1397
17311SOL    HW153175   7.223   4.776   7.402 -0.4364 -1.0959 -0.2912
17311SOL    HW253176   7.287   4.794   7.266 -0.0106  0.1798  0.0626
17312SOL     OW53177   1.264   7.712   6.496  0.3913  0.6490  0.0531
17312SOL    HW153178   1.227   7.798   6.472  1.1041  0.9133 -0.0948
17312SOL    HW253179   1.207   7.649   6.452 -3.4058  0.7807  4.3544
17313SOL     OW53180   3.389   2.365   2.981 -0.2483 -0.2884  0.1056
17313SOL    HW153181   3.294   2.352   2.986 -0.1186 -1.5153 -0.2975
17313SOL    HW253182   3.401   2.433   2.916 -0.9057  0.6944  0.9978
17314SOL     OW53183   4.389   3.820   4.896 -0.4632 -0.1704  0.5329
17314SOL    HW153184   4.365   3.808   4.988  0.8930  0.9851  1.0426
17314SOL    HW253185   4.309   3.853   4.854 -1.3598 -1.5881  1.0879
17315SOL     OW53186   0.826   5.103   5.693 -0.4937  0.2247 -0.1768
17315SOL    HW153187   0.812   5.194   5.718 -0.6520 -0.0099  0.5945
17315SOL    HW253188   0.885   5.068   5.760 -2.4577 -0.9411  0.9715
17316SOL     OW53189   6.108   3.514   4.346 -0.4612  0.3610  0.2711
17316SOL    HW153190   6.166   3.506   4.422  1.6873 -0.1515 -1.3479
17316SOL    HW253191   6.050   3.439   4.352  1.1518 -0.9178  0.2302
17317SOL     OW53192   3.161   4.154   7.155  0.1661  0.7514  0.1826
17317SOL    HW153193   3.194   4.077   7.108 -1.3587  0.0934  0.1621
17317SOL    HW253194   3.146   4.122   7.244 -1.7012  0.6828 -0.1525
17318SOL     OW53195   2.722   2.692   1.425 -0.2511  1.2731 -0.4961
17318SOL    HW153196   2.714   2.685   1.520 -0.8292  0.1386 -0.6085
17318SOL    HW253197   2.805   2.735   1.410 -0.8804  2.8945  0.5615
17319SOL     OW53198   0.622   7.282   3.126 -0.1023  0.2032  0.5038
17319SOL    HW153199   0.660   7.265   3.039  0.3227  1.7948  0.3532
17319SOL    HW253200   0.529   7.267   3.115  0.0277 -0.1718 -0.0929
17320SOL     OW53201   7.845   1.348   3.597 -0.1666 -0.4370  0.5678
17320SOL    HW153202   7.770   1.293   3.575 -0.1950  0.0757 -0.6970
17320SOL    HW253203   7.854   1.407   3.521  0.7933  0.2734  1.2219
17321SOL     OW53204   6.368   2.493   1.792 -0.5444  0.5309 -0.1259
17321SOL    HW153205   6.383   2.563   1.856  2.6341  0.9860 -1.2621
17321SOL    HW253206   6.438   2.430   1.810 -1.7383 -1.0271 -0.9037
17322SOL     OW53207   6.842   3.169   4.869 -0.3454  0.0993 -0.6453
17322SOL    HW153208   6.812   3.199   4.955 -0.2993  0.4392 -0.7457
17322SOL    HW253209   6.804   3.082   4.859  1.2058 -0.7538  0.5402
17323SOL     OW53210   1.159   0.431   4.940 -0.2781 -0.2683 -0.0361
17323SOL    HW153211   1.092   0.428   4.872  1.5654 -4.3892 -1.8612
17323SOL    HW253212   1.213   0.508   4.918 -0.2494 -1.0149 -2.7513
17324SOL     OW53213   0.797   3.658   3.885 -0.5462  0.6625  0.8339
17324SOL    HW153214   0.777   3.565   3.893 -0.9147  0.5924 -0.7965
17324SOL    HW253215   0.892   3.663   3.896 -0.3865 -0.0334 -0.1973
17325SOL     OW53216   7.954   6.551   1.544  0.3839  0.2035  0.1810
17325SOL    HW153217   7.948   6.514   1.456  1.6582  1.2082 -0.3542
17325SOL    HW253218   7.910   6.636   1.537 -0.1625 -0.0286  0.7140
17326SOL     OW53219   2.894   0.605   1.341  0.0668  0.4857 -0.1281
17326SOL    HW153220   2.899   0.686   1.391  3.5130  0.3439 -0.1079
17326SOL    HW253221   2.926   0.538   1.402 -1.0796 -0.6178 -0.7179
17327SOL     OW53222   1.874   7.916   6.566 -0.3662 -0.5209 -0.6498
17327SOL    HW153223   1.959   7.894   6.526  0.3861  0.5026  0.3333
17327SOL    HW253224   1.845   7.994   6.520 -0.6904 -0.7745 -0.8733
17328SOL     OW53225   7.127   6.270   7.649 -0.4948 -0.6931 -0.0877
17328SOL    HW153226   7.053   6.238   7.702 -0.4832 -0.2273  0.2149
17328SOL    HW253227   7.086   6.304   7.569 -0.9899  2.9350  1.6309
17329SOL     OW53228   2.443   3.841   4.064  0.4425  0.9782 -0.1106
17329SOL    HW153229   2.479   3.900   3.998  0.0884 -1.5094 -2.6016
17329SOL    HW253230   2.508   3.772   4.074 -0.9893 -0.4567 -0.3692
17330SOL     OW53231   6.580   0.992   0.084  0.1600  0.1375  0.3615
17330SOL    HW153232   6.548   0.904   0.101 -0.9746  0.1639 -1.4881
17330SOL    HW253233   6.512   1.050   0.118  0.7272  0.3114  1.2289
17331SOL     OW53234   6.488   5.650   7.332  0.3629  0.1311 -0.1472
17331SOL    HW153235   6.476   5.727   7.277 -0.4846 -0.3345 -0.6198
17331SOL    HW253236   6.403   5.605   7.330  0.7901 -0.7119  0.2846
17332SOL     OW53237   6.550   1.846   2.721  0.1752  0.5148 -0.1439
17332SOL    HW153238   6.466   1.844   2.675 -0.0967 -0.2015  0.3945
17332SOL    HW253239   6.601   1.913   2.674 -0.7641  1.0960 -0.3330
17333SOL     OW53240   0.530   6.012   2.671  0.2628  0.4033  0.2212
17333SOL    HW153241   0.527   5.927   2.714  2.0666  0.0056 -0.4131
17333SOL    HW253242   0.449   6.016   2.619 -1.2048  0.2756  2.4242
17334SOL     OW53243   0.399   7.390   7.499  0.3364  0.5671 -0.3833
17334SOL    HW153244   0.491   7.372   7.519  0.1469 -0.3471 -0.3104
17334SOL    HW253245   0.367   7.309   7.459 -0.5042  0.7812 -0.1509
17335SOL     OW53246   7.546   2.221   4.394  0.8165 -0.0036 -0.1696
17335SOL    HW153247   7.563   2.246   4.303  0.1714 -0.8677 -0.5334
17335SOL    HW253248   7.453   2.197   4.395  0.6740  0.5672  0.8490
17336SOL     OW53249   0.371   6.286   6.690 -0.1522  0.0848  0.2280
17336SOL    HW153250   0.431   6.212   6.693  0.5278  0.5888 -0.7752
17336SOL    HW253251   0.345   6.299   6.781 -0.3272 -1.4203  0.4053
17337SOL     OW53252   6.789   4.825   3.748  0.1283  0.0459 -0.0532
17337SOL    HW153253   6.841   4.904   3.730 -0.8238  0.8005  0.4092
17337SOL    HW253254   6.771   4.788   3.662 -0.3065  0.9258 -0.3517
17338SOL     OW53255   8.251   2.455   6.488  0.7220  0.4169  0.1306
17338SOL    HW153256   8.258   2.452   6.393  1.0641  0.3738  0.1571
17338SOL    HW253257   8.308   2.527   6.514 -2.5339  3.1868 -0.0253
17339SOL     OW53258   4.841   6.934   0.960  0.0999 -0.5839 -0.0126
17339SOL    HW153259   4.931   6.959   0.981 -0.2037  0.2858  0.2953
17339SOL    HW253260   4.850   6.857   0.905  1.0632  0.0424 -0.7581
17340SOL     OW53261   4.370   4.219   8.285  0.1115  0.1963 -0.3762
17340SOL    HW153262   4.304   4.176   8.231  0.9744 -1.6532 -0.0162
17340SOL    HW253263   4.332   4.221   8.373 -1.0717  2.7190 -0.9236
17341SOL     OW53264   7.126   3.019   5.986  0.3352  0.4789  0.4020
17341SOL    HW153265   7.220   3.004   5.996  0.5396 -0.0367 -2.0069
17341SOL    HW253266   7.116   3.114   5.989  0.8388  0.5183  1.1765
17342SOL     OW53267   7.682   3.641   3.647 -0.2226 -0.4805 -0.3900
17342SOL    HW153268   7.740   3.704   3.689  0.6381 -2.2291  1.1138
17342SOL    HW253269   7.731   3.612   3.569  0.2383 -0.7681  0.0051
17343SOL     OW53270   0.696   5.600   7.560 -0.5367 -0.4759  0.4567
17343SOL    HW153271   0.612   5.555   7.566 -0.3871 -0.8547 -0.2254
17343SOL    HW253272   0.684   5.681   7.611 -1.5201 -0.2167 -0.1659
17344SOL     OW53273   6.200   1.171   8.084 -0.1354 -0.0275 -0.0180
17344SOL    HW153274   6.158   1.089   8.110  0.2402 -0.6030 -1.1843
17344SOL    HW253275   6.128   1.234   8.077 -0.3811 -0.1613  1.2153
17345SOL     OW53276   7.821   2.875   7.674 -0.2279  0.0165 -0.6281
17345SOL    HW153277   7.825   2.941   7.743 -0.6237  0.8469 -1.4038
17345SOL    HW253278   7.819   2.924   7.593 -0.1730 -0.9567 -1.2289
17346SOL     OW53279   1.631   5.353   1.132  0.3015 -0.1276 -0.0047
17346SOL    HW153280   1.634   5.406   1.053  0.6041  1.3565  0.9879
17346SOL    HW253281   1.677   5.272   1.108  3.0082  1.4804 -0.5107
17347SOL     OW53282   6.707   7.498   6.510 -0.0563  0.5136  0.9088
17347SOL    HW153283   6.705   7.594   6.507 -1.4927  0.4721  0.0172
17347SOL    HW253284   6.770   7.478   6.579  1.5956  2.0690 -0.0879
17348SOL     OW53285   1.166   4.186   3.663  0.3065  0.7512 -0.4895
17348SOL    HW153286   1.131   4.142   3.586 -0.2208  0.7978 -0.2847
17348SOL    HW253287   1.111   4.155   3.735  1.4012 -0.0163  0.0165
17349SOL     OW53288   2.482   6.897   5.996 -0.0019 -0.9818  0.0516
17349SOL    HW153289   2.477   6.960   5.924 -2.4576  0.9754  1.8106
17349SOL    HW253290   2.573   6.869   5.998  0.5837  0.5736 -2.4115
17350SOL     OW53291   0.111   0.765   4.412  0.1704 -0.5296 -0.4970
17350SOL    HW153292   0.125   0.694   4.349  0.1864 -0.7018 -0.3000
17350SOL    HW253293   0.087   0.840   4.358  0.5741 -0.5704 -0.7412
17351SOL     OW53294   2.577   3.598   7.295  0.6764 -0.4273  0.8516
17351SOL    HW153295   2.538   3.681   7.323  0.8680 -1.1621  3.3951
17351SOL    HW253296   2.585   3.606   7.200  0.1375  2.2201  1.0004
17352SOL     OW53297   2.210   4.082   3.783 -0.2907  0.7862  0.5373
17352SOL    HW153298   2.225   4.091   3.877  0.6697  1.3673  0.3382
17352SOL    HW253299   2.214   4.172   3.750  2.9471  0.3107 -0.5647
17353SOL     OW53300   8.059   7.931   0.562  0.2841 -0.0147 -0.5368
17353SOL    HW153301   8.055   8.012   0.614 -0.1746 -0.9602  0.9481
17353SOL    HW253302   8.000   7.947   0.489  0.5814  1.1830 -0.5278
17354SOL     OW53303   2.854   4.095   1.477 -0.2312 -0.2260 -0.2579
17354SOL    HW153304   2.821   4.012   1.510 -0.0294 -0.6840 -1.2028
17354SOL    HW253305   2.790   4.160   1.508 -1.1627 -0.9083 -0.7316
17355SOL     OW53306   5.171   4.553   7.665 -0.2234 -0.1761  0.3305
17355SOL    HW153307   5.102   4.613   7.636  0.1034 -0.0282 -0.1413
17355SOL    HW253308   5.132   4.466   7.658  0.1615 -0.2129 -1.4467
17356SOL     OW53309   3.489   0.981   6.821  0.0139 -0.3617  0.7289
17356SOL    HW153310   3.494   1.054   6.759  0.1694  0.1888  1.3907
17356SOL    HW253311   3.579   0.948   6.826  0.2895  0.5142  1.7596
17357SOL     OW53312   3.553   6.264   0.891 -0.2706 -0.1793 -0.6016
17357SOL    HW153313   3.640   6.301   0.878 -0.2102 -0.0454  0.1272
17357SOL    HW253314   3.531   6.222   0.808  0.3422  0.0894 -0.8997
17358SOL     OW53315   5.777   4.834   1.266 -0.2683  0.0660  0.1820
17358SOL    HW153316   5.735   4.751   1.286  0.6238 -0.2167  0.9447
17358SOL    HW253317   5.836   4.816   1.193  1.8359 -0.6041  1.9751
17359SOL     OW53318   7.142   5.661   1.001 -0.0960  0.4371  0.3417
17359SOL    HW153319   7.104   5.604   1.067  0.2414 -0.3058 -0.1067
17359SOL    HW253320   7.122   5.619   0.918 -1.0268  1.6678 -0.0697
17360SOL     OW53321   2.684   2.690   5.345 -0.2383  1.2932  0.1796
17360SOL    HW153322   2.618   2.642   5.295 -1.6673  0.7780  2.5292
17360SOL    HW253323   2.754   2.627   5.358 -0.4414  1.0271 -0.0044
17361SOL     OW53324   7.756   7.295   6.281 -0.5178 -0.3503  0.5713
17361SOL    HW153325   7.691   7.232   6.311 -1.9256  0.7012 -0.1664
17361SOL    HW253326   7.705   7.372   6.256  1.0169  0.5157 -0.0118
17362SOL     OW53327   4.190   4.457   2.478  0.0319  0.2903  0.1400
17362SOL    HW153328   4.110   4.405   2.479  0.5891 -0.6178  3.3866
17362SOL    HW253329   4.163   4.544   2.451 -2.2434  0.2634  2.2364
17363SOL     OW53330   3.070   5.699   4.516  0.2895 -0.6471  0.6506
17363SOL    HW153331   3.004   5.637   4.487 -0.1239 -1.0181  2.3218
17363SOL    HW253332   3.020   5.777   4.541  0.5624 -0.5760  0.9881
17364SOL     OW53333   8.234   1.295   6.040 -0.0447  0.2285  0.1980
17364SOL    HW153334   8.224   1.326   6.130 -1.5936  1.0986 -0.2661
17364SOL    HW253335   8.183   1.356   5.988  2.7457  1.1358 -1.5724
17365SOL     OW53336   4.956   5.850   1.987 -0.0279  0.0845 -0.4088
17365SOL    HW153337   4.927   5.888   1.904 -1.2273 -1.8992 -0.9168
17365SOL    HW253338   4.970   5.758   1.968  2.5573  0.1667  0.9034
17366SOL     OW53339   3.235   7.368   5.006 -0.1808  0.2794 -0.0099
17366SOL    HW153340   3.226   7.300   5.073  0.1203  0.2305 -0.0154
17366SOL    HW253341   3.219   7.323   4.923  1.0895 -0.0249 -0.0987
17367SOL     OW53342   5.803   7.093   2.540 -0.0477  0.0698  0.1365
17367SOL    HW153343   5.779   7.172   2.589 -1.4010 -0.5591  0.5002
17367SOL    HW253344   5.818   7.027   2.608 -1.1266 -0.5809 -0.2433
17368SOL     OW53345   0.198   4.702   0.383 -0.0045 -0.2289  0.3941
17368SOL    HW153346   0.284   4.727   0.416 -0.5439  0.1325  1.5842
17368SOL    HW253347   0.154   4.663   0.458 -1.6852  1.6624  0.4398
17369SOL     OW53348   2.167   2.745   5.318  0.0144 -0.3976 -0.3191
17369SOL    HW153349   2.147   2.770   5.409 -0.2585  1.6477 -0.9184
17369SOL    HW253350   2.088   2.767   5.269  0.8558  0.3275 -1.3794
17370SOL     OW53351   7.743   1.124   1.851 -0.2995 -0.0300  0.5362
17370SOL    HW153352   7.756   1.121   1.946  1.2227  0.7689  0.3606
17370SOL    HW253353   7.733   1.032   1.826  0.6384 -0.3451  1.2850
17371SOL     OW53354   3.060   3.224   0.074  0.1140  0.1767 -0.1869
17371SOL    HW153355   3.066   3.319   0.080 -0.4352  0.1657  0.5952
17371SOL    HW253356   2.967   3.205   0.083  0.1475 -0.3973 -0.9616
17372SOL     OW53357   4.982   6.730   7.027  0.2650  0.5143  0.0789
17372SOL    HW153358   5.053   6.676   6.993  0.3081  0.4256  0.3053
17372SOL    HW253359   4.921   6.668   7.066 -0.1298  0.5607 -0.4573
17373SOL     OW53360   1.341   7.502   6.221 -0.4781  0.3830  0.2493
17373SOL    HW153361   1.433   7.485   6.237 -0.1673  2.2649  0.5900
17373SOL    HW253362   1.331   7.498   6.126 -0.6380 -2.5869  0.3526
17374SOL     OW53363   0.528   4.401   5.534 -0.3401  0.3274 -0.1601
17374SOL    HW153364   0.550   4.482   5.489 -0.7981  0.3987 -0.2608
17374SOL    HW253365   0.432   4.402   5.540 -0.2949  0.2090  0.6026
17375SOL     OW53366   7.843   6.904   5.441  0.2387 -0.3452 -0.3849
17375SOL    HW153367   7.780   6.922   5.511  0.4441  0.4567 -0.3944
17375SOL    HW253368   7.796   6.929   5.361  0.6035  0.3780 -0.3820
17376SOL     OW53369   5.468   1.331   4.360 -0.4077  0.8645 -0.2178
17376SOL    HW153370   5.525   1.341   4.284 -0.8259  1.3609 -0.4674
17376SOL    HW253371   5.444   1.420   4.384 -1.4812  0.6304 -0.4204
17377SOL     OW53372   6.509   2.678   4.488  0.2767  0.1378 -0.0275
17377SOL    HW153373   6.589   2.701   4.442 -0.1595  0.4743 -0.6297
17377SOL    HW253374   6.505   2.583   4.485  0.4371  0.1434 -0.3650
17378SOL     OW53375   7.312   5.699   6.838 -0.4922 -0.2256 -0.3570
17378SOL    HW153376   7.351   5.739   6.760  0.1192  0.1388  0.1360
17378SOL    HW253377   7.351   5.611   6.841  0.3536  0.1650  0.1780
17379SOL     OW53378   1.696   3.804   5.408  0.1794  0.4723  0.2697
17379SOL    HW153379   1.720   3.896   5.398  1.2931  0.1907  0.2588
17379SOL    HW253380   1.642   3.785   5.331 -0.2960  1.1892  0.4205
17380SOL     OW53381   8.201   5.018   2.743  1.0184  0.2979 -0.7166
17380SOL    HW153382   8.277   5.037   2.798  1.7909  0.6888 -1.8937
17380SOL    HW253383   8.135   4.986   2.804  1.5895  1.4615  0.5428
17381SOL     OW53384   0.544   6.565   2.125  0.5064 -0.4630 -0.1654
17381SOL    HW153385   0.611   6.539   2.188 -0.8325 -0.9778  1.0614
17381SOL    HW253386   0.594   6.590   2.047  2.0607 -2.1310  0.2609
17382SOL     OW53387   7.194   0.585   8.249 -0.0389  0.0177 -0.5731
17382SOL    HW153388   7.239   0.610   8.330 -1.2537  0.8802 -0.1508
17382SOL    HW253389   7.228   0.646   8.183 -0.5541  0.6475 -0.2624
17383SOL     OW53390   0.401   6.508   1.283  0.1724 -0.5639 -0.5721
17383SOL    HW153391   0.418   6.499   1.377 -0.0495  0.3545 -0.4418
17383SOL    HW253392   0.487   6.501   1.243  0.3225 -0.5031 -0.2652
17384SOL     OW53393   5.548   3.542   4.644  0.1937 -0.0912 -0.1462
17384SOL    HW153394   5.629   3.557   4.594  0.3098 -2.0922 -0.6030
17384SOL    HW253395   5.478   3.557   4.581  0.2974 -1.1205 -0.5106
17385SOL     OW53396   1.469   0.731   2.532  0.1229  0.0975  0.0288
17385SOL    HW153397   1.377   0.738   2.557  0.2586 -2.1311  1.3115
17385SOL    HW253398   1.503   0.820   2.540 -2.1581  1.1389 -1.5250
17386SOL     OW53399   4.285   5.075   1.638 -0.0636 -0.4191 -0.1597
17386SOL    HW153400   4.346   5.149   1.634 -0.6591  0.0626 -0.4071
17386SOL    HW253401   4.236   5.080   1.556  0.8486 -1.9164 -0.8219
17387SOL     OW53402   4.824   0.842   4.630 -0.6868  0.3986  0.2470
17387SOL    HW153403   4.892   0.810   4.571 -0.4362  2.4968 -0.6684
17387SOL    HW253404   4.869   0.860   4.712 -0.8845 -1.7826  0.8506
17388SOL     OW53405   6.975   0.445   0.418 -0.2127  0.3637  0.2878
17388SOL    HW153406   6.930   0.395   0.351  0.0092  1.6676 -0.8694
17388SOL    HW253407   6.943   0.535   0.407 -2.8444  0.0162  4.2171
17389SOL     OW53408   0.734   4.344   4.308 -0.2014 -0.4734 -0.3970
17389SOL    HW153409   0.750   4.438   4.298  1.4619 -0.4538  2.0323
17389SOL    HW253410   0.661   4.339   4.370  0.4547 -0.7834  0.3590
17390SOL     OW53411   6.989   2.941   8.156  0.1198 -0.1336  0.5293
17390SOL    HW153412   6.918   2.883   8.128 -1.1770  1.4733  0.4427
17390SOL    HW253413   6.969   2.960   8.248 -1.7720  3.4778 -0.5723
17391SOL     OW53414   5.615   0.058   2.526  0.2991 -0.3464  0.2569
17391SOL    HW153415   5.589   0.103   2.445  0.9412 -0.8407 -0.2213
17391SOL    HW253416   5.632   0.129   2.588 -1.8211  0.0025  0.4703
17392SOL     OW53417   4.581   3.923   1.794  0.4178 -0.2676 -0.0071
17392SOL    HW153418   4.673   3.948   1.785 -0.1585  1.7224 -0.7795
17392SOL    HW253419   4.554   3.963   1.877  0.2119 -0.7265  0.1481
17393SOL     OW53420   7.278   2.110   4.423  0.5660  0.2841  0.2191
17393SOL    HW153421   7.240   2.061   4.495  0.2854 -0.5879 -0.5067
17393SOL    HW253422   7.214   2.100   4.352  0.9971  0.8462 -0.2523
17394SOL     OW53423   0.007   7.784   1.322  0.7540 -0.4451 -0.0581
17394SOL    HW153424  -0.012   7.697   1.287  0.3889 -1.1405  1.8084
17394SOL    HW253425  -0.077   7.830   1.319  0.2815 -1.1504  1.6269
17395SOL     OW53426   2.949   4.155   1.916  0.0686  0.5509  0.2672
17395SOL    HW153427   2.950   4.234   1.861 -0.0550 -0.3356 -1.0182
17395SOL    HW253428   3.041   4.134   1.929  0.1169  1.2583  1.1415
17396SOL     OW53429   4.275   1.224   4.126  0.2895  0.5187  0.0060
17396SOL    HW153430   4.319   1.141   4.145 -1.2745 -0.2270  0.5311
17396SOL    HW253431   4.196   1.198   4.078 -0.3596  1.6859  0.4369
17397SOL     OW53432   5.913   5.762   2.007  0.1240 -0.3632  0.5301
17397SOL    HW153433   5.962   5.844   2.014  1.7822 -1.2046 -0.8305
17397SOL    HW253434   5.979   5.694   2.018 -0.7122 -1.5425 -1.5435
17398SOL     OW53435   2.581   7.814   1.890 -0.3816 -0.6304  0.0700
17398SOL    HW153436   2.590   7.730   1.845 -1.4474  0.3193 -2.0265
17398SOL    HW253437   2.503   7.853   1.850 -0.7371  0.7334  2.0456
17399SOL     OW53438   1.797   3.535   6.961 -0.3750 -0.4940  0.5639
17399SOL    HW153439   1.887   3.546   6.991  0.5515  0.0764 -2.2549
17399SOL    HW253440   1.794   3.447   6.925 -0.4815  0.0629 -0.8197
17400SOL     OW53441   0.714   4.932   4.210 -0.3347  0.1935 -0.1486
17400SOL    HW153442   0.669   4.918   4.126  0.3054 -3.7676  0.0576
17400SOL    HW253443   0.660   4.884   4.273  1.0086  0.3192  1.1015
17401SOL     OW53444   2.491   2.715   4.816  0.5664 -0.1816 -0.2209
17401SOL    HW153445   2.425   2.747   4.878  1.0748  0.7076 -0.1348
17401SOL    HW253446   2.526   2.636   4.857  0.6886  0.2325  0.4871
17402SOL     OW53447   5.000   2.280   5.021  0.3435 -0.2387  0.4771
17402SOL    HW153448   4.933   2.348   5.014  2.1874  1.7093  1.2303
17402SOL    HW253449   4.959   2.211   5.074 -1.6375  0.1296 -0.5262
17403SOL     OW53450   7.626   2.603   1.503 -0.0356 -0.3274 -0.0788
17403SOL    HW153451   7.538   2.585   1.471 -0.9649 -1.4456  3.0175
17403SOL    HW253452   7.659   2.518   1.532  0.7575  0.6659  1.9542
17404SOL     OW53453   5.951   3.954   3.740 -0.3384  0.1081 -0.2946
17404SOL    HW153454   5.874   4.010   3.731 -0.1863  0.5761  1.1357
17404SOL    HW253455   5.992   3.982   3.822  0.2237 -1.5086  0.0134
17405SOL     OW53456   2.111   6.778   2.784  0.0839 -0.2371 -0.1723
17405SOL    HW153457   2.058   6.857   2.780  2.9554  1.9366  2.5003
17405SOL    HW253458   2.169   6.784   2.708 -0.3991 -0.3150 -0.5493
17406SOL     OW53459   4.628   4.907   0.702 -0.3828  0.6727  0.0844
17406SOL    HW153460   4.641   4.812   0.696 -2.1698  0.3179  1.3182
17406SOL    HW253461   4.553   4.924   0.645 -0.3136  1.2924  0.1812
17407SOL     OW53462   5.493   6.601   0.853  0.0624  0.1178 -0.0150
17407SOL    HW153463   5.431   6.568   0.918  1.1280 -0.1569  0.8830
17407SOL    HW253464   5.547   6.665   0.900  0.9464 -0.1951 -0.5748
17408SOL     OW53465   3.436   5.954   7.433  0.7987 -0.2583 -0.5254
17408SOL    HW153466   3.494   6.020   7.472  1.2635 -0.2113 -1.2694
17408SOL    HW253467   3.360   6.004   7.403  1.1486 -0.0432 -1.0883
17409SOL     OW53468   5.464   5.188   0.971  0.1940 -0.0952 -0.6843
17409SOL    HW153469   5.496   5.129   1.039 -1.2392  1.1493  1.1315
17409SOL    HW253470   5.368   5.183   0.979  0.0405  1.7111 -1.1445
17410SOL     OW53471   8.135   1.749   3.139 -0.7228  0.3513  0.2723
17410SOL    HW153472   8.228   1.731   3.153 -0.7102 -0.7610 -1.0902
17410SOL    HW253473   8.090   1.675   3.178 -0.9442 -0.0099 -0.6543
17411SOL     OW53474   3.089   6.947   7.658  0.0262 -0.1517  0.7147
17411SOL    HW153475   3.154   7.017   7.650 -1.0835  0.9287  0.9865
17411SOL    HW253476   3.006   6.989   7.638 -0.5570 -1.6029  0.0344
17412SOL     OW53477   1.287   0.881   1.668  0.2420 -0.2947 -0.2574
17412SOL    HW153478   1.306   0.961   1.619 -0.5228 -0.0611 -0.1868
17412SOL    HW253479   1.192   0.880   1.676  0.3207 -0.5732  0.8084
17413SOL     OW53480   5.675   5.409   5.666  0.3225 -0.5338  0.4475
17413SOL    HW153481   5.770   5.400   5.678  0.2028  0.0398  1.9760
17413SOL    HW253482   5.638   5.330   5.706  0.0743  0.0100  1.3064
17414SOL     OW53483   5.310   5.461   5.462 -0.2772 -0.2961  0.1223
17414SOL    HW153484   5.389   5.429   5.419  0.0959  2.1096 -1.0581
17414SOL    HW253485   5.299   5.550   5.430 -0.3117  1.4350  4.5762
17415SOL     OW53486   6.731   4.717   3.510  0.3269 -0.4788 -0.1763
17415SOL    HW153487   6.757   4.737   3.420  1.1954  0.6338  0.3133
17415SOL    HW253488   6.642   4.754   3.517  0.4516 -0.1224 -0.4329
17416SOL     OW53489   3.894   1.593   5.892  0.6030  0.5514  0.2822
17416SOL    HW153490   3.940   1.633   5.818 -0.3097  1.2680  0.0950
17416SOL    HW253491   3.862   1.510   5.858  0.9335  0.4791  0.1378
17417SOL     OW53492   4.964   4.291   7.153 -0.1766  0.3906  0.4677
17417SOL    HW153493   5.034   4.321   7.211  0.1781  0.3257  0.0787
17417SOL    HW253494   4.995   4.207   7.119 -0.6106  0.1813  0.5882
17418SOL     OW53495   1.658   6.670   3.503 -0.0330 -0.5956 -0.2363
17418SOL    HW153496   1.714   6.719   3.563  1.4698 -0.4622 -1.7219
17418SOL    HW253497   1.570   6.683   3.538  0.7263  0.1047  1.5035
17419SOL     OW53498   5.067   0.994   1.229 -0.6044  0.1925 -0.2359
17419SOL    HW153499   5.132   1.053   1.192  0.6298 -1.3930 -0.6615
17419SOL    HW253500   5.000   1.051   1.266  1.1150  1.8532  0.3743
17420SOL     OW53501   2.766   7.423   4.174  0.4547 -0.3508  0.2524
17420SOL    HW153502   2.796   7.513   4.184 -1.1853  0.3132 -0.5328
17420SOL    HW253503   2.837   7.379   4.128  0.7926  0.8429 -0.4033
17421SOL     OW53504   4.602   5.295   7.904 -0.6310 -0.1218 -0.0467
17421SOL    HW153505   4.649   5.233   7.959  1.0349  1.5834  0.4969
17421SOL    HW253506   4.523   5.317   7.954 -1.5687 -2.2398 -0.5260
17422SOL     OW53507   7.040   6.324   2.246 -0.3763  0.3276  0.3508
17422SOL    HW153508   7.099   6.337   2.172 -0.2699  0.0327  0.3839
17422SOL    HW253509   7.065   6.238   2.282 -0.0099  0.7464  1.1067
17423SOL     OW53510   6.189   5.691   0.338 -0.4082  0.3066 -0.1162
17423SOL    HW153511   6.242   5.623   0.298 -1.7537 -0.8861  0.0975
17423SOL    HW253512   6.106   5.648   0.359 -0.4997  1.4407  2.0087
17424SOL     OW53513   6.652   7.693   6.136  0.0362  0.3423  0.1667
17424SOL    HW153514   6.557   7.681   6.139  0.1250 -0.9128 -1.5001
17424SOL    HW253515   6.667   7.774   6.185 -1.7633 -0.0616  1.4652
17425SOL     OW53516   0.352   0.955   0.513 -0.0747 -0.2974  0.2431
17425SOL    HW153517   0.333   0.932   0.604  0.9626  0.0978  0.5657
17425SOL    HW253518   0.293   1.027   0.493  1.1860  1.0724  1.3065
17426SOL     OW53519   2.615   6.868   2.752  0.1124  0.0573 -0.0709
17426SOL    HW153520   2.650   6.782   2.775  0.0162  0.6615  2.4742
17426SOL    HW253521   2.692   6.925   2.747  0.0167  0.1875 -0.0644
17427SOL     OW53522   0.759   0.294   5.514 -0.7344 -0.3227 -0.7382
17427SOL    HW153523   0.825   0.255   5.572  0.6049 -0.9618 -2.6451
17427SOL    HW253524   0.676   0.261   5.548  0.0061 -0.5228  0.9344
17428SOL     OW53525   3.226   1.191   1.353  0.2895  0.2492  0.3782
17428SOL    HW153526   3.179   1.205   1.435  1.1820 -1.8821  1.2939
17428SOL    HW253527   3.283   1.268   1.345 -1.1452  1.3819  0.7792
17429SOL     OW53528   3.633   0.361   7.566 -0.4426 -0.0871  0.0209
17429SOL    HW153529   3.710   0.409   7.597 -0.2241 -0.3207 -0.1597
17429SOL    HW253530   3.586   0.337   7.646 -0.0365 -0.4279  0.1617
17430SOL     OW53531   8.303   2.843   0.740 -0.1009  0.2873 -0.2236
17430SOL    HW153532   8.237   2.779   0.714 -1.9082  1.2374  1.9016
17430SOL    HW253533   8.297   2.912   0.673  0.1183 -0.5485 -1.1187
17431SOL     OW53534   1.371   0.809   2.886 -0.6192  0.1124 -0.6668
17431SOL    HW153535   1.417   0.726   2.892 -0.4528  0.2331 -0.2185
17431SOL    HW253536   1.432   0.868   2.842  0.6052  0.9157  1.9636
17432SOL     OW53537   3.299   5.891   6.756  0.5492 -0.1155 -0.0103
17432SOL    HW153538   3.204   5.888   6.744  0.5449  0.3229 -0.0896
17432SOL    HW253539   3.334   5.842   6.682  0.4107  0.2912 -0.3491
17433SOL     OW53540   7.617   1.221   2.918 -0.0119 -0.5272 -0.6281
17433SOL    HW153541   7.582   1.235   2.830  1.2282 -0.7979 -1.1784
17433SOL    HW253542   7.689   1.159   2.906  1.5967  1.1265  0.2509
17434SOL     OW53543   5.516   3.774   3.840 -0.2751  0.2064 -0.0014
17434SOL    HW153544   5.585   3.777   3.906 -0.5861 -3.4486  0.5939
17434SOL    HW253545   5.562   3.757   3.758 -0.3154 -0.6194  0.1427
17435SOL     OW53546   3.171   6.803   7.334  0.1951  0.2431 -0.6048
17435SOL    HW153547   3.174   6.874   7.398  1.7807 -0.0443 -0.3286
17435SOL    HW253548   3.196   6.845   7.251  2.1886 -0.1565 -0.2459
17436SOL     OW53549   5.641   6.067   1.036  0.1069  0.1533  0.0444
17436SOL    HW153550   5.558   6.091   0.995  1.2703  2.3157 -1.0999
17436SOL    HW253551   5.705   6.069   0.965  1.2470 -1.0593  1.0062
17437SOL     OW53552   4.216   4.617   2.721 -0.2349 -0.1757 -0.3863
17437SOL    HW153553   4.244   4.708   2.714 -0.4534 -0.0468  0.3678
17437SOL    HW253554   4.220   4.584   2.632  3.0555 -0.3907 -0.2087
17438SOL     OW53555   3.566   0.745   8.230  0.1410 -0.1677  0.4639
17438SOL    HW153556   3.621   0.820   8.249  0.3318 -0.1513 -0.1520
17438SOL    HW253557   3.518   0.769   8.151 -2.2668  0.6338  2.0836
17439SOL     OW53558   4.830   6.038   6.223 -0.3477  0.0916  0.1697
17439SOL    HW153559   4.800   6.053   6.313 -1.0310 -2.6417  0.4334
17439SOL    HW253560   4.905   5.980   6.232 -0.3139 -0.0643 -1.0255
17440SOL     OW53561   2.125   5.912   2.229 -0.3204 -0.9199 -0.0685
17440SOL    HW153562   2.165   5.893   2.314  0.2922  0.4097 -0.0544
17440SOL    HW253563   2.079   5.995   2.242  0.6984 -0.1497 -1.3378
17441SOL     OW53564   1.328   1.649   3.020 -0.1920 -0.1412  0.0287
17441SOL    HW153565   1.261   1.715   3.002  0.7345  0.5715 -0.7963
17441SOL    HW253566   1.337   1.650   3.116  0.2472  1.3656 -0.0123
17442SOL     OW53567   3.565   2.918   6.142  0.5672 -0.0852  0.7509
17442SOL    HW153568   3.602   2.880   6.222  0.8953 -0.1825  0.5533
17442SOL    HW253569   3.554   3.010   6.163  1.8843  0.1445  0.4662
17443SOL     OW53570   6.885   2.414   4.341  0.3598  0.0703 -0.3475
17443SOL    HW153571   6.817   2.348   4.325 -0.8331  0.8393  1.2935
17443SOL    HW253572   6.911   2.399   4.432  3.3248 -1.0055 -1.3110
17444SOL     OW53573   5.958   2.668   4.552  0.4129  0.0650 -0.1264
17444SOL    HW153574   5.967   2.584   4.508  0.5308  0.3962 -0.7387
17444SOL    HW253575   5.871   2.665   4.594 -2.0659  1.7520 -4.7551
17445SOL     OW53576   7.416   1.587   1.814  0.6717  0.1677  0.1172
17445SOL    HW153577   7.338   1.552   1.858  0.0736  2.4269  0.9030
17445SOL    HW253578   7.487   1.574   1.877  0.8272 -1.2972 -0.3390
17446SOL     OW53579   2.832   5.947   6.447 -0.9308  0.3977  0.4785
17446SOL    HW153580   2.760   5.901   6.404 -0.6625 -0.4658  0.9333
17446SOL    HW253581   2.828   6.036   6.413 -1.8635  0.2045  0.0788
17447SOL     OW53582   7.858   0.985   4.686  0.0996 -0.1308  0.1197
17447SOL    HW153583   7.922   0.927   4.727 -2.1139 -0.8880  2.6699
17447SOL    HW253584   7.796   0.926   4.644 -1.3145  0.3932  1.4212
17448SOL     OW53585   1.953   3.205   3.621 -0.2584 -0.0751  1.0197
17448SOL    HW153586   2.041   3.180   3.593 -0.5816  0.0996 -0.2098
17448SOL    HW253587   1.958   3.300   3.632 -0.4042 -0.0045  0.5016
17449SOL     OW53588   3.779   3.478   0.359  0.4077 -0.4130  0.9503
17449SOL    HW153589   3.777   3.551   0.297 -0.4758 -0.8879  0.4073
17449SOL    HW253590   3.832   3.411   0.315 -0.6940 -0.9678  0.4491
17450SOL     OW53591   5.057   3.753   3.806 -0.3477  0.4229 -0.0378
17450SOL    HW153592   5.080   3.816   3.738 -1.5710  1.4955  0.5034
17450SOL    HW253593   5.139   3.708   3.826  0.1117  0.3756 -1.9204
17451SOL     OW53594   2.834   4.520   7.306 -0.4654 -0.6279  0.5191
17451SOL    HW153595   2.894   4.455   7.341  1.1427 -0.7265 -2.2814
17451SOL    HW253596   2.873   4.604   7.329  1.5809 -0.6800 -2.4703
17452SOL     OW53597   7.195   0.757   5.617  0.3505 -0.3297  1.1947
17452SOL    HW153598   7.223   0.830   5.563 -0.8180  0.5026  1.7047
17452SOL    HW253599   7.258   0.688   5.598 -0.9232 -0.6050 -2.4139
17453SOL     OW53600   4.376   7.071   8.018 -0.1328 -0.1106 -0.2586
17453SOL    HW153601   4.421   7.104   7.940  0.6581  1.7651  0.9629
17453SOL    HW253602   4.351   6.982   7.995  0.4556  0.2793 -2.5117
17454SOL     OW53603   8.072   3.200   5.000  0.3618 -0.8815 -0.1762
17454SOL    HW153604   8.123   3.252   5.062  1.1712 -0.2052 -1.3740
17454SOL    HW253605   8.134   3.135   4.966 -0.1111 -1.3434 -0.1662
17455SOL     OW53606   7.469   1.595   2.933 -0.2392  0.4891 -0.2786
17455SOL    HW153607   7.418   1.668   2.970 -0.7684 -0.3486  0.6764
17455SOL    HW253608   7.509   1.553   3.010 -0.4917 -0.6326 -0.7602
17456SOL     OW53609   4.546   8.169   2.373 -0.4309  0.2174 -0.7345
17456SOL    HW153610   4.613   8.131   2.316 -0.0624 -1.2051  0.5957
17456SOL    HW253611   4.499   8.093   2.408 -1.5816  1.1304 -0.2736
17457SOL     OW53612   8.051   5.008   6.965 -0.4012  0.7340  0.0385
17457SOL    HW153613   8.067   5.102   6.968  1.1503  0.4653  0.9737
17457SOL    HW253614   8.111   4.977   6.897 -1.5228  0.5199 -0.8725
17458SOL     OW53615   7.878   4.531   3.442 -0.4939 -0.0478  0.0922
17458SOL    HW153616   7.801   4.570   3.401 -0.7117  0.1098  0.6420
17458SOL    HW253617   7.953   4.575   3.401 -0.7658  2.3096  2.0153
17459SOL     OW53618   4.832   4.774   4.020 -0.4627  0.0535  0.0283
17459SOL    HW153619   4.915   4.745   3.983  0.0474  1.0382  0.3835
17459SOL    HW253620   4.771   4.769   3.946 -0.1078 -0.7196 -0.2207
17460SOL     OW53621   8.078   5.710   2.622  0.3833 -0.3691 -0.1964
17460SOL    HW153622   7.983   5.713   2.633  0.4680 -2.1616  1.3087
17460SOL    HW253623   8.094   5.636   2.564  0.8146  0.4249 -1.0931
17461SOL     OW53624   6.467   3.847   4.170  0.0594  0.2644  0.4308
17461SOL    HW153625   6.530   3.833   4.099  0.0256 -0.7508  0.5870
17461SOL    HW253626   6.393   3.891   4.128  0.0036 -0.4121 -0.1901
17462SOL     OW53627   6.670   5.042   1.457  0.3612 -0.1566 -0.8014
17462SOL    HW153628   6.728   4.977   1.497  0.3088 -0.7820 -1.7085
17462SOL    HW253629   6.702   5.051   1.367  0.2497  0.9461 -0.7367
17463SOL     OW53630   2.270   2.536   1.887  0.3220  0.0236  0.3123
17463SOL    HW153631   2.267   2.611   1.946  0.5611 -0.4091  0.8701
17463SOL    HW253632   2.221   2.565   1.810 -1.6608 -0.0863  1.4813
17464SOL     OW53633   7.609   7.763   6.604  0.5598  0.4146 -0.3821
17464SOL    HW153634   7.520   7.753   6.638  1.1814 -1.0838  0.8556
17464SOL    HW253635   7.637   7.849   6.636 -0.9248  1.5091 -1.9530
17465SOL     OW53636   0.974   6.993   6.891 -0.0758 -0.1022  0.0862
17465SOL    HW153637   1.025   6.930   6.840 -3.4837 -2.0257 -1.0973
17465SOL    HW253638   0.974   6.958   6.980 -1.2764 -1.3935 -0.4032
17466SOL     OW53639   4.342   5.556   7.148 -0.3456  0.4648  0.0955
17466SOL    HW153640   4.431   5.583   7.171 -0.4037  0.9449 -0.2448
17466SOL    HW253641   4.309   5.626   7.093 -0.2477 -0.5938 -1.3543
17467SOL     OW53642   0.657   6.435   3.426  0.1691 -0.4609 -0.2380
17467SOL    HW153643   0.618   6.514   3.388  0.7968 -0.2516 -0.4647
17467SOL    HW253644   0.625   6.433   3.516  1.0104  0.6613  0.1033
17468SOL     OW53645   7.084   7.179   7.965 -0.3809  0.3134  0.1589
17468SOL    HW153646   7.018   7.189   7.896 -2.2555 -0.9284  1.6985
17468SOL    HW253647   7.073   7.258   8.019  0.2875  0.7183 -0.2839
17469SOL     OW53648   7.189   4.246   7.812  0.3364  0.0108  0.3620
17469SOL    HW153649   7.139   4.168   7.837 -1.4738  1.0308  0.0140
17469SOL    HW253650   7.258   4.253   7.879  1.1467 -2.4242 -0.1705
17470SOL     OW53651   6.816   7.789   5.929 -0.7842  0.3621 -0.3192
17470SOL    HW153652   6.751   7.730   5.968  1.2764 -2.2307 -0.6825
17470SOL    HW253653   6.864   7.825   6.004 -0.8822  0.1706 -0.1619
17471SOL     OW53654   0.208   6.771   1.500 -0.2954  0.4071 -0.1651
17471SOL    HW153655   0.248   6.806   1.420  0.8588  0.5569  0.4768
17471SOL    HW253656   0.249   6.686   1.512 -2.4912 -0.8445 -1.2595
17472SOL     OW53657   0.071   2.222   3.002  0.1415  0.0153 -0.4323
17472SOL    HW153658   0.090   2.291   2.939  1.3910  1.0652  1.0429
17472SOL    HW253659   0.004   2.260   3.059  0.4546 -0.1802  0.0716
17473SOL     OW53660   7.290   1.364   2.934  0.6507 -0.1563  0.0015
17473SOL    HW153661   7.348   1.437   2.912 -1.4383  2.0501  1.5405
17473SOL    HW253662   7.305   1.348   3.027 -0.1643 -0.5028  0.0814
17474SOL     OW53663   0.117   7.219   6.738  0.0863 -0.2566 -0.1283
17474SOL    HW153664   0.112   7.187   6.829  0.0714 -2.2982 -0.8052
17474SOL    HW253665   0.041   7.276   6.728 -1.3599 -2.0257  0.4260
17475SOL     OW53666   5.152   4.169   2.014  0.2775  0.1733  0.6760
17475SOL    HW153667   5.153   4.175   2.110 -2.2394  0.1134  0.7396
17475SOL    HW253668   5.125   4.080   1.996  0.0062  0.4105 -0.0886
17476SOL     OW53669   1.881   5.805   5.959 -0.5329  0.1808  0.2161
17476SOL    HW153670   1.900   5.856   5.880 -0.1960 -1.8305 -1.0511
17476SOL    HW253671   1.798   5.841   5.991  0.0316  1.9568 -0.2400
17477SOL     OW53672   1.823   8.061   2.539  0.6167 -0.0888  0.5903
17477SOL    HW153673   1.842   8.014   2.458  3.4520  2.2219 -0.2182
17477SOL    HW253674   1.728   8.057   2.548 -0.0159  1.2471 -3.9459
17478SOL     OW53675   3.674   1.945   7.269  0.1292  0.2455 -0.6945
17478SOL    HW153676   3.635   1.948   7.357 -0.9856 -3.2025 -0.9990
17478SOL    HW253677   3.633   2.017   7.222  0.4847  1.9354  1.4886
17479SOL     OW53678   2.906   7.994   2.397 -0.0038 -0.0444  0.1545
17479SOL    HW153679   2.925   7.900   2.400  0.1922 -0.0795 -1.3654
17479SOL    HW253680   2.960   8.027   2.325 -0.2672  1.1843  0.5069
17480SOL     OW53681   3.413   3.519   4.181 -0.3759 -0.2778  0.9082
17480SOL    HW153682   3.441   3.459   4.112 -0.5737 -0.6005  1.1060
17480SOL    HW253683   3.319   3.532   4.165 -0.2746  0.2043  0.6958
17481SOL     OW53684   5.908   5.508   4.715  0.2513  0.6272 -0.6989
17481SOL    HW153685   5.955   5.498   4.632  1.3452  3.6222 -0.4841
17481SOL    HW253686   5.834   5.564   4.695  1.2300  2.4230  0.5817
17482SOL     OW53687   7.124   3.245   4.512  0.1023 -0.0204 -0.1629
17482SOL    HW153688   7.155   3.335   4.522  0.3851 -0.2834  1.4496
17482SOL    HW253689   7.171   3.196   4.580  2.1700 -1.9504 -2.8460
17483SOL     OW53690   3.594   4.430   3.248 -0.4321  0.4297 -0.5112
17483SOL    HW153691   3.578   4.420   3.341 -3.1779 -2.5691 -1.2394
17483SOL    HW253692   3.546   4.509   3.223 -1.1422  0.2416  0.2799
17484SOL     OW53693   7.318   5.116   5.416  0.1574  0.3933  0.1757
17484SOL    HW153694   7.346   5.064   5.340  0.0153  0.9180 -0.2378
17484SOL    HW253695   7.292   5.200   5.379 -1.2198  0.1819  0.6497
17485SOL     OW53696   6.568   0.588   5.540  0.1944 -0.7101 -0.4024
17485SOL    HW153697   6.520   0.654   5.490  1.6431 -0.7009 -1.8214
17485SOL    HW253698   6.634   0.555   5.479  1.3212 -1.4401  1.1788
17486SOL     OW53699   1.580   0.151   1.004  0.2450  0.5700 -0.4759
17486SOL    HW153700   1.516   0.221   0.994  0.1669  0.2871 -2.1998
17486SOL    HW253701   1.547   0.098   1.076 -1.0924  0.8343 -0.8780
17487SOL     OW53702   6.631   6.514   3.596  0.2488 -0.1834  0.4342
17487SOL    HW153703   6.579   6.471   3.528 -2.7794  2.4047  0.9704
17487SOL    HW253704   6.598   6.478   3.678 -1.5107  2.1588  0.8263
17488SOL     OW53705   2.490   4.992   7.517  0.0558 -0.0016  0.0425
17488SOL    HW153706   2.507   4.915   7.463 -0.7816 -0.3810  0.3137
17488SOL    HW253707   2.403   4.977   7.555  0.6790  0.1751  1.6125
17489SOL     OW53708   7.216   1.576   4.954  0.5884  0.0864 -0.1670
17489SOL    HW153709   7.225   1.649   5.015 -0.9405  0.2648 -0.1522
17489SOL    HW253710   7.219   1.616   4.867  0.8668  0.0356 -0.1827
17490SOL     OW53711   5.578   4.158   6.659  0.3808 -0.2068 -0.0167
17490SOL    HW153712   5.556   4.100   6.732  1.0822 -0.7498 -0.2212
17490SOL    HW253713   5.498   4.207   6.641  0.3262  0.2113  1.3742
17491SOL     OW53714   4.994   5.895   1.692 -0.2770  1.0858 -0.2005
17491SOL    HW153715   4.930   5.966   1.684 -0.8223  0.4953 -1.3957
17491SOL    HW253716   5.075   5.932   1.658 -0.7128  0.9602 -1.4081
17492SOL     OW53717   2.043   3.028   7.608  0.1111  0.5064 -0.2247
17492SOL    HW153718   2.037   2.964   7.679  0.4315 -1.5515 -2.0123
17492SOL    HW253719   2.122   3.079   7.629  0.7248 -0.6800  0.4066
17493SOL     OW53720   3.621   5.658   4.855 -1.1185 -0.1288 -0.0811
17493SOL    HW153721   3.526   5.663   4.871 -0.8831  0.7131  1.1481
17493SOL    HW253722   3.655   5.740   4.889  0.0007 -0.1964 -1.0153
17494SOL     OW53723   0.754   2.979   2.658  0.5580 -0.4528 -0.1790
17494SOL    HW153724   0.812   3.052   2.637 -0.6321  0.6650  0.3032
17494SOL    HW253725   0.805   2.923   2.717  1.7054 -0.3476 -1.0532
17495SOL     OW53726   5.297   5.017   8.065  0.0878 -0.5574  0.3766
17495SOL    HW153727   5.243   5.008   7.986 -0.1799 -1.9721  0.7065
17495SOL    HW253728   5.377   4.969   8.045  0.3783 -0.1966  0.6569
17496SOL     OW53729   7.213   4.251   6.107  0.3413  0.2992  0.3565
17496SOL    HW153730   7.183   4.305   6.180 -2.5170 -2.8157  1.5903
17496SOL    HW253731   7.287   4.201   6.143  1.8100  1.9806 -0.2531
17497SOL     OW53732   5.316   3.031   4.772 -0.0106 -0.5335 -0.2171
17497SOL    HW153733   5.343   3.121   4.755 -0.4677 -0.3349  0.1016
17497SOL    HW253734   5.220   3.033   4.764 -0.2267 -0.4860  2.1317
17498SOL     OW53735   1.861   5.744   5.493 -0.0582  0.1209  0.5006
17498SOL    HW153736   1.792   5.737   5.427 -1.5181  2.5504  1.7220
17498SOL    HW253737   1.826   5.696   5.569 -1.1189  2.6256  1.6470
17499SOL     OW53738   4.565   4.337   1.727 -0.6945 -0.6083 -0.0980
17499SOL    HW153739   4.484   4.351   1.776 -0.1121 -0.6504  0.9010
17499SOL    HW253740   4.634   4.341   1.793  0.1698 -0.0188 -1.0181
17500SOL     OW53741   0.631   3.363   1.879  0.3800 -0.1287  0.1838
17500SOL    HW153742   0.608   3.417   1.954  0.9315 -0.0277  0.2841
17500SOL    HW253743   0.672   3.424   1.817 -0.9908 -0.0181 -0.6211
17501SOL     OW53744   4.521   4.551   2.391 -0.2762  1.3882 -0.4160
17501SOL    HW153745   4.478   4.468   2.374 -2.4388  2.5986 -1.1069
17501SOL    HW253746   4.567   4.572   2.310  1.2996  0.2809  0.1845
17502SOL     OW53747   4.359   1.558   8.274  0.1149  0.0289  0.2516
17502SOL    HW153748   4.429   1.582   8.214  0.1385  0.4905  0.4594
17502SOL    HW253749   4.379   1.469   8.300  0.1917 -0.1164 -0.3021
17503SOL     OW53750   3.315   2.152   2.639  0.5989  0.3717 -0.4437
17503SOL    HW153751   3.380   2.219   2.661  0.8819 -0.4318  1.2524
17503SOL    HW253752   3.320   2.089   2.711 -1.4090 -0.1962 -0.7615
17504SOL     OW53753   6.861   4.042   4.350 -0.2949 -0.2826  0.3130
17504SOL    HW153754   6.903   4.088   4.423  2.0486  1.1814 -1.8709
17504SOL    HW253755   6.917   3.967   4.334 -0.0081  0.1716 -0.8663
17505SOL     OW53756   1.534   3.308   1.203  0.0861 -0.1581 -0.2380
17505SOL    HW153757   1.617   3.309   1.156 -0.6348 -2.6003 -1.6770
17505SOL    HW253758   1.551   3.257   1.282 -0.2884 -1.6466 -1.0950
17506SOL     OW53759   2.709   7.961   2.888  0.1613 -0.0829 -0.6916
17506SOL    HW153760   2.702   7.867   2.873  1.3429  0.0482 -2.2775
17506SOL    HW253761   2.795   7.984   2.853 -0.1813  1.6112 -0.4633
17507SOL     OW53762   0.051   1.991   4.944  0.1178 -0.1125  0.2913
17507SOL    HW153763   0.106   2.064   4.915 -0.9313  0.7424  0.4317
17507SOL    HW253764   0.054   1.995   5.039  1.7822 -1.5787  0.3316
17508SOL     OW53765   4.262   0.360   4.647  0.0067  0.0087 -0.2481
17508SOL    HW153766   4.311   0.347   4.728 -1.3662  2.1606  0.9875
17508SOL    HW253767   4.213   0.278   4.635  0.5431 -0.4795  0.8628
17509SOL     OW53768   4.171   3.559   3.560  0.3411 -0.4715  0.3691
17509SOL    HW153769   4.091   3.554   3.612  0.9075 -0.7978  1.2033
17509SOL    HW253770   4.141   3.543   3.470 -0.5413 -0.5154  0.6610
17510SOL     OW53771   6.715   1.166   1.542  0.4354  0.0069 -0.3594
17510SOL    HW153772   6.765   1.096   1.583 -1.4573 -1.3622 -0.3133
17510SOL    HW253773   6.738   1.244   1.591  1.7920 -0.7525  0.2536
17511SOL     OW53774   6.308   3.265   5.009  0.3516 -0.1052 -0.3399
17511SOL    HW153775   6.368   3.325   5.053 -0.6377  0.8537 -0.2558
17511SOL    HW253776   6.267   3.318   4.940 -1.1526 -0.4415  0.2657
17512SOL     OW53777   7.966   3.949   3.098 -0.3710 -0.0580 -0.3121
17512SOL    HW153778   7.926   3.907   3.021 -0.8360 -0.0487 -0.0737
17512SOL    HW253779   8.045   3.897   3.114 -1.5006 -1.5122  0.6236
17513SOL     OW53780   6.682   4.650   7.192  0.0412  0.1507 -0.7235
17513SOL    HW153781   6.767   4.677   7.159  0.5497  0.3011  0.6705
17513SOL    HW253782   6.673   4.696   7.276 -0.9081 -0.7574 -0.3190
17514SOL     OW53783   7.472   6.614   7.107  0.4357  0.1099  0.2586
17514SOL    HW153784   7.479   6.667   7.028 -1.0639 -0.5422 -0.3305
17514SOL    HW253785   7.494   6.525   7.079 -1.1632 -0.3186  0.3216
17515SOL     OW53786   7.160   4.325   5.007 -0.5195 -0.3010  0.0426
17515SOL    HW153787   7.244   4.287   4.983 -0.6007  0.6560 -1.8342
17515SOL    HW253788   7.175   4.364   5.094  1.3563  1.0111 -0.8299
17516SOL     OW53789   2.824   2.405   7.611  0.1932 -0.0787 -0.3317
17516SOL    HW153790   2.845   2.323   7.656  0.0096  0.3398  0.5231
17516SOL    HW253791   2.881   2.405   7.534  0.7654 -0.6346  0.0824
17517SOL     OW53792   2.578   8.221   5.075 -0.2273  0.5322 -0.0350
17517SOL    HW153793   2.598   8.308   5.108  1.1103 -0.3101  1.4122
17517SOL    HW253794   2.659   8.191   5.034 -0.5582 -0.1826 -0.1814
17518SOL     OW53795   0.111   0.485   0.817 -0.4899 -0.4184 -0.1418
17518SOL    HW153796   0.175   0.415   0.805  0.2125  0.2895 -0.5614
17518SOL    HW253797   0.091   0.515   0.729 -0.9520 -0.2294  0.0237
17519SOL     OW53798   0.545   0.620   5.988  0.8182  0.1909  0.2407
17519SOL    HW153799   0.577   0.642   5.901 -0.3793 -0.0019 -0.2550
17519SOL    HW253800   0.535   0.705   6.032 -1.6969  0.5592 -0.9342
17520SOL     OW53801   2.494   1.111   3.991  0.1614 -0.2187 -0.3364
17520SOL    HW153802   2.561   1.094   3.925  0.2211  1.3452 -0.6928
17520SOL    HW253803   2.510   1.201   4.019  0.2121 -0.8879  1.8975
17521SOL     OW53804   8.182   5.064   2.256 -0.0085  0.0404  0.2920
17521SOL    HW153805   8.191   5.112   2.338 -1.5601 -0.0218  0.4972
17521SOL    HW253806   8.185   5.132   2.188  1.7152  0.0514  0.3596
17522SOL     OW53807   6.374   6.601   0.527  0.3027  0.2759  0.3202
17522SOL    HW153808   6.361   6.570   0.616 -1.6333 -1.2069 -0.4272
17522SOL    HW253809   6.427   6.533   0.485 -1.2018 -0.4873 -0.4152
17523SOL     OW53810   5.789   1.737   7.656 -0.0967 -0.2280  0.5955
17523SOL    HW153811   5.874   1.705   7.687 -0.4563 -2.8550 -0.9558
17523SOL    HW253812   5.729   1.723   7.730  0.8047  1.8250  1.7669
17524SOL     OW53813   2.689   7.815   6.616  0.1415  0.0526 -0.3508
17524SOL    HW153814   2.594   7.810   6.615  0.1871 -1.4147  1.2219
17524SOL    HW253815   2.718   7.725   6.605  1.4128  0.7476 -3.4499
17525SOL     OW53816   5.509   7.859   0.815 -0.4163 -0.0899  0.2110
17525SOL    HW153817   5.578   7.810   0.769 -0.8206 -0.3078 -0.1708
17525SOL    HW253818   5.555   7.905   0.885  0.3107  0.7834 -0.8311
17526SOL     OW53819   3.658   4.498   7.857 -0.0574 -0.0585  0.3270
17526SOL    HW153820   3.621   4.586   7.847  0.1944  0.0616  0.4658
17526SOL    HW253821   3.748   4.512   7.885  0.4871 -0.3387 -1.2379
17527SOL     OW53822   2.323   6.739   4.467 -0.3792  0.3204 -0.5435
17527SOL    HW153823   2.361   6.742   4.555 -1.4102 -1.5562 -0.0167
17527SOL    HW253824   2.232   6.714   4.481 -0.4515 -0.3564 -2.1714
17528SOL     OW53825   3.594   6.705   7.321 -0.2356 -0.4577  0.2422
17528SOL    HW153826   3.609   6.684   7.413  0.9160  1.1966  0.4437
17528SOL    HW253827   3.680   6.728   7.287 -1.2849  3.1909 -0.1441
17529SOL     OW53828   6.353   4.369   0.617 -0.1501  0.2944  0.3190
17529SOL    HW153829   6.329   4.453   0.577 -3.1294  0.6520  2.6686
17529SOL    HW253830   6.288   4.307   0.583  0.9373 -0.6687 -0.0104
17530SOL     OW53831   6.135   2.894   3.366 -0.3110 -0.2979  0.0030
17530SOL    HW153832   6.212   2.913   3.313  0.2935 -0.0037  0.9825
17530SOL    HW253833   6.155   2.812   3.410 -0.0642  0.3903  1.1837
17531SOL     OW53834   3.941   2.871   4.239  0.4100 -0.2476 -0.5108
17531SOL    HW153835   3.900   2.856   4.324 -0.8845 -1.1396 -1.2818
17531SOL    HW253836   3.891   2.943   4.201  0.1064 -0.7673 -1.0961
17532SOL     OW53837   0.988   7.270   6.886  0.4297 -0.2047  0.2709
17532SOL    HW153838   0.959   7.179   6.898  0.5409 -0.2069  0.5269
17532SOL    HW253839   0.954   7.295   6.800  0.4699 -0.5185  0.1628
17533SOL     OW53840   6.160   3.201   6.793  0.2411 -0.6929  0.3541
17533SOL    HW153841   6.172   3.136   6.863  1.3106 -1.8042 -0.8273
17533SOL    HW253842   6.070   3.190   6.765 -0.4522  0.3391  2.1201
17534SOL     OW53843   3.163   1.087   3.560  0.3194  0.1859 -0.2134
17534SOL    HW153844   3.094   1.149   3.535  1.1120  1.1009 -0.1582
17534SOL    HW253845   3.125   1.039   3.635  0.1570  1.4529  0.5308
17535SOL     OW53846   0.486   3.725   4.389 -0.0602  0.0534 -0.7717
17535SOL    HW153847   0.555   3.776   4.431  0.5176 -1.8334  0.5956
17535SOL    HW253848   0.405   3.759   4.426  0.3268 -0.0145  0.1401
17536SOL     OW53849   4.517   1.431   1.343  0.1796 -0.1807 -0.3834
17536SOL    HW153850   4.487   1.441   1.252  2.2513  1.7243 -0.9030
17536SOL    HW253851   4.579   1.359   1.339  0.1868 -0.1707 -0.4594
17537SOL     OW53852   1.468   5.483   8.026  0.2274  0.1867  0.5481
17537SOL    HW153853   1.469   5.531   8.108  0.2315 -0.6036  1.0173
17537SOL    HW253854   1.495   5.394   8.050 -0.1287 -0.1383 -0.2430
17538SOL     OW53855   5.336   4.303   1.363  0.0860  0.3745  0.2759
17538SOL    HW153856   5.385   4.297   1.445  2.4485 -1.4114 -1.1868
17538SOL    HW253857   5.385   4.365   1.310 -0.4429  0.2079 -0.4243
17539SOL     OW53858   4.628   2.136   1.661 -0.3641 -0.0172 -0.2845
17539SOL    HW153859   4.580   2.189   1.597  0.8332  1.9281  0.3886
17539SOL    HW253860   4.693   2.088   1.608 -1.8142 -1.2809 -0.9629
17540SOL     OW53861   5.951   7.993   5.124 -0.3303 -0.1653  0.2320
17540SOL    HW153862   6.016   8.026   5.186 -0.0615 -0.3355  0.0456
17540SOL    HW253863   5.936   7.903   5.151  0.6512 -0.6092 -0.6345
17541SOL     OW53864   7.508   4.632   7.366 -0.3828 -0.4851  0.4769
17541SOL    HW153865   7.450   4.572   7.413 -1.7670  0.5375  0.0807
17541SOL    HW253866   7.461   4.715   7.364  0.6204  0.0690 -0.8013
17542SOL     OW53867   7.852   2.266   0.527 -0.4420  0.4903  0.0309
17542SOL    HW153868   7.812   2.179   0.526 -0.8560  0.6576  1.3082
17542SOL    HW253869   7.870   2.283   0.619 -1.0272  2.0628 -0.1339
17543SOL     OW53870   6.688   0.243   4.685  0.3742  0.1728 -0.0383
17543SOL    HW153871   6.694   0.231   4.590 -0.3460 -0.2757 -0.0343
17543SOL    HW253872   6.669   0.155   4.719  1.1517  0.2376  0.5694
17544SOL     OW53873   1.953   6.350   5.293 -0.0085  0.0911  0.0069
17544SOL    HW153874   1.886   6.417   5.309 -1.2681 -0.7407 -1.5769
17544SOL    HW253875   1.968   6.354   5.198  0.9236 -0.9147  0.1061
17545SOL     OW53876   4.105   4.399   8.165 -0.2595  0.0646 -0.1934
17545SOL    HW153877   4.153   4.480   8.146  1.0522 -0.4493  0.8008
17545SOL    HW253878   4.039   4.424   8.230 -0.2004  0.4456 -0.2813
17546SOL     OW53879   3.108   1.429   1.275  0.6100 -0.0807  0.1147
17546SOL    HW153880   3.098   1.357   1.213  0.5499 -0.1845  0.2425
17546SOL    HW253881   3.089   1.389   1.360 -1.5711  0.5766 -0.0460
17547SOL     OW53882   7.121   1.805   1.795 -0.4932 -0.1902  0.1291
17547SOL    HW153883   7.208   1.772   1.818  0.0080  1.4492  0.6689
17547SOL    HW253884   7.136   1.898   1.774 -1.8683 -0.2631 -1.2308
17548SOL     OW53885   3.429   5.491   5.643 -0.0325  0.6536 -0.3858
17548SOL    HW153886   3.475   5.538   5.572 -0.1219  0.2828 -0.6880
17548SOL    HW253887   3.421   5.401   5.611 -1.2051  0.7687 -0.4573
17549SOL     OW53888   2.738   0.962   2.110 -0.2310  0.6983 -0.2948
17549SOL    HW153889   2.717   0.962   2.204  0.3837 -2.3123 -0.1203
17549SOL    HW253890   2.703   0.879   2.077  2.3697  0.2499 -2.0686
17550SOL     OW53891   3.598   7.730   1.601  0.3687  0.0004 -0.2450
17550SOL    HW153892   3.690   7.750   1.586 -0.0878  1.6674 -0.9490
17550SOL    HW253893   3.563   7.711   1.514  0.4245 -2.4865  0.2160
17551SOL     OW53894   8.179   4.000   7.591  0.7856 -0.1024 -0.2197
17551SOL    HW153895   8.256   4.041   7.631 -0.5703 -0.0651  2.4311
17551SOL    HW253896   8.118   4.072   7.577  0.2949 -0.4847 -0.0558
17552SOL     OW53897   1.598   5.340   6.326 -0.5640 -0.8142 -0.0988
17552SOL    HW153898   1.651   5.409   6.285 -0.5509  1.3021  3.3359
17552SOL    HW253899   1.508   5.373   6.321 -0.8523 -1.6433 -0.5118
17553SOL     OW53900   8.218   2.926   5.588 -0.4492  0.7624 -0.1858
17553SOL    HW153901   8.204   2.898   5.498 -1.6870  0.0871  0.1927
17553SOL    HW253902   8.163   2.867   5.640 -0.4484  1.7226  0.9326
17554SOL     OW53903   7.264   2.999   6.499  0.5653 -0.1191 -0.4984
17554SOL    HW153904   7.276   3.010   6.405 -2.3303  0.9935 -0.7905
17554SOL    HW253905   7.344   3.033   6.538  0.8373  1.6006 -2.4754
17555SOL     OW53906   5.182   1.412   3.487  0.9464  0.4261 -0.1862
17555SOL    HW153907   5.210   1.326   3.520  0.0226 -0.0962 -0.7245
17555SOL    HW253908   5.086   1.407   3.487  0.9093  0.8362 -1.8203
17556SOL     OW53909   0.438   0.175   5.883  0.2565 -0.6711 -0.3862
17556SOL    HW153910   0.422   0.237   5.954 -0.1259 -0.1539 -0.9213
17556SOL    HW253911   0.361   0.181   5.827 -0.2579 -2.3940  0.1097
17557SOL     OW53912   5.421   4.654   0.296 -0.8129 -0.1183 -0.0553
17557SOL    HW153913   5.482   4.678   0.226  0.0403  0.9375  1.0179
17557SOL    HW253914   5.340   4.701   0.275 -0.4468  0.4762 -0.1616
17558SOL     OW53915   1.976   6.177   2.239 -0.3189 -0.3056 -0.1066
17558SOL    HW153916   1.914   6.244   2.267  0.2850  0.3860 -0.3986
17558SOL    HW253917   2.059   6.225   2.228 -0.3786 -0.6562 -2.4516
17559SOL     OW53918   7.943   4.938   3.572 -0.0858 -0.6055  0.1210
17559SOL    HW153919   7.951   5.024   3.612 -3.0293 -0.9536  1.5744
17559SOL    HW253920   8.025   4.893   3.594  1.6683  1.9257 -1.0452
17560SOL     OW53921   4.881   1.856   2.100 -0.3083  0.2865  0.5611
17560SOL    HW153922   4.844   1.768   2.095  0.2240 -0.0312  1.9979
17560SOL    HW253923   4.975   1.842   2.088 -0.5667  1.0526 -2.7647
17561SOL     OW53924   1.558   0.596   0.036  0.0010 -0.3333 -0.1691
17561SOL    HW153925   1.619   0.645   0.093 -0.1443  0.6468 -0.8499
17561SOL    HW253926   1.472   0.616   0.072  0.1355 -3.3700  2.0925
17562SOL     OW53927   2.404   1.437   7.607  0.3071 -0.2825 -0.4866
17562SOL    HW153928   2.358   1.358   7.577  0.0657 -0.2418 -0.2240
17562SOL    HW253929   2.492   1.407   7.626  0.6634 -0.1767 -1.8970
17563SOL     OW53930   0.131   3.112   1.228 -0.4764 -0.1698 -0.6991
17563SOL    HW153931   0.178   3.178   1.279 -2.4750 -1.2135  2.6953
17563SOL    HW253932   0.179   3.031   1.245 -0.2592 -0.2629 -1.7427
17564SOL     OW53933   0.668   0.277   4.687  0.0272 -0.1386 -0.0016
17564SOL    HW153934   0.719   0.253   4.764 -0.4220 -0.8625  0.0647
17564SOL    HW253935   0.582   0.300   4.720 -0.5759 -1.7446 -0.4186
17565SOL     OW53936   0.479   8.267   4.870 -0.5120 -0.1658  0.1033
17565SOL    HW153937   0.448   8.212   4.942  0.8308 -1.0961 -0.0285
17565SOL    HW253938   0.400   8.283   4.817 -0.8444 -2.2450 -0.0540
17566SOL     OW53939   2.643   4.604   5.928  0.1179 -0.2748  0.1093
17566SOL    HW153940   2.578   4.538   5.903 -0.1486 -0.2880  0.8192
17566SOL    HW253941   2.619   4.629   6.018  1.5279 -0.8335  0.6662
17567SOL     OW53942   5.053   4.031   7.046  0.2079  0.4277 -0.3186
17567SOL    HW153943   5.092   4.079   6.974  1.2730 -0.8066 -0.5852
17567SOL    HW253944   4.988   3.974   7.005 -0.4373  0.9913 -0.0967
17568SOL     OW53945   0.568   0.954   1.629  0.3735 -0.2169  0.5480
17568SOL    HW153946   0.526   1.033   1.663 -0.0368 -0.0657 -0.3127
17568SOL    HW253947   0.519   0.882   1.671 -1.7567 -0.0668 -1.5921
17569SOL     OW53948   3.365   0.934   0.272  1.2418  0.6435  0.8837
17569SOL    HW153949   3.281   0.969   0.304 -0.4843 -1.3888 -1.2467
17569SOL    HW253950   3.412   1.011   0.241 -0.5290  1.6617  0.6189
17570SOL     OW53951   0.503   1.657   4.914  0.4272 -0.0206  0.2079
17570SOL    HW153952   0.528   1.575   4.957  0.5341  0.7796  1.7235
17570SOL    HW253953   0.418   1.679   4.952  0.3441  0.5060 -0.2767
17571SOL     OW53954   7.967   6.385   2.061  0.1221 -0.0568  0.2195
17571SOL    HW153955   7.984   6.293   2.043 -1.0332 -0.6463  2.0229
17571SOL    HW253956   7.895   6.384   2.124 -0.2815  2.0950 -0.1769
17572SOL     OW53957   1.733   0.118   4.438  0.1813 -0.1279  0.6026
17572SOL    HW153958   1.818   0.161   4.433  1.7394 -3.2554 -0.4713
17572SOL    HW253959   1.686   0.148   4.361  0.9599  0.2286  0.2637
17573SOL     OW53960   6.103   2.300   4.117  0.7222  0.1618  0.1567
17573SOL    HW153961   6.183   2.256   4.147  0.2268 -1.4569 -0.8079
17573SOL    HW253962   6.034   2.264   4.172  0.4277  0.3723 -0.0740
17574SOL     OW53963   7.312   3.904   8.002 -0.1985  0.2870 -0.3667
17574SOL    HW153964   7.230   3.927   8.046 -1.0163 -1.3137 -1.0106
17574SOL    HW253965   7.355   3.844   8.063 -0.7774 -0.9872 -1.1759
17575SOL     OW53966   6.404   2.907   2.273 -0.1698 -0.4289 -0.6128
17575SOL    HW153967   6.408   2.955   2.190 -0.7861  0.6044 -0.0534
17575SOL    HW253968   6.310   2.894   2.288 -0.1032  0.1733  0.3658
17576SOL     OW53969   2.425   1.932   7.568  0.5564  0.1182 -0.0159
17576SOL    HW153970   2.389   1.926   7.657 -0.3087  0.8175 -0.3060
17576SOL    HW253971   2.510   1.889   7.573  0.8211  0.7744  1.3203
17577SOL     OW53972   3.520   0.526   1.984  0.0233  0.5112 -0.5917
17577SOL    HW153973   3.597   0.481   1.948  0.1611  0.7308 -0.5700
17577SOL    HW253974   3.552   0.567   2.064  0.0136  1.0526 -0.8646
17578SOL     OW53975   0.543   5.643   0.564 -0.3016 -0.2915  0.9011
17578SOL    HW153976   0.560   5.615   0.654  0.2919  2.5553  1.7593
17578SOL    HW253977   0.451   5.626   0.550 -0.8085  0.7797  2.7048
17579SOL     OW53978   7.694   3.540   7.015 -0.1905  0.1033 -0.2804
17579SOL    HW153979   7.676   3.610   6.953  0.2393 -0.0553 -0.5898
17579SOL    HW253980   7.774   3.499   6.982  0.1299  0.1239  0.4742
17580SOL     OW53981   3.766   2.433   7.048 -0.0823 -0.0852 -0.4206
17580SOL    HW153982   3.843   2.407   7.100 -0.1688 -1.5708 -0.9940
17580SOL    HW253983   3.758   2.527   7.062  1.6898  0.0467 -0.1448
17581SOL     OW53984   6.384   0.626   1.493  0.1779 -0.1107 -0.5755
17581SOL    HW153985   6.470   0.588   1.510  0.8728  1.7929  0.3124
17581SOL    HW253986   6.335   0.610   1.573 -0.1042 -0.6834 -0.8625
17582SOL     OW53987   6.882   1.432   5.024 -0.2072  0.0308 -0.0201
17582SOL    HW153988   6.884   1.388   4.939  0.3868 -1.2456  0.6430
17582SOL    HW253989   6.947   1.386   5.077 -0.3966  0.9706  1.0587
17583SOL     OW53990   4.486   6.233   6.273  0.1080  0.2628 -0.2694
17583SOL    HW153991   4.504   6.326   6.290 -1.0181  0.7716 -1.7446
17583SOL    HW253992   4.399   6.219   6.312  0.5545 -0.3440  0.5194
17584SOL     OW53993   0.552   7.905   3.225  0.1331 -0.2546  0.1605
17584SOL    HW153994   0.624   7.943   3.275  0.0563 -0.4511  0.4205
17584SOL    HW253995   0.568   7.933   3.135 -0.0506  0.6042  0.3881
17585SOL     OW53996   4.186   7.923   6.746 -0.4150  0.2490  0.0916
17585SOL    HW153997   4.135   7.899   6.669 -0.6409  0.8839  0.0435
17585SOL    HW253998   4.136   7.994   6.787 -0.6623 -0.5456  1.1988
17586SOL     OW53999   3.757   4.360   6.661 -0.1877 -0.3590  0.2177
17586SOL    HW154000   3.758   4.275   6.617  0.4005 -0.2349 -0.0315
17586SOL    HW254001   3.668   4.393   6.648 -0.8313 -1.5468  1.5379
17587SOL     OW54002   0.469   3.682   6.518  0.4276 -0.3657  0.3538
17587SOL    HW154003   0.444   3.614   6.455  1.1303 -1.6256  1.3972
17587SOL    HW254004   0.395   3.742   6.520 -0.2134 -1.1221 -0.5806
17588SOL     OW54005   6.695   3.609   2.963  0.3168  0.2004  0.0032
17588SOL    HW154006   6.611   3.650   2.943 -0.4396 -0.7578  1.2198
17588SOL    HW254007   6.730   3.662   3.035  1.6063  1.7019 -1.6559
17589SOL     OW54008   7.885   7.301   0.283  0.8575  0.0141  0.0133
17589SOL    HW154009   7.820   7.231   0.274  0.4794  0.2942  0.5225
17589SOL    HW254010   7.834   7.382   0.273  1.3220  0.2128 -0.7824
17590SOL     OW54011   1.941   3.953   4.532 -0.0530  0.4993  0.2002
17590SOL    HW154012   1.885   3.877   4.515  0.3492  0.4700 -1.0451
17590SOL    HW254013   1.880   4.026   4.542 -0.4007  0.1490  0.6760
17591SOL     OW54014   2.838   3.961   7.745  0.3968 -0.2467  0.2896
17591SOL    HW154015   2.797   3.890   7.793  0.4101  0.2743  1.0808
17591SOL    HW254016   2.776   3.982   7.676 -0.7079  0.5690  1.5044
17592SOL     OW54017   5.395   5.750   1.209  0.5341 -0.2365  0.5014
17592SOL    HW154018   5.348   5.805   1.271  0.6928 -1.1380  1.4314
17592SOL    HW254019   5.464   5.708   1.261  1.0006 -0.5917 -0.3898
17593SOL     OW54020   2.174   2.701   6.326 -0.0074  0.2676 -0.0125
17593SOL    HW154021   2.082   2.676   6.319 -0.1124  1.2293 -2.4709
17593SOL    HW254022   2.221   2.628   6.285  0.3811 -0.5175  1.8101
17594SOL     OW54023   5.707   2.161   6.875  0.6769 -0.3751 -0.5838
17594SOL    HW154024   5.766   2.235   6.864  1.5514 -0.8382  0.8709
17594SOL    HW254025   5.764   2.084   6.872  0.0941 -0.8557  0.3075
17595SOL     OW54026   6.781   0.710   3.902 -0.0467 -0.3768  0.1952
17595SOL    HW154027   6.870   0.690   3.873 -0.0842  1.0683 -0.9956
17595SOL    HW254028   6.726   0.686   3.828 -0.6486 -1.1498  0.8817
17596SOL     OW54029   1.049   0.441   4.395  0.0377 -0.0857  0.5734
17596SOL    HW154030   0.990   0.366   4.386 -1.1472  0.8884  0.0635
17596SOL    HW254031   0.992   0.517   4.385  1.6167  0.8724 -1.3947
17597SOL     OW54032   5.549   0.836   3.181 -0.0551 -0.0142 -0.5256
17597SOL    HW154033   5.481   0.904   3.187  0.1344  0.0584  0.8715
17597SOL    HW254034   5.502   0.754   3.194 -0.0030 -0.0202 -0.3734
17598SOL     OW54035   1.184   2.541   1.351  0.4609 -0.0327 -0.6299
17598SOL    HW154036   1.243   2.482   1.399  0.3557  0.4086  0.0418
17598SOL    HW254037   1.102   2.492   1.343 -0.3756  0.8785  1.9226
17599SOL     OW54038   5.567   0.386   5.610  0.2404 -0.1323  0.0801
17599SOL    HW154039   5.622   0.374   5.533 -0.9843 -0.4557 -0.7426
17599SOL    HW254040   5.525   0.471   5.596 -1.6038 -1.1343 -0.6382
17600SOL     OW54041   0.999   8.105   0.950 -0.2101 -0.1359  0.1023
17600SOL    HW154042   0.986   8.154   1.031  0.0045  0.0499  0.0248
17600SOL    HW254043   0.943   8.149   0.886 -0.3108 -0.2271  0.1272
17601SOL     OW54044   6.326   2.666   5.913 -0.1715 -0.0035 -0.0500
17601SOL    HW154045   6.356   2.655   6.003  1.7282  2.3703 -0.3480
17601SOL    HW254046   6.239   2.702   5.921  0.0747  0.4058  0.8377
17602SOL     OW54047   7.770   4.155   3.072  0.5136  0.4977 -0.6373
17602SOL    HW154048   7.707   4.147   3.143 -1.2519  0.5877 -2.1680
17602SOL    HW254049   7.827   4.078   3.083 -0.2407  0.0630  0.3646
17603SOL     OW54050   3.671   2.825   4.848 -0.1514  0.5037  0.1000
17603SOL    HW154051   3.654   2.876   4.768  0.1700  0.2201 -0.1529
17603SOL    HW254052   3.595   2.768   4.857 -0.6598  1.2402  0.5546
17604SOL     OW54053   6.612   4.098   6.236 -0.0599  0.0042 -0.2520
17604SOL    HW154054   6.648   4.045   6.307 -2.2311  0.2496  1.0720
17604SOL    HW254055   6.612   4.040   6.160 -0.7232 -1.3050  0.7348
17605SOL     OW54056   6.017   1.902   4.542 -0.6331 -0.4550  0.4825
17605SOL    HW154057   5.967   1.950   4.608  0.3233  0.9356  0.2334
17605SOL    HW254058   5.971   1.921   4.460  0.1997  0.7028  0.2741
17606SOL     OW54059   0.205   5.208   2.922  0.1064  0.6116  0.1221
17606SOL    HW154060   0.246   5.130   2.959 -0.7094  0.4124  0.6209
17606SOL    HW254061   0.112   5.199   2.943 -0.0570  1.5232 -0.1641
17607SOL     OW54062   3.598   2.718   2.499  0.6623 -0.0406  0.1078
17607SOL    HW154063   3.544   2.669   2.437  1.4518 -1.0315  0.1856
17607SOL    HW254064   3.675   2.743   2.449  0.9469 -0.1780  0.4735
17608SOL     OW54065   3.776   5.873   2.361  0.2070  0.7281  0.4151
17608SOL    HW154066   3.784   5.819   2.282  2.1552  0.6225  0.6644
17608SOL    HW254067   3.776   5.809   2.433 -0.9809  0.8610  0.5421
17609SOL     OW54068   3.098   4.971   2.447  0.0566 -0.7253  0.3313
17609SOL    HW154069   3.140   5.056   2.430  0.5862 -1.4133 -1.9582
17609SOL    HW254070   3.006   4.993   2.463 -0.0915  0.1794 -1.6233
17610SOL     OW54071   2.996   6.322   3.190  0.0580  0.1078  0.1291
17610SOL    HW154072   2.952   6.301   3.272  0.3679  0.1420  0.3074
17610SOL    HW254073   3.048   6.244   3.170 -0.5476 -0.1676 -0.3944
17611SOL     OW54074   4.912   1.343   6.338  0.1647  0.3123 -0.3105
17611SOL    HW154075   5.006   1.352   6.323  0.1631  2.0052  0.4946
17611SOL    HW254076   4.878   1.432   6.329 -1.0901 -0.0032  1.0831
17612SOL     OW54077   1.261   0.021   5.696 -0.2608 -0.3727 -0.1439
17612SOL    HW154078   1.263   0.113   5.724  0.6100 -0.8928  1.5799
17612SOL    HW254079   1.177  -0.012   5.727  0.5929 -0.8785  1.6646
17613SOL     OW54080   4.237   6.890   0.932  0.2894  0.1133 -0.0603
17613SOL    HW154081   4.250   6.876   0.838 -0.4315 -0.0514 -0.1377
17613SOL    HW254082   4.292   6.823   0.973 -0.1395 -0.4435 -0.3801
17614SOL     OW54083   6.035   4.430   4.068 -0.3581 -0.1034 -0.0411
17614SOL    HW154084   6.028   4.517   4.028  0.5886 -0.7929 -1.7698
17614SOL    HW254085   6.114   4.435   4.122  0.4323 -0.2889 -1.1792
17615SOL     OW54086   3.871   0.179   4.870 -1.0332 -0.8305 -0.4164
17615SOL    HW154087   3.786   0.151   4.902 -1.4579 -0.2376 -1.0232
17615SOL    HW254088   3.852   0.246   4.804 -0.1435 -1.4387 -1.3185
17616SOL     OW54089   2.144   5.784   6.766  0.1706 -0.4515 -0.3199
17616SOL    HW154090   2.082   5.846   6.728 -0.8958 -1.0560  0.4202
17616SOL    HW254091   2.224   5.836   6.779 -0.6874  0.7631  0.2075
17617SOL     OW54092   2.541   3.698   7.048  0.5868 -0.1080  0.1130
17617SOL    HW154093   2.603   3.657   6.987  0.3823 -0.1934 -0.0393
17617SOL    HW254094   2.533   3.788   7.016  0.4701 -0.1562  0.0060
17618SOL     OW54095   0.776   3.802   0.795  0.3692  0.5275 -0.0393
17618SOL    HW154096   0.804   3.716   0.763  0.0081  0.6685 -0.7403
17618SOL    HW254097   0.845   3.829   0.856  1.4959  0.6362 -1.3496
17619SOL     OW54098   0.139   1.125   7.913  0.2060  0.0521 -0.0483
17619SOL    HW154099   0.110   1.065   7.845 -1.2170 -0.6021  1.1097
17619SOL    HW254100   0.062   1.139   7.968  0.7049  2.3850  0.1170
17620SOL     OW54101   4.648   6.054   5.545 -0.0444 -0.1213 -0.1607
17620SOL    HW154102   4.596   6.056   5.465  0.6462  0.1135 -0.6012
17620SOL    HW254103   4.583   6.057   5.616 -0.6986 -1.3772 -0.6987
17621SOL     OW54104   1.254   3.071   1.536 -0.0603 -0.4070 -0.6194
17621SOL    HW154105   1.203   3.049   1.614 -0.1135  0.2445 -0.4725
17621SOL    HW254106   1.234   3.001   1.474 -0.3454 -0.6991 -0.2018
17622SOL     OW54107   3.433   5.275   0.797 -0.1766 -0.1036 -0.1290
17622SOL    HW154108   3.499   5.327   0.752  1.5620 -1.4930  0.7454
17622SOL    HW254109   3.477   5.192   0.817 -1.3720 -0.1077  2.7484
17623SOL     OW54110   2.106   0.282   2.670 -0.3866 -0.0491  0.1520
17623SOL    HW154111   2.094   0.351   2.736  2.0123 -1.6894  2.4336
17623SOL    HW254112   2.026   0.230   2.675 -1.1445  1.1004  0.2233
17624SOL     OW54113   5.940   5.605   0.421 -0.0596  0.0609  0.2585
17624SOL    HW154114   5.899   5.691   0.414 -0.5330 -0.2780 -1.3970
17624SOL    HW254115   5.950   5.591   0.515  0.6588  2.2152  0.5244
17625SOL     OW54116   5.458   6.963   0.330 -0.3380 -0.7837 -0.2293
17625SOL    HW154117   5.502   6.949   0.414 -1.5309 -1.9167  0.2301
17625SOL    HW254118   5.368   6.933   0.345 -0.5980 -0.8760 -1.8668
17626SOL     OW54119   2.820   8.120   5.009 -0.2394  0.3126  0.0415
17626SOL    HW154120   2.801   8.028   5.025  0.2053 -0.0499 -1.4885
17626SOL    HW254121   2.907   8.134   5.047 -1.1676  0.6234  2.1100
17627SOL     OW54122   1.138   1.189   8.000  0.4643  0.6380 -0.2168
17627SOL    HW154123   1.155   1.145   8.083  1.4361 -0.0397 -0.7643
17627SOL    HW254124   1.050   1.161   7.976  0.8397 -0.5458 -0.2651
17628SOL     OW54125   3.957   2.086   4.425  0.0343 -0.0858 -0.2579
17628SOL    HW154126   3.961   2.037   4.342  0.5290 -1.0638  0.3287
17628SOL    HW254127   4.041   2.132   4.429 -0.4033  0.7583 -0.7775
17629SOL     OW54128   4.345   7.776   2.866  0.0891  0.2246 -0.0364
17629SOL    HW154129   4.323   7.832   2.792  0.2669  0.6668  0.2402
17629SOL    HW254130   4.261   7.740   2.894 -0.1457  1.0450  0.3302
17630SOL     OW54131   4.552   5.811   8.295 -0.0570 -0.2775  0.0629
17630SOL    HW154132   4.628   5.761   8.326 -0.0363 -0.6553 -0.6080
17630SOL    HW254133   4.583   5.902   8.293  0.8268 -0.5936 -1.5803
17631SOL     OW54134   3.290   7.935   1.527  0.2319  0.4944  0.0615
17631SOL    HW154135   3.302   7.904   1.437 -0.4774  1.3534 -0.3410
17631SOL    HW254136   3.317   8.027   1.523  1.7010  0.1325  1.0849
17632SOL     OW54137   1.978   6.951   8.077  0.4893 -0.1988  0.2431
17632SOL    HW154138   2.027   6.928   8.155  1.1227  0.6288  0.1047
17632SOL    HW254139   1.949   7.041   8.093  1.2475  0.2420 -0.7677
17633SOL     OW54140   7.698   4.992   5.053 -0.1579 -0.3116 -0.2577
17633SOL    HW154141   7.789   4.969   5.072  0.2268  1.5142  0.1902
17633SOL    HW254142   7.675   4.936   4.979  0.9018 -1.7330  0.4467
17634SOL     OW54143   5.812   2.739   7.256 -0.2568  0.3218 -0.1124
17634SOL    HW154144   5.768   2.707   7.335 -0.8261  0.9397 -0.1754
17634SOL    HW254145   5.744   2.735   7.188 -0.0271  0.6572 -0.3625
17635SOL     OW54146   1.648   4.622   2.374  0.2258 -0.2155 -0.3148
17635SOL    HW154147   1.664   4.710   2.340  2.5227 -1.0964 -1.6754
17635SOL    HW254148   1.557   4.603   2.353 -0.6876  2.3257  1.1826
17636SOL     OW54149   1.821   4.862   6.212  0.4315 -0.3119 -0.1892
17636SOL    HW154150   1.775   4.780   6.196  1.0229 -1.0058  1.6236
17636SOL    HW254151   1.913   4.836   6.224  0.5347  0.5539  0.9348
17637SOL     OW54152   3.729   0.625   3.753 -0.0849  0.4364 -0.0562
17637SOL    HW154153   3.817   0.588   3.757  0.6581  2.2264  0.9537
17637SOL    HW254154   3.729   0.678   3.674  0.2116  1.5461  0.6782
17638SOL     OW54155   4.076   5.615   7.618  0.1479  0.4078 -0.3008
17638SOL    HW154156   4.124   5.698   7.613  0.8963 -0.0393 -0.5168
17638SOL    HW254157   4.080   5.580   7.529  1.4580 -0.7814  0.2239
17639SOL     OW54158   4.620   6.957   0.586 -0.2011 -0.6269  0.0666
17639SOL    HW154159   4.645   6.923   0.500 -2.2823 -0.7295 -0.5254
17639SOL    HW254160   4.574   6.884   0.628 -0.9500  0.0707  0.4790
17640SOL     OW54161   5.394   0.751   2.853 -0.0837  0.2485 -0.5975
17640SOL    HW154162   5.411   0.843   2.833  1.0809 -0.1182 -1.3527
17640SOL    HW254163   5.423   0.740   2.943  2.6093 -0.0653 -1.4592
17641SOL     OW54164   3.686   1.920   5.439 -0.0354 -0.1498 -0.6579
17641SOL    HW154165   3.765   1.926   5.493 -1.3009  1.7318  1.0874
17641SOL    HW254166   3.692   1.996   5.381 -0.4758 -0.1303 -0.6737
17642SOL     OW54167   6.054   7.324   0.495  0.2812 -0.1864 -0.3843
17642SOL    HW154168   6.035   7.414   0.468 -1.4209 -0.6094 -0.6787
17642SOL    HW254169   6.133   7.300   0.447  0.0145  0.7276 -1.3004
17643SOL     OW54170   4.370   2.456   7.056 -0.2611 -0.1985 -0.1063
17643SOL    HW154171   4.323   2.403   6.992 -1.1961  0.2696  0.1908
17643SOL    HW254172   4.345   2.419   7.140  0.9380 -0.7899  0.0062
17644SOL     OW54173   7.576   6.629   7.733  0.2275 -0.6855 -0.0301
17644SOL    HW154174   7.539   6.560   7.679  0.1721 -1.0859  0.5181
17644SOL    HW254175   7.626   6.583   7.801 -0.7056 -0.2288  0.9850
17645SOL     OW54176   4.963   3.743   2.380  0.8365  0.4557  0.1829
17645SOL    HW154177   4.928   3.829   2.356 -0.6259  0.0645  0.8901
17645SOL    HW254178   4.983   3.750   2.473  1.3693  0.2412  0.0875
17646SOL     OW54179   1.176   5.818   4.226 -0.7436  0.2814  0.9316
17646SOL    HW154180   1.115   5.891   4.239  0.8417  2.0379 -1.0890
17646SOL    HW254181   1.169   5.766   4.306 -0.7057  3.5645  3.1830
17647SOL     OW54182   2.608   7.705   3.651  0.1868 -0.2406 -0.3763
17647SOL    HW154183   2.514   7.722   3.655  0.5491  1.4333  1.2739
17647SOL    HW254184   2.617   7.642   3.579 -2.3238 -1.3910  0.2420
17648SOL     OW54185   8.031   6.780   4.180 -0.3657 -0.7622 -0.4038
17648SOL    HW154186   8.017   6.775   4.086  1.3161  2.5567 -0.9131
17648SOL    HW254187   8.113   6.733   4.195 -0.9710 -1.8588 -0.4795
17649SOL     OW54188   7.268   0.384   3.784 -0.8595  0.6897 -0.1654
17649SOL    HW154189   7.185   0.350   3.817 -0.5149 -1.1127 -1.0879
17649SOL    HW254190   7.245   0.465   3.738 -1.7246  1.6658  1.9408
17650SOL     OW54191   8.171   2.650   7.504 -0.3318  0.2078 -0.0429
17650SOL    HW154192   8.155   2.555   7.504  0.1214  0.1177 -1.8317
17650SOL    HW254193   8.255   2.660   7.458 -0.3288  1.4775  0.2211
17651SOL     OW54194   3.119   5.151   0.584  0.4504  0.0268 -0.1911
17651SOL    HW154195   3.034   5.111   0.600  0.2788 -0.1525 -1.5327
17651SOL    HW254196   3.147   5.183   0.670 -1.9832  2.1358 -0.1696
17652SOL     OW54197   3.257   7.973   2.760  0.3965  0.2738 -0.0089
17652SOL    HW154198   3.246   7.967   2.665 -1.0155 -1.2089  0.2253
17652SOL    HW254199   3.347   8.004   2.772  0.6280  0.3389 -1.8271
17653SOL     OW54200   5.186   3.476   5.707 -0.4267  0.1694  0.4159
17653SOL    HW154201   5.164   3.563   5.740  1.8580  0.7185  0.5576
17653SOL    HW254202   5.222   3.430   5.784  1.6309  0.2859 -0.4433
17654SOL     OW54203   4.691   6.093   6.463  0.0321 -0.2276 -0.0792
17654SOL    HW154204   4.624   6.035   6.429 -0.7510 -1.5706  3.4943
17654SOL    HW254205   4.644   6.155   6.519  1.6123 -0.7362  1.8896
17655SOL     OW54206   5.906   6.707   8.262  0.6569  0.2500  0.4147
17655SOL    HW154207   5.982   6.655   8.235 -0.4398 -1.2174  0.0783
17655SOL    HW254208   5.872   6.745   8.181  0.1741 -0.2933  0.3573
17656SOL     OW54209   4.357   0.479   7.366  0.2528  0.5748  0.4048
17656SOL    HW154210   4.293   0.500   7.433 -0.8342 -0.6657 -0.2318
17656SOL    HW254211   4.345   0.547   7.299 -0.5464  0.2136  0.1810
17657SOL     OW54212   8.086   4.216   3.739 -0.2432  0.0052  0.3393
17657SOL    HW154213   8.094   4.127   3.775  0.8698  0.4845  1.3249
17657SOL    HW254214   8.000   4.217   3.697 -0.9672 -1.0427  1.7464
17658SOL     OW54215   6.726   1.404   7.734 -0.2766 -0.1637 -0.7349
17658SOL    HW154216   6.771   1.457   7.668  1.6125 -1.3561 -0.4579
17658SOL    HW254217   6.786   1.403   7.809 -2.1578  0.7450  0.8482
17659SOL     OW54218   7.277   1.359   0.122 -0.9147 -0.2016 -0.0549
17659SOL    HW154219   7.307   1.442   0.084  0.0417  0.0659  1.2593
17659SOL    HW254220   7.337   1.343   0.195 -1.1113 -2.0375 -0.2723
17660SOL     OW54221   2.230   3.130   3.594 -0.2063 -0.3317  0.3125
17660SOL    HW154222   2.280   3.088   3.524 -1.9588  2.1000 -2.5331
17660SOL    HW254223   2.294   3.183   3.641  0.5352  0.1141 -1.1733
17661SOL     OW54224   4.792   6.274   2.141 -0.0775 -0.1956 -0.3408
17661SOL    HW154225   4.870   6.261   2.195 -0.1514  1.2655  0.1424
17661SOL    HW254226   4.734   6.327   2.195 -0.9259 -0.2839 -1.1495
17662SOL     OW54227   7.777   0.104   4.853  0.1132  0.0295  0.2003
17662SOL    HW154228   7.750   0.140   4.768 -1.7328 -1.1111  0.2634
17662SOL    HW254229   7.779   0.180   4.911 -1.2987  0.4321 -0.2458
17663SOL     OW54230   7.937   3.655   7.578 -0.4183 -0.4413 -0.0024
17663SOL    HW154231   7.851   3.643   7.617 -0.1370 -0.4117  0.6363
17663SOL    HW254232   7.924   3.721   7.510 -0.9766 -0.7345 -0.1784
17664SOL     OW54233   7.778   4.399   1.905  0.1479 -0.2387  0.2731
17664SOL    HW154234   7.778   4.430   1.814  0.0257 -2.2854 -0.4472
17664SOL    HW254235   7.715   4.328   1.905  0.0720 -0.1750  2.0104
17665SOL     OW54236   0.858   0.369   1.993 -0.5754 -0.2538  0.0728
17665SOL    HW154237   0.926   0.338   1.934 -0.6232 -0.4704  0.1338
17665SOL    HW254238   0.896   0.448   2.033 -1.0171  0.6069 -1.1622
17666SOL     OW54239   4.100   4.665   1.048 -0.5651 -0.0880  0.4526
17666SOL    HW154240   4.076   4.705   1.132 -1.0034  1.1501 -0.2631
17666SOL    HW254241   4.025   4.679   0.992 -0.5216 -1.4749  0.0182
17667SOL     OW54242   0.188   4.897   2.788 -0.3000 -0.5488  0.6103
17667SOL    HW154243   0.153   4.809   2.771  1.2302 -1.1632  0.5079
17667SOL    HW254244   0.208   4.932   2.702 -0.2418 -0.3873  0.6892
17668SOL     OW54245   2.042   5.184   1.620  0.1277 -0.0256 -0.5569
17668SOL    HW154246   2.034   5.117   1.552  1.3849 -1.5944  0.7847
17668SOL    HW254247   2.131   5.219   1.610 -0.1457  0.6763 -0.5628
17669SOL     OW54248   1.262   4.556   1.147 -0.2955 -0.0549 -0.8703
17669SOL    HW154249   1.174   4.531   1.117 -0.4229 -1.4025  0.5817
17669SOL    HW254250   1.313   4.563   1.067 -2.0636  2.1373 -1.8617
17670SOL     OW54251   6.669   3.479   6.468  0.1133 -0.6464  0.2213
17670SOL    HW154252   6.734   3.547   6.487 -0.1729 -0.5572  0.9091
17670SOL    HW254253   6.614   3.476   6.546  1.1083 -2.7890  0.8724
17671SOL     OW54254   3.402   1.715   2.808  0.3180  0.7007  0.4113
17671SOL    HW154255   3.497   1.730   2.816  0.4746 -0.4325  0.8019
17671SOL    HW254256   3.366   1.802   2.791  1.5185  1.0322 -0.6012
17672SOL     OW54257   6.318   0.310   0.158  0.1032 -0.4582 -0.5229
17672SOL    HW154258   6.266   0.231   0.145 -1.5073  0.6725 -1.2039
17672SOL    HW254259   6.369   0.320   0.078  1.1084 -1.3700 -0.0048
17673SOL     OW54260   2.188   5.666   5.109  0.0254 -0.1927 -0.2499
17673SOL    HW154261   2.125   5.631   5.045 -1.2808  0.3583  0.7122
17673SOL    HW254262   2.148   5.647   5.194 -0.2032  2.6696  0.3268
17674SOL     OW54263   6.419   2.698   2.450  0.1196  0.0728 -0.0756
17674SOL    HW154264   6.401   2.625   2.392  0.4019  0.6189 -0.8548
17674SOL    HW254265   6.447   2.769   2.392 -0.9652  1.0636  0.5908
17675SOL     OW54266   3.730   5.706   3.392  0.4047 -0.0031  0.0481
17675SOL    HW154267   3.720   5.745   3.479  0.8309 -1.0053  0.5493
17675SOL    HW254268   3.759   5.616   3.409  1.1529  0.0053 -1.1480
17676SOL     OW54269   5.348   1.470   0.528 -0.2922  0.1037 -0.1134
17676SOL    HW154270   5.328   1.446   0.618 -1.2969  0.1182 -0.3261
17676SOL    HW254271   5.262   1.479   0.486  0.1421  1.1840 -0.7864
17677SOL     OW54272   5.686   1.983   0.447  0.1947 -0.3909  0.7596
17677SOL    HW154273   5.737   1.967   0.526  0.5301  2.8107  1.2198
17677SOL    HW254274   5.741   2.038   0.392 -0.9930 -0.6036 -0.6980
17678SOL     OW54275   0.103   3.068   5.142  0.8058  0.3039 -0.1978
17678SOL    HW154276   0.151   3.104   5.068 -0.4611 -1.1636 -1.7844
17678SOL    HW254277   0.154   2.992   5.170  0.0283 -0.6055 -1.1828
17679SOL     OW54278   6.403   1.948   7.089 -0.0087  0.0848  0.0371
17679SOL    HW154279   6.336   1.927   7.024 -0.1635  0.6664  0.0146
17679SOL    HW254280   6.483   1.961   7.038  0.5117 -2.2171  0.1840
17680SOL     OW54281   1.957   3.777   6.678  0.0780 -0.2831  0.2612
17680SOL    HW154282   1.954   3.845   6.746  1.1628 -0.7783  0.8060
17680SOL    HW254283   2.010   3.707   6.716 -0.9054 -1.3828 -0.3579
17681SOL     OW54284   3.252   0.794   2.619 -0.0021  0.1551 -0.4639
17681SOL    HW154285   3.232   0.721   2.677 -0.0751  0.1701 -0.4700
17681SOL    HW254286   3.306   0.853   2.672  0.9424 -0.4078 -0.7915
17682SOL     OW54287   4.730   2.247   5.747  0.0069  0.2990  0.0762
17682SOL    HW154288   4.653   2.263   5.802 -0.7217 -0.7603 -0.6276
17682SOL    HW254289   4.803   2.283   5.798 -0.8878  0.9287  0.9454
17683SOL     OW54290   2.014   3.927   6.920 -0.1175  0.1646 -0.0381
17683SOL    HW154291   2.006   3.953   7.011 -1.9240  0.2049 -0.1888
17683SOL    HW254292   1.988   4.004   6.870 -1.2993 -0.5553 -0.5478
17684SOL     OW54293   0.833   1.232   1.110 -0.0940 -0.0660  0.2211
17684SOL    HW154294   0.766   1.209   1.174 -0.6368 -0.1121 -0.3651
17684SOL    HW254295   0.796   1.208   1.025 -0.6890  2.8513 -0.4196
17685SOL     OW54296   2.461   2.731   0.815  0.1626 -0.2296  0.0992
17685SOL    HW154297   2.453   2.689   0.729  0.4590  2.9643 -1.5303
17685SOL    HW254298   2.533   2.684   0.858  0.6891 -1.1669 -1.7800
17686SOL     OW54299   7.326   3.816   1.146  0.1471 -0.4355  0.4082
17686SOL    HW154300   7.400   3.756   1.155 -0.2692 -1.7404 -3.7979
17686SOL    HW254301   7.249   3.758   1.141 -0.7389  0.6975  0.7395
17687SOL     OW54302   6.785   3.678   1.231  0.0371  0.3720 -0.6677
17687SOL    HW154303   6.725   3.617   1.273  2.3502 -1.1322  0.5295
17687SOL    HW254304   6.732   3.756   1.215 -1.1284  0.7722  4.4332
17688SOL     OW54305   5.197   3.045   0.334  0.3448  0.3996  0.7070
17688SOL    HW154306   5.186   2.950   0.327  2.3187  0.1025  1.2900
17688SOL    HW254307   5.291   3.059   0.324  0.1179  2.2724  0.9937
17689SOL     OW54308   5.128   7.718   7.078  0.8373 -0.6771  0.1690
17689SOL    HW154309   5.164   7.631   7.061 -0.0593 -0.8725 -0.7965
17689SOL    HW254310   5.200   7.767   7.118  1.3150 -1.8880  0.8064
17690SOL     OW54311   3.837   2.933   3.406  0.1327  0.1570  0.7233
17690SOL    HW154312   3.904   2.864   3.406  2.0704  1.9807 -1.3844
17690SOL    HW254313   3.805   2.936   3.316  0.4398  2.3516  0.6678
17691SOL     OW54314   0.108   3.396   6.220 -0.5936  0.1647 -0.1463
17691SOL    HW154315   0.069   3.385   6.134 -1.2178  0.7708  0.0557
17691SOL    HW254316   0.036   3.383   6.282 -0.0601 -0.7108  0.3023
17692SOL     OW54317   1.940   1.810   0.537  0.0786  0.1747  0.1097
17692SOL    HW154318   1.900   1.770   0.615  0.1721  0.5920  0.3718
17692SOL    HW254319   1.867   1.828   0.479  0.1512 -1.5135 -0.5315
17693SOL     OW54320   3.678   5.038   3.044 -0.3826 -0.2280 -0.7314
17693SOL    HW154321   3.674   5.048   3.139 -0.7590 -1.4684 -0.6132
17693SOL    HW254322   3.587   5.024   3.018 -0.2435 -0.1862 -1.2482
17694SOL     OW54323   4.340   1.099   1.665  0.4000 -0.3612  0.8035
17694SOL    HW154324   4.386   1.125   1.585 -0.4602 -0.5988  0.2244
17694SOL    HW254325   4.309   1.010   1.647 -2.2683  0.6117  0.2846
17695SOL     OW54326   3.119   4.429   6.979 -0.5696 -0.4464  0.2103
17695SOL    HW154327   3.081   4.344   7.002 -1.7384 -0.3059 -1.0760
17695SOL    HW254328   3.187   4.444   7.044 -1.3203 -1.7083  1.3142
17696SOL     OW54329   2.975   5.527   0.638  0.0433 -0.5676 -0.1163
17696SOL    HW154330   3.034   5.547   0.711  0.0504 -0.7638 -0.0668
17696SOL    HW254331   2.910   5.467   0.676 -0.5450  0.1276 -0.0215
17697SOL     OW54332   7.847   4.554   7.846 -0.3777  0.5825 -0.3350
17697SOL    HW154333   7.892   4.638   7.850 -0.1505  0.4776 -0.6963
17697SOL    HW254334   7.771   4.569   7.789 -0.3354  0.5450 -0.4014
17698SOL     OW54335   6.300   0.710   5.463 -0.0909 -1.0553  0.5172
17698SOL    HW154336   6.213   0.692   5.497  0.0218 -0.9706  0.8504
17698SOL    HW254337   6.322   0.797   5.497  0.1276 -1.0789  0.4395
17699SOL     OW54338   3.101   8.080   2.068 -0.4211  0.5500  0.1269
17699SOL    HW154339   3.020   8.048   2.028 -0.3038  1.1902 -0.6325
17699SOL    HW254340   3.167   8.073   1.999 -0.0851  1.1026  0.3882
17700SOL     OW54341   4.204   2.335   3.073 -0.2778  0.4357  0.6745
17700SOL    HW154342   4.271   2.296   3.128  0.0795 -1.2113 -0.9017
17700SOL    HW254343   4.248   2.354   2.991 -1.2126  1.3497  0.3721
17701SOL     OW54344   2.354   7.589   6.433 -0.1421 -0.1284  0.0436
17701SOL    HW154345   2.266   7.559   6.410  0.3475 -1.4479 -0.1770
17701SOL    HW254346   2.410   7.554   6.363  0.6471  0.1409  0.5336
17702SOL     OW54347   5.588   6.043   3.306  0.0479 -0.7761  0.4070
17702SOL    HW154348   5.584   6.045   3.210  0.9915 -0.6673  0.3684
17702SOL    HW254349   5.606   6.134   3.331 -0.7934 -0.6938  0.7145
17703SOL     OW54350   5.858   4.620   8.067  0.3410  0.7884 -0.0950
17703SOL    HW154351   5.911   4.586   8.138 -1.0489  2.4367  1.7813
17703SOL    HW254352   5.882   4.713   8.061  0.3374  0.7002 -1.6738
17704SOL     OW54353   7.707   1.730   1.157  0.1019 -0.3086  0.0672
17704SOL    HW154354   7.675   1.707   1.244 -1.5129  1.0507 -0.1401
17704SOL    HW254355   7.628   1.739   1.104  1.0684 -1.5311 -1.6734
17705SOL     OW54356   0.495   5.068   5.547  0.2824  0.4062  0.0402
17705SOL    HW154357   0.562   5.000   5.541  0.4109  0.6427 -1.2823
17705SOL    HW254358   0.524   5.125   5.618  0.1229 -0.9654  1.2334
17706SOL     OW54359   2.471   1.448   5.036  0.0848 -0.1489 -0.2491
17706SOL    HW154360   2.456   1.499   4.956 -0.5014  0.3089  0.1452
17706SOL    HW254361   2.390   1.398   5.048 -0.3695  0.8048  0.7918
17707SOL     OW54362   7.546   6.736   8.105 -0.0432 -0.2437 -0.2495
17707SOL    HW154363   7.548   6.658   8.161  0.0492  0.4901  0.7750
17707SOL    HW254364   7.474   6.789   8.140 -0.8576 -0.3982 -1.6707
17708SOL     OW54365   0.429   4.681   1.290 -0.0379 -0.0270 -0.0307
17708SOL    HW154366   0.381   4.759   1.317  1.9553  0.6481  1.7014
17708SOL    HW254367   0.413   4.618   1.361  0.7880 -0.1527  0.0435
17709SOL     OW54368   6.549   4.090   1.825 -0.7989 -0.0215  0.2844
17709SOL    HW154369   6.550   4.006   1.871  0.6887  0.3102  0.8809
17709SOL    HW254370   6.631   4.093   1.777 -1.1687  0.7818 -0.3076
17710SOL     OW54371   0.910   2.935   6.117  0.5963  0.0316  0.4824
17710SOL    HW154372   0.953   2.852   6.139  1.7894 -0.3247 -2.8130
17710SOL    HW254373   0.821   2.910   6.092  1.0636 -0.3437 -0.8621
17711SOL     OW54374   4.748   6.983   4.453  0.0501  0.1620  0.1787
17711SOL    HW154375   4.759   6.938   4.369  1.0797  0.8000 -0.0372
17711SOL    HW254376   4.784   6.922   4.518  1.8451  0.8376 -0.1612
17712SOL     OW54377   2.277   3.112   3.093 -0.4716  0.3104 -0.6417
17712SOL    HW154378   2.276   3.038   3.153  1.0754  0.6263 -0.2106
17712SOL    HW254379   2.263   3.073   3.006  1.9824 -0.6863 -0.6168
17713SOL     OW54380   1.870   7.914   2.293  0.0594 -0.3049 -0.3716
17713SOL    HW154381   1.906   7.828   2.273  2.3516  0.6674 -0.5040
17713SOL    HW254382   1.775   7.900   2.294  0.2742 -2.3446 -2.7249
17714SOL     OW54383   6.012   2.687   1.938  0.5243  0.3436  0.3308
17714SOL    HW154384   5.989   2.603   1.978  2.9937 -0.9013 -0.7309
17714SOL    HW254385   5.971   2.684   1.852 -0.2275  0.6762  0.6714
17715SOL     OW54386   4.931   4.652   5.523 -0.9520  0.2120 -0.4298
17715SOL    HW154387   4.967   4.681   5.439 -0.0031 -0.0401 -0.1211
17715SOL    HW254388   4.983   4.698   5.589 -0.4969 -0.9412  0.0348
17716SOL     OW54389   7.317   6.872   1.732 -0.0665  0.0378 -0.2368
17716SOL    HW154390   7.393   6.924   1.709 -0.1474  1.1444  1.9185
17716SOL    HW254391   7.321   6.797   1.672  1.1291  1.4805 -2.0424
17717SOL     OW54392   2.526   2.567   1.796  0.1017  0.0600 -0.3835
17717SOL    HW154393   2.491   2.555   1.708 -0.5076 -0.5050 -0.0669
17717SOL    HW254394   2.451   2.558   1.854  0.7255 -0.9108  0.2865
17718SOL     OW54395   3.057   6.290   4.360  0.1185  0.2312  0.1998
17718SOL    HW154396   3.145   6.252   4.353  0.1993  0.2935  0.8330
17718SOL    HW254397   2.999   6.214   4.360  0.3957 -0.0322  3.3625
17719SOL     OW54398   0.384   5.145   7.665 -0.3438  0.4102  0.2500
17719SOL    HW154399   0.421   5.058   7.680 -0.3144  0.3739 -0.0285
17719SOL    HW254400   0.447   5.187   7.606 -0.9222  0.2278 -0.5026
17720SOL     OW54401   1.497   8.126   7.098 -0.4918 -0.5950  0.5263
17720SOL    HW154402   1.569   8.062   7.105 -2.0152 -2.4773 -0.4175
17720SOL    HW254403   1.495   8.150   7.005 -0.8316 -0.2601  0.6197
17721SOL     OW54404   7.118   0.473   2.702  0.2683  0.3670  0.2603
17721SOL    HW154405   7.199   0.458   2.654 -0.7115  0.0098 -1.2991
17721SOL    HW254406   7.078   0.387   2.711 -0.5613  0.7106 -0.0959
17722SOL     OW54407   6.500   3.444   4.617 -0.0275  0.2358 -0.2484
17722SOL    HW154408   6.562   3.503   4.658  0.7130 -1.7417  1.5845
17722SOL    HW254409   6.551   3.397   4.551 -0.4056  1.0442 -1.1148
17723SOL     OW54410   0.055   3.583   6.587  0.4960 -0.0245 -0.1980
17723SOL    HW154411  -0.031   3.623   6.598  0.7955  1.2351 -2.1360
17723SOL    HW254412   0.116   3.657   6.588  1.2409 -0.5874 -1.9228
17724SOL     OW54413   3.418   5.502   0.280  0.0786 -0.2454 -0.3858
17724SOL    HW154414   3.334   5.514   0.236  0.7002 -0.1779 -1.5542
17724SOL    HW254415   3.408   5.419   0.328 -1.0072  0.2850  0.3230
17725SOL     OW54416   6.815   1.063   0.159  0.3506  0.4979  0.5433
17725SOL    HW154417   6.865   0.986   0.185  1.0480  0.9489  0.5608
17725SOL    HW254418   6.732   1.029   0.126  1.2231 -0.3516 -0.7999
17726SOL     OW54419   1.646   8.307   3.190 -0.0572  0.0374 -0.1624
17726SOL    HW154420   1.551   8.311   3.204 -0.0346  1.8959 -0.3801
17726SOL    HW254421   1.655   8.276   3.100 -0.4144 -1.5772  0.3441
17727SOL     OW54422   5.582   4.344   3.640  0.0610 -0.3227 -0.2778
17727SOL    HW154423   5.547   4.410   3.700  0.2961  1.3072 -1.8696
17727SOL    HW254424   5.529   4.353   3.561  0.8159 -1.2806 -0.9072
17728SOL     OW54425   4.598   7.802   2.312 -0.8862  0.5646  0.0927
17728SOL    HW154426   4.503   7.805   2.321 -0.9927  0.1292 -0.7963
17728SOL    HW254427   4.618   7.873   2.250 -0.6737  0.3654 -0.0650
17729SOL     OW54428   3.558   1.091   7.815  0.2532  0.1958  0.0840
17729SOL    HW154429   3.583   1.048   7.733  1.1697  1.5790 -0.3762
17729SOL    HW254430   3.492   1.155   7.790 -0.4658 -0.3125  0.6432
17730SOL     OW54431   7.910   2.677   5.171 -0.4459 -0.3696  0.1013
17730SOL    HW154432   7.927   2.584   5.158 -1.3988 -0.4197 -0.8474
17730SOL    HW254433   7.896   2.712   5.083 -0.9840  0.4961  0.5174
17731SOL     OW54434   2.244   2.500   5.073  0.1799  0.6414 -0.2445
17731SOL    HW154435   2.237   2.442   4.997 -0.0760  0.7230 -0.2847
17731SOL    HW254436   2.154   2.509   5.105  0.4695 -0.6217  0.9969
17732SOL     OW54437   1.178   6.037   0.504  0.1080  0.0043 -0.4168
17732SOL    HW154438   1.161   6.052   0.410 -0.7939 -1.1507 -0.4608
17732SOL    HW254439   1.204   6.122   0.538  1.8514  0.1303 -2.0148
17733SOL     OW54440   5.357   1.431   0.251  0.3163 -0.0887  0.5066
17733SOL    HW154441   5.382   1.453   0.340  0.3144 -2.6211  1.1790
17733SOL    HW254442   5.415   1.359   0.227 -0.2774 -0.0140 -1.2091
17734SOL     OW54443   2.895   0.965   6.483 -0.2036 -0.3531 -0.5547
17734SOL    HW154444   2.973   1.018   6.501 -0.0519 -0.7891  0.1115
17734SOL    HW254445   2.930   0.877   6.466 -0.5167 -0.4534 -0.6841
17735SOL     OW54446   0.524   8.120   4.073 -0.1563  0.3980 -0.7706
17735SOL    HW154447   0.587   8.049   4.065 -1.0036 -0.3115 -1.2559
17735SOL    HW254448   0.560   8.176   4.142  0.3224 -0.7059 -0.1010
17736SOL     OW54449   5.724   7.635   5.545 -0.1849  0.6194 -0.1663
17736SOL    HW154450   5.749   7.721   5.578 -0.0700  0.2784  0.6350
17736SOL    HW254451   5.779   7.574   5.593  0.1507  0.1306 -1.1538
17737SOL     OW54452   6.383   3.584   3.138 -0.8610 -1.0571 -0.3610
17737SOL    HW154453   6.308   3.642   3.155 -0.4552 -0.0877 -1.8301
17737SOL    HW254454   6.416   3.562   3.225 -2.6234 -1.2012  0.3033
17738SOL     OW54455   1.636   3.846   2.839 -0.3040  0.1969  0.2119
17738SOL    HW154456   1.681   3.929   2.857 -0.7610  0.9892 -2.2075
17738SOL    HW254457   1.703   3.779   2.850  0.3078  0.9546  1.2069
17739SOL     OW54458   3.596   1.374   7.269  1.0968 -0.3599  0.2641
17739SOL    HW154459   3.597   1.468   7.254 -1.5056  0.0409  2.3257
17739SOL    HW254460   3.551   1.337   7.194  0.6952  0.1970  0.2338
17740SOL     OW54461   6.249   5.262   2.039 -0.1540  0.0978 -0.2939
17740SOL    HW154462   6.165   5.220   2.018 -0.7072  0.6617  0.7469
17740SOL    HW254463   6.308   5.188   2.057 -0.9205 -0.2607  0.7718
17741SOL     OW54464   4.811   2.662   3.951 -0.1770  0.1759  0.6304
17741SOL    HW154465   4.720   2.681   3.929 -0.7991 -1.9320  1.2269
17741SOL    HW254466   4.834   2.727   4.017 -0.4828  2.2042 -1.2088
17742SOL     OW54467   3.728   0.530   2.197  0.3190  0.0434 -0.1915
17742SOL    HW154468   3.688   0.444   2.213  0.4483 -0.0895 -0.5603
17742SOL    HW254469   3.682   0.590   2.255  1.4444 -0.5826  1.3617
17743SOL     OW54470   6.716   2.121   3.087 -0.2685 -0.6502 -0.0893
17743SOL    HW154471   6.694   2.032   3.111 -1.3959 -0.2580  0.3419
17743SOL    HW254472   6.769   2.112   3.007  2.3344 -1.8780  1.6982
17744SOL     OW54473   0.472   1.398   2.108  0.0137 -0.5794 -0.0676
17744SOL    HW154474   0.457   1.394   2.202  2.0644 -1.2370  0.2536
17744SOL    HW254475   0.511   1.485   2.094 -3.1395  0.7904 -0.7774
17745SOL     OW54476   2.089   5.247   7.049  0.2832  0.5426 -0.8085
17745SOL    HW154477   2.124   5.175   6.997  3.3310  1.1947  0.2272
17745SOL    HW254478   2.111   5.326   6.999 -2.1917  0.8309 -1.4772
17746SOL     OW54479   5.336   2.728   6.656  0.9147 -0.1233  0.5304
17746SOL    HW154480   5.282   2.773   6.721  0.7795  1.8301 -0.8926
17746SOL    HW254481   5.276   2.710   6.584  1.3238 -1.2660  0.4628
17747SOL     OW54482   2.261   3.394   6.075 -0.2358 -0.1569 -0.4170
17747SOL    HW154483   2.351   3.411   6.103  0.2940 -0.7795 -1.7237
17747SOL    HW254484   2.209   3.455   6.127  0.8948 -0.0543  0.6284
17748SOL     OW54485   4.936   6.970   7.190 -0.6155 -0.1019  0.4268
17748SOL    HW154486   4.949   6.887   7.144 -1.6095  0.1763 -0.3788
17748SOL    HW254487   4.939   7.036   7.122 -0.4714  0.4649  0.9818
17749SOL     OW54488   5.744   3.839   0.474 -0.2574  0.1869  0.2476
17749SOL    HW154489   5.728   3.867   0.565 -1.7663  0.1144  0.0215
17749SOL    HW254490   5.794   3.758   0.482 -0.9047 -0.1442  1.0394
17750SOL     OW54491   4.175   0.302   2.312 -0.3538  0.3364 -0.2897
17750SOL    HW154492   4.205   0.243   2.382 -0.1439  2.3436  1.3539
17750SOL    HW254493   4.255   0.341   2.277 -0.6419  1.3189  0.1417
17751SOL     OW54494   2.699   6.605   2.529 -0.6003  0.2222 -0.0689
17751SOL    HW154495   2.701   6.511   2.510  0.7660 -0.0932  1.4774
17751SOL    HW254496   2.606   6.625   2.541 -0.7664 -1.3639  1.4925
17752SOL     OW54497   2.058   3.832   1.122 -0.3225  0.3250 -0.1294
17752SOL    HW154498   1.989   3.837   1.056 -0.2704 -0.9135 -0.2837
17752SOL    HW254499   2.033   3.898   1.187 -0.0215  2.0434 -1.6927
17753SOL     OW54500   0.668   1.665   4.516 -0.1036 -0.4239  0.2483
17753SOL    HW154501   0.639   1.655   4.425  0.0328  1.0090  0.0400
17753SOL    HW254502   0.761   1.642   4.515 -0.6629 -2.8081  0.4928
17754SOL     OW54503   5.724   1.434   1.577 -0.0064  0.1981 -0.1191
17754SOL    HW154504   5.665   1.451   1.650 -0.1163  0.0525 -0.1712
17754SOL    HW254505   5.665   1.427   1.501  0.1727  1.0492 -0.3346
17755SOL     OW54506   3.058   3.905   4.112  0.1192 -0.0855 -0.5547
17755SOL    HW154507   2.986   3.846   4.088  1.1430 -1.1145 -1.1382
17755SOL    HW254508   3.020   3.964   4.177 -1.5726  0.1181 -1.7015
17756SOL     OW54509   4.215   7.424   0.764 -0.5241  0.3083  0.7500
17756SOL    HW154510   4.281   7.491   0.780  0.4979 -0.3024 -0.7734
17756SOL    HW254511   4.239   7.353   0.824  2.1820 -1.2133 -1.9384
17757SOL     OW54512   2.408   7.064   3.533 -0.4672 -0.6568  0.5565
17757SOL    HW154513   2.365   7.099   3.611  0.6470  2.2660 -0.0785
17757SOL    HW254514   2.494   7.035   3.564  0.2026  1.0440  0.3514
17758SOL     OW54515   6.848   1.259   8.296 -0.2208  0.0690 -0.6015
17758SOL    HW154516   6.844   1.193   8.365  1.9951 -0.2340 -0.7366
17758SOL    HW254517   6.807   1.217   8.221  0.0341 -0.6792 -0.3238
17759SOL     OW54518   4.718   4.209   7.979  0.0336  0.5853 -0.2472
17759SOL    HW154519   4.667   4.289   7.976 -0.1297  0.4568 -0.9660
17759SOL    HW254520   4.667   4.145   7.929  0.2709  0.0946  0.1235
17760SOL     OW54521   1.517   8.067   4.569  0.1711  0.3136 -0.4232
17760SOL    HW154522   1.455   8.045   4.638  2.3450  0.5792  1.6992
17760SOL    HW254523   1.533   8.161   4.580  1.9424 -0.0057 -0.0579
17761SOL     OW54524   1.985   2.960   0.382 -0.5318  0.0650 -0.4353
17761SOL    HW154525   2.029   3.045   0.383 -1.4856  0.5902 -2.1391
17761SOL    HW254526   1.946   2.953   0.470  0.7767  0.7182  0.2110
17762SOL     OW54527   7.023   1.250   0.349 -0.1274 -0.2607 -0.2432
17762SOL    HW154528   6.980   1.249   0.434 -0.6748 -0.0872 -0.5147
17762SOL    HW254529   6.976   1.184   0.297  0.7448 -0.9704 -0.1501
17763SOL     OW54530   4.328   0.584   1.796 -0.5594  0.0240 -0.2312
17763SOL    HW154531   4.334   0.676   1.772 -0.8087  0.3173  0.8042
17763SOL    HW254532   4.390   0.540   1.738  0.5438  1.0102  0.1748
17764SOL     OW54533   8.271   3.357   6.466 -0.4569  0.7953  0.1743
17764SOL    HW154534   8.317   3.428   6.511  1.3341 -0.1057 -0.1686
17764SOL    HW254535   8.220   3.314   6.534  0.8804  0.5052  1.0085
17765SOL     OW54536   1.923   6.233   0.266 -0.3152  0.1861  0.1057
17765SOL    HW154537   1.886   6.321   0.275  0.0593  0.1708  1.8702
17765SOL    HW254538   2.017   6.246   0.277 -0.3144 -0.5125  0.9117
17766SOL     OW54539   2.624   0.690   3.136 -0.3741 -0.3529  0.1242
17766SOL    HW154540   2.537   0.703   3.174 -0.7423 -1.5451 -0.2898
17766SOL    HW254541   2.684   0.727   3.201 -1.1959  0.7380  0.2862
17767SOL     OW54542   3.964   7.992   2.208 -0.7437 -0.5778 -0.5523
17767SOL    HW154543   3.940   7.983   2.115 -1.5421 -1.6161 -0.2563
17767SOL    HW254544   3.925   7.915   2.250 -1.8559  0.7763  0.9333
17768SOL     OW54545   4.437   2.185   1.164  0.3768  0.4830  0.5879
17768SOL    HW154546   4.429   2.280   1.167 -0.4040  0.4359  0.1397
17768SOL    HW254547   4.491   2.167   1.088 -0.2933  0.5234  0.1006
17769SOL     OW54548   2.155   3.845   0.673 -0.2875  0.0897  0.1658
17769SOL    HW154549   2.064   3.839   0.704  0.0951  0.1102  1.3409
17769SOL    HW254550   2.150   3.828   0.579 -1.5269  0.2422  0.1922
17770SOL     OW54551   7.788   6.136   6.971  0.3848  0.1735 -0.5879
17770SOL    HW154552   7.875   6.172   6.989  0.4393  0.1564 -0.8130
17770SOL    HW254553   7.766   6.170   6.884  1.9161 -3.1639 -2.3893
17771SOL     OW54554   0.333   6.997   0.793 -0.6448  0.0076 -0.5112
17771SOL    HW154555   0.280   7.056   0.847 -0.6749  0.5877 -1.1591
17771SOL    HW254556   0.423   7.029   0.804 -0.6190 -0.0391 -0.5864
17772SOL     OW54557   6.183   3.367   8.009 -0.5067  0.8788 -0.0457
17772SOL    HW154558   6.124   3.298   7.978 -0.3550  0.0594  1.4482
17772SOL    HW254559   6.265   3.353   7.960 -0.9408  0.8982 -0.7879
17773SOL     OW54560   2.289   1.222   7.498 -0.3776 -0.4269 -0.0988
17773SOL    HW154561   2.335   1.254   7.421 -0.7340  0.9412  0.2402
17773SOL    HW254562   2.197   1.248   7.484 -0.3767  0.2033  0.9512
17774SOL     OW54563   0.478   6.877   3.018  0.1501  0.4414  0.1372
17774SOL    HW154564   0.465   6.970   3.039 -1.0300  0.6107 -1.3014
17774SOL    HW254565   0.392   6.838   3.030  0.5096 -0.3522  0.1099
17775SOL     OW54566   2.423   6.349   8.223  0.1897  0.6480 -0.3690
17775SOL    HW154567   2.361   6.407   8.267 -0.2285  0.9748 -1.3794
17775SOL    HW254568   2.462   6.404   8.155 -1.2290 -0.6237 -2.2651
17776SOL     OW54569   3.190   2.264   3.326 -0.5664 -0.3426 -0.1076
17776SOL    HW154570   3.165   2.200   3.260 -1.0713  0.9811 -1.2344
17776SOL    HW254571   3.135   2.340   3.308  1.7806  1.3537 -0.4093
17777SOL     OW54572   3.880   1.681   3.912 -0.5086  0.2413 -0.4695
17777SOL    HW154573   3.791   1.683   3.878  0.1696 -0.4146 -2.3646
17777SOL    HW254574   3.916   1.767   3.891  0.2804 -0.5532 -2.5300
17778SOL     OW54575   1.876   2.624   2.394 -0.2151  0.3356 -0.5800
17778SOL    HW154576   1.796   2.674   2.376 -0.6488 -0.4132 -0.7632
17778SOL    HW254577   1.873   2.552   2.331  0.4966  0.1818 -0.4382
17779SOL     OW54578   6.093   2.372   6.110  0.2152  0.0430 -0.1891
17779SOL    HW154579   6.068   2.340   6.023  0.6711 -1.3936  0.1975
17779SOL    HW254580   6.016   2.355   6.164 -0.0522  0.8958 -0.2936
17780SOL     OW54581   3.182   3.796   7.898 -0.8084 -0.2664  0.3345
17780SOL    HW154582   3.141   3.735   7.837  1.2616 -0.1925 -1.1910
17780SOL    HW254583   3.273   3.767   7.904 -0.1113  1.8851  0.5999
17781SOL     OW54584   3.648   1.035   7.566 -0.3926  0.5303  0.7350
17781SOL    HW154585   3.727   0.984   7.550  0.7195  2.1091  1.0325
17781SOL    HW254586   3.600   1.032   7.483  2.1757  3.2347 -0.9603
17782SOL     OW54587   4.505   8.192   1.124 -0.6182 -0.1060  0.5269
17782SOL    HW154588   4.451   8.161   1.051 -1.4017 -0.5697  1.3022
17782SOL    HW254589   4.514   8.115   1.181 -0.1728  0.3127  1.0206
17783SOL     OW54590   7.148   2.065   3.796 -0.8769 -0.0797  0.0226
17783SOL    HW154591   7.221   2.100   3.847 -1.7639  1.5865  0.1634
17783SOL    HW254592   7.161   1.970   3.799  1.3301  0.1952 -0.0319
17784SOL     OW54593   5.069   7.233   4.015 -0.1821  0.0651 -0.0132
17784SOL    HW154594   5.122   7.157   4.043 -2.7311 -0.8007  2.7881
17784SOL    HW254595   5.099   7.304   4.072 -2.5352 -0.6638  2.2527
17785SOL     OW54596   1.433   3.700   2.628  0.1004 -0.0550 -0.2656
17785SOL    HW154597   1.382   3.730   2.552  3.2457  0.0758 -2.4274
17785SOL    HW254598   1.466   3.781   2.667  0.8179 -0.2638 -0.4478
17786SOL     OW54599   2.880   6.506   5.769  0.4199 -0.0581 -0.1051
17786SOL    HW154600   2.901   6.480   5.679 -0.2478 -0.2440 -0.2098
17786SOL    HW254601   2.942   6.576   5.789  1.0242 -0.4838 -0.4705
17787SOL     OW54602   7.017   2.156   0.669  0.1996  0.2221  0.1024
17787SOL    HW154603   7.001   2.074   0.623  0.0233  0.2029  0.1994
17787SOL    HW254604   6.935   2.205   0.661  0.3808  0.4830 -0.1542
17788SOL     OW54605   1.678   1.139   2.858 -0.4370 -0.0679 -0.5474
17788SOL    HW154606   1.706   1.095   2.938 -0.8704 -0.7492 -0.7681
17788SOL    HW254607   1.630   1.216   2.889 -0.8241 -0.4664 -0.1542
17789SOL     OW54608   0.958   7.147   2.950 -0.3850 -0.0577  0.4877
17789SOL    HW154609   0.954   7.080   3.019  1.5903  0.7277  1.4171
17789SOL    HW254610   1.047   7.140   2.916 -0.1303  2.0978  0.6299
17790SOL     OW54611   4.058   1.347   4.368 -0.0983 -0.0541 -0.3536
17790SOL    HW154612   4.014   1.292   4.433 -1.1998  0.4865 -0.6397
17790SOL    HW254613   4.009   1.332   4.287  0.3401  0.4403 -0.7090
17791SOL     OW54614   7.936   3.085   2.546 -0.5753  0.4865  0.6788
17791SOL    HW154615   8.021   3.058   2.579  0.6229 -0.1339 -2.6950
17791SOL    HW254616   7.873   3.033   2.597  1.1382 -0.5348  1.8102
17792SOL     OW54617   3.079   3.735   7.122 -0.5047  0.0166 -0.5960
17792SOL    HW154618   3.136   3.805   7.154  1.7902 -1.9664 -0.2416
17792SOL    HW254619   3.006   3.733   7.184 -0.0238  1.3166  0.0350
17793SOL     OW54620   0.636   7.887   1.783  0.2491  0.2479  0.5298
17793SOL    HW154621   0.579   7.834   1.839 -0.4421 -0.5310 -0.8693
17793SOL    HW254622   0.605   7.869   1.694  2.5762 -0.0177 -0.2454
17794SOL     OW54623   0.278   0.005   1.150  0.6827 -0.3515 -0.2996
17794SOL    HW154624   0.366   0.041   1.141  0.9246 -0.1652  2.3496
17794SOL    HW254625   0.276  -0.030   1.240 -1.7764 -0.8011 -0.5062
17795SOL     OW54626   6.599   0.434   3.179 -0.2187  0.2391 -0.0361
17795SOL    HW154627   6.511   0.401   3.159 -0.1540 -0.2425  0.4616
17795SOL    HW254628   6.583   0.512   3.232 -0.3715  1.0021 -1.1825
17796SOL     OW54629   1.685   4.600   6.425  0.3857 -0.5904 -0.1288
17796SOL    HW154630   1.657   4.540   6.357 -0.8493  1.1620 -1.2038
17796SOL    HW254631   1.772   4.569   6.450 -0.5294 -3.2464 -0.1171
17797SOL     OW54632   3.112   5.492   4.980  1.0097 -0.1837  0.4971
17797SOL    HW154633   3.108   5.438   5.060  3.2060 -1.3717 -0.1637
17797SOL    HW254634   3.077   5.434   4.912  1.5597 -0.0715  0.1266
17798SOL     OW54635   3.476   2.600   7.754 -0.1314  0.1242  0.3125
17798SOL    HW154636   3.467   2.597   7.658  0.9811 -0.2446  0.2159
17798SOL    HW254637   3.541   2.668   7.770  1.7947 -1.7262  0.6363
17799SOL     OW54638   6.478   6.405   5.169 -0.1867  0.5491  0.3208
17799SOL    HW154639   6.523   6.430   5.089  1.0728  0.5891  1.0268
17799SOL    HW254640   6.388   6.389   5.142  0.6843 -1.5239 -1.4887
17800SOL     OW54641   5.393   2.508   2.880  1.2412 -0.6544 -0.1216
17800SOL    HW154642   5.425   2.509   2.790  0.5555 -0.7803 -0.3641
17800SOL    HW254643   5.303   2.477   2.874  0.2885  1.8743  0.3028
17801SOL     OW54644   7.774   0.243   6.560  0.2770 -0.3596 -0.3694
17801SOL    HW154645   7.800   0.166   6.610  0.2890 -1.9457 -2.7625
17801SOL    HW254646   7.691   0.270   6.600  1.8870  0.4383  2.6215
17802SOL     OW54647   7.696   6.795   4.654  0.1167  0.0251 -0.2689
17802SOL    HW154648   7.742   6.712   4.667  0.3126  0.1402 -0.2306
17802SOL    HW254649   7.662   6.790   4.565 -0.7864 -0.5472  0.0880
17803SOL     OW54650   7.163   0.487   1.264 -0.5903  0.4080 -0.6708
17803SOL    HW154651   7.154   0.448   1.177  0.9978 -3.2577  0.7374
17803SOL    HW254652   7.105   0.437   1.320 -0.0883  1.4235  0.8076
17804SOL     OW54653   1.421   1.114   6.557  0.1992  0.1264  0.0381
17804SOL    HW154654   1.346   1.124   6.499 -0.3787  2.6759  1.1273
17804SOL    HW254655   1.389   1.063   6.631  0.0296 -0.2827 -0.3172
17805SOL     OW54656   7.033   0.479   6.433  0.1180  0.2469 -0.0922
17805SOL    HW154657   7.080   0.429   6.366  0.9569 -0.4194  0.9960
17805SOL    HW254658   7.038   0.425   6.512  1.1483  2.1006  1.1434
17806SOL     OW54659   0.466   7.297   0.793  0.4098  0.0392  0.3663
17806SOL    HW154660   0.512   7.377   0.768  2.0153  0.0249  3.0675
17806SOL    HW254661   0.377   7.325   0.814  0.8307  1.0487  0.8319
17807SOL     OW54662   5.526   5.302   4.198  0.5408 -0.0371  0.2912
17807SOL    HW154663   5.501   5.250   4.275  0.6773 -1.3712 -0.5604
17807SOL    HW254664   5.593   5.250   4.154  1.0971  1.1341 -0.2614
17808SOL     OW54665   2.566   6.029   0.690  0.4935  0.1254 -0.0321
17808SOL    HW154666   2.496   6.056   0.749  0.6234  0.9112 -0.2279
17808SOL    HW254667   2.554   6.086   0.613  1.4803  0.4142  0.0294
17809SOL     OW54668   7.377   2.436   3.889 -1.2417 -0.1903  0.0574
17809SOL    HW154669   7.457   2.457   3.841 -0.8764 -0.9794  0.3058
17809SOL    HW254670   7.307   2.475   3.837 -0.5954  1.5959  0.5247
17810SOL     OW54671   3.886   0.071   7.708  0.1683  0.0650  0.3395
17810SOL    HW154672   3.885  -0.024   7.718 -2.2452  0.0879  0.7226
17810SOL    HW254673   3.846   0.087   7.622 -1.4060  0.7665  1.1658
17811SOL     OW54674   2.880   3.711   7.312  0.3253 -0.1727 -0.1676
17811SOL    HW154675   2.789   3.739   7.321  0.6704  0.7961  0.4453
17811SOL    HW254676   2.877   3.616   7.316 -0.6253 -0.1267  0.2617
17812SOL     OW54677   2.729   5.627   3.994 -0.0850  0.1508  0.1506
17812SOL    HW154678   2.696   5.636   3.905  0.3254 -1.7489 -0.2045
17812SOL    HW254679   2.655   5.594   4.044  0.4612 -1.4534 -0.0758
17813SOL     OW54680   2.775   6.878   0.347 -0.3207  0.3861 -0.1262
17813SOL    HW154681   2.707   6.918   0.292  0.6435 -0.5100 -2.0324
17813SOL    HW254682   2.754   6.784   0.346 -0.2153  0.3477  0.9401
17814SOL     OW54683   3.235   7.222   0.090  0.3525 -0.1064  0.0040
17814SOL    HW154684   3.184   7.288   0.136 -1.2051 -0.5421 -1.0584
17814SOL    HW254685   3.290   7.273   0.030 -0.0815  0.2824 -0.0708
17815SOL     OW54686   3.917   1.318   7.897  0.1655  0.7589  0.2749
17815SOL    HW154687   3.997   1.273   7.870 -0.4288  0.1174 -0.4408
17815SOL    HW254688   3.893   1.276   7.979 -0.7393 -0.6974 -0.7114
17816SOL     OW54689   5.043   2.795   5.982  0.3229  0.1974 -0.2182
17816SOL    HW154690   5.018   2.872   5.930 -0.1108 -1.0911 -1.9517
17816SOL    HW254691   5.130   2.771   5.949  2.3003  2.3302  3.1199
17817SOL     OW54692   4.064   2.132   1.053  0.1777 -0.6269  0.0374
17817SOL    HW154693   4.141   2.156   1.105  0.7687  0.1142 -1.1567
17817SOL    HW254694   4.085   2.161   0.965 -0.9126 -1.6778 -0.5779
17818SOL     OW54695   2.192   2.035   5.942 -0.0627  0.0880 -0.1080
17818SOL    HW154696   2.197   1.994   6.029  0.4440 -1.2371 -0.7351
17818SOL    HW254697   2.255   1.985   5.889 -2.2558 -0.8239 -1.9157
17819SOL     OW54698   2.477   6.117   3.762  0.2157 -0.9013 -0.6584
17819SOL    HW154699   2.549   6.085   3.817  1.2875  1.9629 -0.3043
17819SOL    HW254700   2.398   6.105   3.815  1.0716  0.5424  0.9769
17820SOL     OW54701   4.035   2.639   7.910  0.3987  0.2336 -0.1163
17820SOL    HW154702   4.084   2.636   7.992  2.0688  0.4350 -1.0967
17820SOL    HW254703   3.998   2.551   7.901  1.0295 -0.0849  0.3606
17821SOL     OW54704   4.960   4.407   2.354  0.0355  0.2356 -0.1469
17821SOL    HW154705   4.923   4.490   2.386 -1.4198 -0.2613 -0.5018
17821SOL    HW254706   4.887   4.346   2.358  0.6723 -0.6136 -1.4750
17822SOL     OW54707   6.550   5.088   6.078  0.0425  0.1029  0.0716
17822SOL    HW154708   6.612   5.160   6.071  0.3414 -0.1835 -0.2668
17822SOL    HW254709   6.492   5.113   6.150  0.3548  0.5196  0.1811
17823SOL     OW54710   7.002   2.449   6.503 -0.2455  0.0537  0.4303
17823SOL    HW154711   6.936   2.516   6.523 -1.9997 -1.2282 -0.9253
17823SOL    HW254712   7.078   2.499   6.473 -1.3137  1.4844  0.0281
17824SOL     OW54713   6.908   5.770   0.481  0.1359  0.0459 -0.4155
17824SOL    HW154714   6.834   5.791   0.538  0.9021  0.7625  0.3306
17824SOL    HW254715   6.949   5.855   0.463 -0.3052 -0.1262 -2.3356
17825SOL     OW54716   7.715   7.739   7.059 -0.2114  0.0275  0.2324
17825SOL    HW154717   7.767   7.814   7.088 -0.2930  0.5132 -0.8699
17825SOL    HW254718   7.626   7.758   7.089 -0.5641  1.1768 -1.5065
17826SOL     OW54719   0.313   4.870   0.129 -0.4245  0.0766  0.0724
17826SOL    HW154720   0.290   4.882   0.037 -0.8298 -0.4660  0.1037
17826SOL    HW254721   0.265   4.940   0.175  0.5006  0.9258 -0.2258
17827SOL     OW54722   5.250   5.412   3.508  0.2830 -0.1731 -0.0366
17827SOL    HW154723   5.255   5.489   3.565  0.3323 -0.0705 -0.1794
17827SOL    HW254724   5.157   5.403   3.488  0.2885 -0.0876 -0.1047
17828SOL     OW54725   8.162   1.689   7.408  0.4546  0.6247 -0.4770
17828SOL    HW154726   8.223   1.676   7.336  0.8074  0.6592 -0.1901
17828SOL    HW254727   8.076   1.664   7.373  1.0864 -2.4410  0.0495
17829SOL     OW54728   0.440   1.085   5.737  0.4810 -0.2185  0.2959
17829SOL    HW154729   0.447   1.003   5.688  0.7029 -1.5925  2.5527
17829SOL    HW254730   0.530   1.107   5.760  0.4366  0.7743 -0.4646
17830SOL     OW54731   6.185   7.531   3.474  0.4693 -0.1991  0.5004
17830SOL    HW154732   6.128   7.509   3.400  1.0182 -0.5651  0.1827
17830SOL    HW254733   6.256   7.582   3.435  1.0267 -0.8248  0.6887
17831SOL     OW54734   3.353   2.709   6.168  0.0700  0.1250  0.2561
17831SOL    HW154735   3.402   2.786   6.142  0.8398  0.6615  3.0493
17831SOL    HW254736   3.352   2.713   6.264  0.9677 -3.8173  0.5088
17832SOL     OW54737   0.525   4.725   8.218  0.0191 -0.0871  0.7169
17832SOL    HW154738   0.562   4.746   8.303 -0.9594 -1.8382  1.6047
17832SOL    HW254739   0.594   4.749   8.155  1.2649 -0.0383  2.0891
17833SOL     OW54740   3.579   3.379   3.963 -0.0117 -0.1942  0.1430
17833SOL    HW154741   3.579   3.286   3.940  1.3495 -0.5157  1.3488
17833SOL    HW254742   3.665   3.394   4.003 -0.3218  1.5191  0.2068
17834SOL     OW54743   1.077   4.982   4.413  0.2902 -0.2416  0.0765
17834SOL    HW154744   1.141   4.911   4.421  1.9961  1.4358  1.6969
17834SOL    HW254745   1.081   5.008   4.321  2.4031  0.2361  0.2823
17835SOL     OW54746   4.549   6.698   6.002 -0.2566 -0.6121 -0.0919
17835SOL    HW154747   4.528   6.671   6.092 -0.5466 -0.3015 -0.0630
17835SOL    HW254748   4.640   6.673   5.990  0.0011 -0.0021  0.5454
17836SOL     OW54749   0.096   5.022   0.149 -0.1837 -0.0648 -0.0465
17836SOL    HW154750   0.155   5.097   0.141  2.0738 -1.8505 -0.7292
17836SOL    HW254751   0.084   4.992   0.059  0.5531 -1.7449  0.4095
17837SOL     OW54752   1.672   6.092   6.246  0.2410  0.5244 -0.4007
17837SOL    HW154753   1.686   6.059   6.335  0.6083 -0.7043 -0.9026
17837SOL    HW254754   1.733   6.166   6.238  2.0117 -0.8964 -0.4471
17838SOL     OW54755   7.883   3.939   4.171  0.3191  0.1065 -0.3272
17838SOL    HW154756   7.840   4.003   4.114 -1.0057 -1.3792 -1.0435
17838SOL    HW254757   7.938   3.887   4.113 -0.7646 -1.1871 -0.2310
17839SOL     OW54758   3.241   4.914   5.499  0.2240 -0.2457 -0.2424
17839SOL    HW154759   3.332   4.884   5.492  1.4047  3.2121 -0.5106
17839SOL    HW254760   3.208   4.871   5.578  2.1905 -1.2664  0.0582
17840SOL     OW54761   6.360   6.510   0.773  0.5527 -0.0131 -0.4563
17840SOL    HW154762   6.328   6.536   0.859 -1.1349 -0.7061 -0.8571
17840SOL    HW254763   6.436   6.453   0.792 -0.7774 -1.4700  0.6266
17841SOL     OW54764   7.704   6.981   7.188 -0.6426  0.4044  0.1867
17841SOL    HW154765   7.785   6.990   7.238  0.0325 -0.2748 -0.7876
17841SOL    HW254766   7.655   6.913   7.235  0.2807 -0.7123 -0.4375
17842SOL     OW54767   5.891   1.399   1.834 -0.2996 -0.1585  0.2109
17842SOL    HW154768   5.901   1.397   1.930 -1.5076 -0.6717  0.3243
17842SOL    HW254769   5.798   1.386   1.819 -0.2459  0.8447 -1.0156
17843SOL     OW54770   6.492   6.026   7.416 -0.3487  0.7729 -0.0462
17843SOL    HW154771   6.464   5.986   7.333  1.7634  0.3164 -0.5631
17843SOL    HW254772   6.423   6.089   7.436 -1.9495 -0.5824 -1.0724
17844SOL     OW54773   0.998   4.028   6.181  0.1011  0.0155  0.2289
17844SOL    HW154774   0.916   4.031   6.132  0.3888 -0.8376 -0.3161
17844SOL    HW254775   0.994   3.946   6.229  0.1350  0.5154  1.1007
17845SOL     OW54776   8.228   1.915   6.172 -0.3732 -0.1934 -0.4357
17845SOL    HW154777   8.151   1.952   6.127 -1.4539 -1.4223  0.3647
17845SOL    HW254778   8.207   1.923   6.265 -0.3119 -2.1165 -0.2343
17846SOL     OW54779   0.986   1.582   1.775  0.1968 -0.1873  0.3381
17846SOL    HW154780   1.063   1.525   1.775 -0.4026 -1.0140 -0.0587
17846SOL    HW254781   0.974   1.605   1.867  0.1830 -1.0941  0.5751
17847SOL     OW54782   5.274   5.606   7.210 -0.1675 -0.0177  0.0357
17847SOL    HW154783   5.245   5.524   7.250  1.2143 -0.7187 -0.3649
17847SOL    HW254784   5.360   5.622   7.248 -1.0231  2.0114  1.1829
17848SOL     OW54785   7.215   5.611   2.900 -0.4382 -0.0430  0.1346
17848SOL    HW154786   7.145   5.656   2.946  0.9720  1.1209  1.2088
17848SOL    HW254787   7.294   5.660   2.922  0.7187 -1.2919 -1.0725
17849SOL     OW54788   2.043   7.577   0.586 -0.2970  0.2653  0.0839
17849SOL    HW154789   2.048   7.670   0.565 -0.3943 -0.3405 -2.8103
17849SOL    HW254790   1.951   7.562   0.608 -0.4650  0.6886 -0.3193
17850SOL     OW54791   0.245   1.952   0.016 -0.4577  0.0636  0.0204
17850SOL    HW154792   0.215   1.972   0.104 -0.7240 -0.9611  0.1691
17850SOL    HW254793   0.324   2.005   0.005  0.3572 -0.8353  1.3769
17851SOL     OW54794   6.836   7.730   5.660 -0.5644  0.5423 -0.0814
17851SOL    HW154795   6.772   7.785   5.614 -0.7235 -0.2527 -0.8215
17851SOL    HW254796   6.840   7.767   5.748 -1.3593  1.1686 -0.3000
17852SOL     OW54797   8.203   4.521   6.565  0.2081 -0.0601  0.4723
17852SOL    HW154798   8.123   4.568   6.588  0.7549  1.5901 -0.8859
17852SOL    HW254799   8.270   4.561   6.620  0.8136  1.3147 -1.2165
17853SOL     OW54800   3.149   7.794   0.449  0.2177 -0.2130  0.2642
17853SOL    HW154801   3.111   7.798   0.537 -0.5904  1.9396 -0.1714
17853SOL    HW254802   3.167   7.885   0.426  1.2960 -0.8377 -1.4291
17854SOL     OW54803   2.521   4.669   6.211 -0.1905 -0.1437 -0.2811
17854SOL    HW154804   2.515   4.757   6.248 -1.0812  0.1498 -1.0946
17854SOL    HW254805   2.512   4.611   6.286  1.5100  0.4505  0.4127
17855SOL     OW54806   4.849   3.848   4.985  0.3836  0.3670  0.0835
17855SOL    HW154807   4.879   3.876   4.899 -0.2769  1.8526  0.3298
17855SOL    HW254808   4.807   3.763   4.968  1.9100 -0.2373 -0.7393
17856SOL     OW54809   2.231   3.974   4.464  0.2151  0.3655  0.0048
17856SOL    HW154810   2.144   3.975   4.505 -0.0217  2.5477 -0.5040
17856SOL    HW254811   2.251   3.880   4.453 -2.0579 -0.1701  0.1612
17857SOL     OW54812   6.600   5.222   2.285  0.1449  0.4439 -0.6210
17857SOL    HW154813   6.673   5.162   2.269  0.3382  1.1498 -2.5717
17857SOL    HW254814   6.615   5.256   2.373  2.9508  1.5787 -1.4614
17858SOL     OW54815   0.351   5.566   4.655 -0.7486  0.1170  0.6619
17858SOL    HW154816   0.389   5.484   4.687  0.3154  1.0569  1.8520
17858SOL    HW254817   0.256   5.554   4.665 -0.5821 -0.8091  1.2060
17859SOL     OW54818   6.154   7.780   7.064  0.0486 -0.4102 -0.8430
17859SOL    HW154819   6.196   7.707   7.018  0.0260  0.1429 -1.7592
17859SOL    HW254820   6.060   7.760   7.056  0.0491 -0.3782 -0.9373
17860SOL     OW54821   4.336   3.857   5.410 -0.3066 -0.1486  0.1243
17860SOL    HW154822   4.293   3.773   5.392  0.6545 -0.5246 -0.4384
17860SOL    HW254823   4.423   3.848   5.371  0.2216  0.6666  1.1028
17861SOL     OW54824   0.991   0.519   7.979 -0.4726 -0.0140 -0.1689
17861SOL    HW154825   1.045   0.469   7.918  0.7763  0.7375  0.3005
17861SOL    HW254826   0.951   0.453   8.036  0.9927 -0.5283  0.3092
17862SOL     OW54827   7.994   6.151   0.869  0.2322 -0.1023  0.0002
17862SOL    HW154828   8.010   6.204   0.947  1.4583  0.6148 -0.7219
17862SOL    HW254829   7.938   6.079   0.899  0.1900  0.5120  1.3981
17863SOL     OW54830   5.143   0.508   0.222 -0.5595 -0.5799 -0.2497
17863SOL    HW154831   5.173   0.418   0.207  0.0215 -0.3951 -0.1833
17863SOL    HW254832   5.147   0.519   0.317  1.3735  0.2185 -0.4172
17864SOL     OW54833   5.370   1.033   5.483  0.5162 -0.5178 -0.3575
17864SOL    HW154834   5.412   1.084   5.414 -2.0850  3.4821  0.8534
17864SOL    HW254835   5.420   1.054   5.562 -0.1288 -0.4521  0.0309
17865SOL     OW54836   3.625   5.103   6.587  0.7419  0.0953  0.0852
17865SOL    HW154837   3.642   5.052   6.666  0.4583 -0.1314  0.0013
17865SOL    HW254838   3.712   5.124   6.553  0.8752  0.6636  0.7521
17866SOL     OW54839   7.889   1.770   0.831  0.6387  0.6499  0.6048
17866SOL    HW154840   7.961   1.799   0.776 -0.0943 -0.1604 -0.8015
17866SOL    HW254841   7.853   1.851   0.867  0.0957  1.3310 -1.4087
17867SOL     OW54842   6.141   3.758   2.713  0.1108  0.1265 -0.3922
17867SOL    HW154843   6.167   3.840   2.754  1.6756 -0.8740  0.6867
17867SOL    HW254844   6.126   3.698   2.786  2.0607 -1.4136 -1.1991
17868SOL     OW54845   6.123   5.200   0.339 -0.4030 -0.1801 -0.4552
17868SOL    HW154846   6.079   5.132   0.289  0.2387 -2.3340  1.8068
17868SOL    HW254847   6.203   5.218   0.289 -1.4814  0.2811 -2.0397
17869SOL     OW54848   1.018   5.764   0.411  0.0085 -0.7263 -0.2388
17869SOL    HW154849   0.941   5.717   0.444 -0.3850  0.3083  0.3377
17869SOL    HW254850   1.027   5.840   0.469  0.9900 -0.4048 -0.7926
17870SOL     OW54851   2.312   2.859   2.443 -0.1298  0.1111 -0.1077
17870SOL    HW154852   2.217   2.858   2.431 -0.0799  1.0991 -0.6840
17870SOL    HW254853   2.343   2.777   2.405 -0.5682  0.6125 -1.5639
17871SOL     OW54854   4.816   3.186   1.256  0.0224  0.1852  0.5317
17871SOL    HW154855   4.748   3.201   1.323  0.9549 -2.5166  2.1841
17871SOL    HW254856   4.883   3.251   1.275 -1.3091  1.7532 -0.0296
17872SOL     OW54857   4.378   4.388   3.551 -0.2009 -0.2300 -0.3000
17872SOL    HW154858   4.318   4.431   3.490  1.0464  1.2065 -0.5323
17872SOL    HW254859   4.432   4.458   3.586  0.2616 -1.2856  1.1616
17873SOL     OW54860   3.633   5.987   1.586  0.2736  0.4911  0.1695
17873SOL    HW154861   3.673   5.943   1.662  1.8336 -0.9144 -1.4117
17873SOL    HW254862   3.690   5.964   1.513 -1.2740  1.7320 -1.4638
17874SOL     OW54863   1.631   0.938   5.194  0.0374 -0.2816  0.2790
17874SOL    HW154864   1.595   1.025   5.175  0.5622 -0.4035 -1.3932
17874SOL    HW254865   1.556   0.886   5.221 -0.6404  0.1261 -0.7830
17875SOL     OW54866   1.509   0.186   6.613  0.4549  0.1745  0.2100
17875SOL    HW154867   1.562   0.187   6.693 -0.4670 -0.4405  0.8405
17875SOL    HW254868   1.571   0.203   6.543  1.2993  0.5833  1.0483
17876SOL     OW54869   7.521   0.652   3.628 -0.1109  0.1851 -0.3131
17876SOL    HW154870   7.558   0.578   3.676  0.2118 -0.5284 -1.6242
17876SOL    HW254871   7.595   0.689   3.581 -0.0118  2.1825  1.3687
17877SOL     OW54872   4.929   5.864   6.028  0.4084  0.4480 -0.2129
17877SOL    HW154873   5.006   5.920   6.014  0.8515  0.8519  3.2137
17877SOL    HW254874   4.964   5.784   6.068 -0.8405  0.2532  0.5337
17878SOL     OW54875   4.360   4.571   1.152  0.0042 -0.3616 -0.2695
17878SOL    HW154876   4.317   4.630   1.089  0.6154  0.3925  0.0236
17878SOL    HW254877   4.365   4.487   1.106 -1.1658 -0.2792 -0.5677
17879SOL     OW54878   3.329   3.850   2.414 -0.0186  0.0179  0.1547
17879SOL    HW154879   3.374   3.771   2.384  1.0513  1.2067 -1.4917
17879SOL    HW254880   3.399   3.903   2.452 -0.7931  0.0238  1.6041
17880SOL     OW54881   7.501   5.947   3.737  0.4195  0.2793 -0.5199
17880SOL    HW154882   7.415   5.915   3.766  0.9320 -0.0224  0.6973
17880SOL    HW254883   7.483   5.990   3.653 -0.9990  0.5632 -0.0976
17881SOL     OW54884   0.525   4.338   6.948 -0.0879  0.1076  0.0883
17881SOL    HW154885   0.445   4.390   6.953 -1.0701 -1.5268  2.0130
17881SOL    HW254886   0.499   4.260   6.898  0.1930 -0.6093  1.0525
17882SOL     OW54887   7.922   1.523   0.731  0.2037 -0.4212  0.4822
17882SOL    HW154888   7.888   1.609   0.754  0.0456  0.9262 -4.2773
17882SOL    HW254889   7.844   1.468   0.722  0.0498 -0.1920  0.4108
17883SOL     OW54890   7.729   6.752   4.042 -0.0772 -0.5377  0.0996
17883SOL    HW154891   7.726   6.704   4.124  2.2768  3.3583  2.6197
17883SOL    HW254892   7.819   6.741   4.011 -0.4748 -0.5635 -1.0644
17884SOL     OW54893   8.009   4.469   4.817  0.4735 -0.4722 -0.2600
17884SOL    HW154894   8.104   4.472   4.827  0.2798 -0.6136  1.7289
17884SOL    HW254895   7.975   4.521   4.890 -1.0641 -2.8662  0.7949
17885SOL     OW54896   6.297   4.814   8.110 -0.4761  0.0036 -0.5384
17885SOL    HW154897   6.286   4.725   8.079 -1.7126 -0.9782  2.4352
17885SOL    HW254898   6.391   4.831   8.105 -0.3487 -1.0873 -2.0568
17886SOL     OW54899   3.330   2.924   3.638 -0.2978 -0.4715 -0.3041
17886SOL    HW154900   3.322   3.018   3.620  0.2002 -0.6240 -1.3028
17886SOL    HW254901   3.417   2.901   3.608 -0.2728 -1.1824  0.2988
17887SOL     OW54902   4.699   1.400   5.683  0.1926  0.0162  0.1528
17887SOL    HW154903   4.780   1.413   5.732  1.3620 -0.0882 -1.6918
17887SOL    HW254904   4.727   1.371   5.597 -1.8890 -1.7251  0.0091
17888SOL     OW54905   2.113   4.845   7.202  0.4003  0.0747 -0.5317
17888SOL    HW154906   2.081   4.915   7.260  0.5471 -0.5791  0.3505
17888SOL    HW254907   2.034   4.802   7.171  0.3399  0.0271 -0.3145
17889SOL     OW54908   5.708   4.542   6.550 -0.0862  0.1086 -0.0576
17889SOL    HW154909   5.691   4.480   6.479  2.4059 -2.4916  1.5020
17889SOL    HW254910   5.630   4.535   6.606 -1.2851  0.8813 -1.5830
17890SOL     OW54911   3.552   3.088   7.886 -0.2892 -0.0116  0.7351
17890SOL    HW154912   3.638   3.102   7.846  0.4870  1.9261  2.9932
17890SOL    HW254913   3.503   3.168   7.867 -1.7017 -1.1803 -0.6993
17891SOL     OW54914   0.939   0.468   6.648  0.2852  0.4135  0.0916
17891SOL    HW154915   0.869   0.528   6.622 -0.0477 -0.1393 -0.2933
17891SOL    HW254916   0.900   0.417   6.719  0.1611 -0.1847 -0.4116
17892SOL     OW54917   0.256   0.928   4.137 -0.2441  0.5765  0.0555
17892SOL    HW154918   0.281   0.842   4.103 -0.3696  0.7252 -0.4128
17892SOL    HW254919   0.160   0.928   4.132 -0.2184  0.9544 -0.4618
17893SOL     OW54920   6.023   4.958   7.627 -0.1303  0.0309 -0.2707
17893SOL    HW154921   6.081   5.033   7.637 -0.9677  0.7463 -0.7370
17893SOL    HW254922   6.082   4.883   7.623  0.6806  0.6206  0.6380
17894SOL     OW54923   7.339   1.965   7.597 -0.7547 -0.6564  0.8338
17894SOL    HW154924   7.429   1.944   7.621  0.3603  0.7235 -1.9135
17894SOL    HW254925   7.303   1.882   7.564  0.9133 -0.3381 -2.0112
17895SOL     OW54926   5.198   6.595   7.738 -0.5021 -0.1857  0.1885
17895SOL    HW154927   5.287   6.560   7.739 -0.3957  0.0955  0.4893
17895SOL    HW254928   5.159   6.565   7.820 -0.4525  0.2848  0.3870
17896SOL     OW54929   0.855   4.654   7.669  0.6860 -0.3790 -0.1366
17896SOL    HW154930   0.884   4.621   7.754 -0.4157 -0.7203  0.1160
17896SOL    HW254931   0.783   4.596   7.644 -0.1705  0.7979 -0.4620
17897SOL     OW54932   4.916   7.773   4.426  0.1816  0.5970 -0.8389
17897SOL    HW154933   4.966   7.816   4.357  0.0975  1.2174 -0.5155
17897SOL    HW254934   4.911   7.681   4.399  0.9854  0.6503 -1.1680
17898SOL     OW54935   6.951   7.465   6.663  0.0910 -0.1765 -0.4427
17898SOL    HW154936   7.009   7.413   6.718 -0.2393  1.0257  1.0849
17898SOL    HW254937   6.986   7.554   6.669 -0.5629  0.1483 -1.3444
17899SOL     OW54938   4.333   5.020   5.284  0.0616 -0.4944 -0.5111
17899SOL    HW154939   4.272   5.019   5.358  1.8932  0.2595  1.0582
17899SOL    HW254940   4.286   4.976   5.213 -1.6088 -1.5568  1.2070
17900SOL     OW54941   5.919   5.756   3.061  0.7304  0.0162  0.1030
17900SOL    HW154942   5.906   5.851   3.055 -0.3465 -0.1377 -0.0195
17900SOL    HW254943   5.831   5.720   3.075  0.7911 -1.1877 -2.4352
17901SOL     OW54944   1.224   7.125   7.182  0.2653 -0.2384  0.1875
17901SOL    HW154945   1.225   7.195   7.116  0.5988  0.5883  1.0633
17901SOL    HW254946   1.185   7.165   7.259  1.4947 -0.6963  1.0563
17902SOL     OW54947   1.460   0.013   4.122 -0.0024  0.0227 -0.5591
17902SOL    HW154948   1.544   0.038   4.082  0.9124 -1.1504  0.5722
17902SOL    HW254949   1.461  -0.082   4.121 -1.7031  0.0011 -1.2620
17903SOL     OW54950   4.123   0.650   6.713 -0.2369 -0.2271 -0.1857
17903SOL    HW154951   4.114   0.738   6.675  0.6568 -0.6399 -1.4085
17903SOL    HW254952   4.062   0.596   6.662 -0.3966 -0.4176  0.2097
17904SOL     OW54953   7.529   7.735   8.017  0.1301  0.4335 -0.5214
17904SOL    HW154954   7.519   7.640   8.016 -0.1613  0.4646 -2.3569
17904SOL    HW254955   7.457   7.768   7.963 -0.7677  1.8290  1.4204
17905SOL     OW54956   1.712   3.474   4.048  0.0326 -0.2458  0.1793
17905SOL    HW154957   1.798   3.510   4.071 -0.8360  1.1413  1.3122
17905SOL    HW254958   1.663   3.475   4.130 -1.2640 -0.5123 -0.5850
17906SOL     OW54959   5.700   0.071   5.219  0.6964 -0.2237 -0.2559
17906SOL    HW154960   5.680   0.115   5.136 -0.2838 -0.5700 -0.2218
17906SOL    HW254961   5.641  -0.005   5.219 -0.6451  0.7730  1.6003
17907SOL     OW54962   3.595   2.877   4.583  0.3195 -0.5313 -0.3754
17907SOL    HW154963   3.581   2.965   4.546  1.8538 -0.6690 -1.3331
17907SOL    HW254964   3.521   2.826   4.552 -0.7733  0.5197  0.4787
17908SOL     OW54965   2.826   2.178   7.747 -0.7351 -0.0115  0.0510
17908SOL    HW154966   2.869   2.169   7.832  0.6033  0.9827 -0.4862
17908SOL    HW254967   2.853   2.100   7.699 -0.0267  0.2877 -0.0551
17909SOL     OW54968   8.079   3.358   6.247 -0.0375 -0.1073 -0.6129
17909SOL    HW154969   8.040   3.435   6.288  0.8027  0.9633 -1.7947
17909SOL    HW254970   8.136   3.321   6.315  1.5489  1.8103 -0.8536
17910SOL     OW54971   3.520   1.187   6.616 -0.1485  0.5802 -0.0486
17910SOL    HW154972   3.593   1.233   6.573 -0.4272  0.4100 -0.7172
17910SOL    HW254973   3.442   1.233   6.586 -0.5153 -1.1028 -1.7396
17911SOL     OW54974   0.443   1.895   3.967 -0.4328 -0.5906  0.0179
17911SOL    HW154975   0.382   1.958   3.930  0.3574  0.1605 -0.0307
17911SOL    HW254976   0.460   1.833   3.896  1.3301  1.0288 -1.0223
17912SOL     OW54977   2.857   0.772   3.256  0.2923  0.3321 -0.5467
17912SOL    HW154978   2.894   0.753   3.342 -1.8774  0.3877  0.4363
17912SOL    HW254979   2.932   0.773   3.197  1.6238 -1.3549  1.0654
17913SOL     OW54980   3.743   0.491   7.319  0.4924 -0.8353 -0.3008
17913SOL    HW154981   3.804   0.421   7.297  0.1901 -0.9337 -0.8392
17913SOL    HW254982   3.733   0.486   7.414 -0.2503 -2.1154 -0.4374
17914SOL     OW54983   7.292   7.066   0.336 -0.0099  0.4167 -0.7141
17914SOL    HW154984   7.256   7.149   0.368  0.0103 -0.2423  1.1378
17914SOL    HW254985   7.218   7.022   0.295 -0.6366  0.3412  0.4540
17915SOL     OW54986   3.239   0.889   8.172  0.2469  0.0640 -0.7472
17915SOL    HW154987   3.332   0.885   8.151  0.5984  0.7066  0.6400
17915SOL    HW254988   3.224   0.981   8.196 -0.0916 -0.6440  1.9021
17916SOL     OW54989   7.060   3.968   8.061  0.5558  1.2198  0.6111
17916SOL    HW154990   7.010   3.916   7.999  0.9816 -1.3556  2.3316
17916SOL    HW254991   7.004   4.043   8.081 -1.5741 -0.3368  0.6524
17917SOL     OW54992   4.665   4.876   0.192  0.3485  0.0108  1.1842
17917SOL    HW154993   4.572   4.898   0.197  0.2953  0.3661 -0.8224
17917SOL    HW254994   4.708   4.958   0.167  0.7137 -0.9956 -1.6849
17918SOL     OW54995   4.893   1.997   5.522  0.6099 -0.3882 -0.4211
17918SOL    HW154996   4.805   2.000   5.561  0.8348 -0.4697  0.0957
17918SOL    HW254997   4.940   1.932   5.574  0.5526 -1.3941 -1.6002
17919SOL     OW54998   0.472   6.488   6.403  0.6364 -0.2248 -0.3051
17919SOL    HW154999   0.431   6.572   6.383 -0.7943 -1.1897 -1.4763
17919SOL    HW255000   0.500   6.497   6.495  0.2380  1.4023 -0.3214
17920SOL     OW55001   5.143   5.744   2.514  0.9550 -0.7014 -0.7287
17920SOL    HW155002   5.181   5.702   2.591  0.4859 -1.2870 -0.8073
17920SOL    HW255003   5.194   5.711   2.441  1.2903 -0.2800 -0.6853
17921SOL     OW55004   2.050   6.564   5.635  0.0028  0.0299 -0.5075
17921SOL    HW155005   2.107   6.619   5.687  0.0088 -0.0555 -0.4238
17921SOL    HW255006   2.091   6.561   5.548  0.3823 -0.4231 -0.3130
17922SOL     OW55007   0.134   5.001   0.404 -0.5061  0.2213  0.1664
17922SOL    HW155008   0.103   4.980   0.316 -0.9324  1.4751  0.0170
17922SOL    HW255009   0.103   5.090   0.421  0.2178  0.2756  1.2892
17923SOL     OW55010   3.110   5.112   7.573 -0.2332 -0.5685  0.2169
17923SOL    HW155011   3.029   5.084   7.529 -1.3755  1.0324  1.2285
17923SOL    HW255012   3.170   5.132   7.501 -1.9265  1.5714 -0.6644
17924SOL     OW55013   2.301   5.841   1.211  0.5049  0.6155  0.5013
17924SOL    HW155014   2.267   5.903   1.275 -0.6399  1.5684 -0.9927
17924SOL    HW255015   2.395   5.855   1.212  0.3900  1.3915  1.1910
17925SOL     OW55016   5.370   5.251   7.757 -0.6144  0.5440  0.2199
17925SOL    HW155017   5.404   5.176   7.707 -0.7157  1.2113 -0.8676
17925SOL    HW255018   5.439   5.270   7.821 -0.2246  0.0378 -0.0456
17926SOL     OW55019   6.105   8.107   5.643  0.5114  0.4158  0.2591
17926SOL    HW155020   6.165   8.177   5.670  2.8172 -0.9201 -1.2293
17926SOL    HW255021   6.143   8.027   5.680 -0.5929 -0.3977 -0.3403
17927SOL     OW55022   0.852   3.216   0.217  0.5813  0.2723 -0.6709
17927SOL    HW155023   0.844   3.311   0.227  0.6370  0.4165 -1.8354
17927SOL    HW255024   0.944   3.197   0.238  0.8885  0.6544 -1.6217
17928SOL     OW55025   0.194   8.253   4.179  0.1833  0.0068 -0.1616
17928SOL    HW155026   0.239   8.300   4.249 -2.0552  0.4479  1.0411
17928SOL    HW255027   0.160   8.321   4.121  1.2055 -0.3222 -1.1527
17929SOL     OW55028   8.262   2.074   3.448 -0.3128 -0.3732 -0.5455
17929SOL    HW155029   8.250   2.062   3.354 -2.0346 -0.0391 -0.3968
17929SOL    HW255030   8.231   2.163   3.465  1.0392 -0.0317  0.1719
17930SOL     OW55031   7.199   2.587   1.227 -0.0286 -0.2880 -0.2771
17930SOL    HW155032   7.137   2.659   1.218  2.2917  1.7191 -0.8623
17930SOL    HW255033   7.245   2.584   1.143  1.4412 -0.9512  0.5237
17931SOL     OW55034   4.781   2.842   5.811  0.4691  0.3201 -0.2369
17931SOL    HW155035   4.689   2.868   5.814 -0.9167 -4.2235  1.9378
17931SOL    HW255036   4.782   2.763   5.757  2.6224 -1.2255  1.9729
17932SOL     OW55037   5.026   4.664   3.872 -0.0634 -0.3445  0.0430
17932SOL    HW155038   4.979   4.623   3.800  0.7876 -0.2459 -0.5727
17932SOL    HW255039   5.061   4.591   3.923  0.8378 -0.4051 -0.6480
17933SOL     OW55040   7.560   0.616   2.805 -0.1744  0.2116 -0.2730
17933SOL    HW155041   7.535   0.616   2.713 -0.3409 -0.4872 -0.2347
17933SOL    HW255042   7.519   0.537   2.841  0.3877  0.1576  0.2618
17934SOL     OW55043   5.576   6.453   0.627 -0.8528 -0.0830 -0.1972
17934SOL    HW155044   5.624   6.507   0.564  1.0517 -1.7362 -0.2117
17934SOL    HW255045   5.588   6.499   0.711  2.2590 -1.3337  0.1130
17935SOL     OW55046   0.753   4.795   2.300 -0.5712  0.3808 -0.0609
17935SOL    HW155047   0.707   4.751   2.228  0.0297 -0.2382 -0.0689
17935SOL    HW255048   0.841   4.811   2.266  0.6040 -2.3687  1.4446
17936SOL     OW55049   6.774   2.822   4.115  0.6228 -0.2756  0.1662
17936SOL    HW155050   6.757   2.794   4.206 -0.7055  0.2119  0.0821
17936SOL    HW255051   6.865   2.798   4.099  0.4147 -1.7781  1.1270
17937SOL     OW55052   1.010   4.722   1.899  0.8227  0.3122 -0.5024
17937SOL    HW155053   0.946   4.787   1.927  1.5058  0.8058 -0.0680
17937SOL    HW255054   1.087   4.774   1.873  0.7175 -0.2157 -1.9172
17938SOL     OW55055   4.475   3.600   5.280 -0.1826  0.4721  0.5848
17938SOL    HW155056   4.481   3.584   5.374  1.8908 -0.5778  0.3064
17938SOL    HW255057   4.510   3.688   5.269  0.0349  0.4086  0.7533
17939SOL     OW55058   6.029   5.986   3.649  0.4734  0.2039  0.1147
17939SOL    HW155059   5.997   5.897   3.663  0.1890  0.0983 -1.1311
17939SOL    HW255060   6.058   6.015   3.736  1.6751 -1.5278  0.3160
17940SOL     OW55061   6.202   6.156   3.799 -0.5030 -0.2499  0.6045
17940SOL    HW155062   6.254   6.214   3.743 -0.2392  1.2400  2.3412
17940SOL    HW255063   6.136   6.213   3.838 -2.0311 -1.6934  0.1734
17941SOL     OW55064   3.985   6.496   6.503  0.7725  0.3049 -0.2061
17941SOL    HW155065   4.069   6.491   6.457  1.1618 -4.0624  0.7695
17941SOL    HW255066   3.922   6.458   6.443  0.3340 -0.5204  0.7541
17942SOL     OW55067   2.585   5.151   5.082 -0.0148 -0.7080 -0.1958
17942SOL    HW155068   2.668   5.171   5.039  0.2720  1.5350  1.3103
17942SOL    HW255069   2.526   5.128   5.010  1.0224  0.8615 -1.5883
17943SOL     OW55070   6.003   3.169   5.232  0.4476 -0.0877 -0.0349
17943SOL    HW155071   5.968   3.253   5.204  0.6419  0.0809  0.2238
17943SOL    HW255072   5.926   3.114   5.244 -0.0328  1.2748  3.7742
17944SOL     OW55073   2.971   1.964   5.048  0.1083 -0.1101 -0.4572
17944SOL    HW155074   2.911   2.034   5.074  0.9736  0.5396 -0.2283
17944SOL    HW255075   2.937   1.934   4.964 -0.7199  0.0548 -0.1884
17945SOL     OW55076   3.810   6.893   3.961 -0.2254 -0.3952 -0.2077
17945SOL    HW155077   3.830   6.939   3.880  0.7036  1.2628  0.9437
17945SOL    HW255078   3.881   6.917   4.021 -0.3121 -2.4609  0.7648
17946SOL     OW55079   1.183   6.335   6.793 -0.2403  0.1003 -0.1911
17946SOL    HW155080   1.248   6.404   6.806  1.8312 -2.0958  1.4174
17946SOL    HW255081   1.220   6.279   6.725 -2.3230  1.0257 -2.1264
17947SOL     OW55082   4.909   0.768   0.063  0.0434  0.6806 -0.3792
17947SOL    HW155083   4.846   0.766  -0.009 -1.8428  2.8714  1.1369
17947SOL    HW255084   4.889   0.690   0.115 -0.2320  0.4300 -0.8547
17948SOL     OW55085   3.870   5.944   8.122  0.4109  0.0212  0.2775
17948SOL    HW155086   3.814   5.869   8.101 -0.6325  1.3506 -2.0068
17948SOL    HW255087   3.810   6.019   8.119  1.7110  1.1016  1.0435
17949SOL     OW55088   2.854   0.918   7.200  0.2273  0.2586 -0.2738
17949SOL    HW155089   2.855   0.907   7.295 -0.6653 -1.8933 -0.4757
17949SOL    HW255090   2.855   1.013   7.186  0.2434  0.5937  1.8758
17950SOL     OW55091   3.416   2.019   0.619 -0.3825  0.4554 -0.1610
17950SOL    HW155092   3.477   2.079   0.574  0.2855 -0.2613 -0.2123
17950SOL    HW255093   3.363   1.982   0.548 -0.6845  0.8496 -0.1461
17951SOL     OW55094   4.030   4.244   7.177  0.0456  0.1159  0.2657
17951SOL    HW155095   4.047   4.169   7.233  0.7558 -0.1637 -0.3174
17951SOL    HW255096   4.072   4.222   7.094 -0.9190  0.5658 -0.3429
17952SOL     OW55097   6.227   3.760   0.036  0.0337 -0.2229  0.5619
17952SOL    HW155098   6.313   3.801   0.037 -0.0825  0.0327  2.9800
17952SOL    HW255099   6.172   3.819   0.088 -1.4535 -0.6631 -0.4888
17953SOL     OW55100   0.272   4.685   4.183 -0.0410 -0.2951  0.6333
17953SOL    HW155101   0.300   4.773   4.208  0.3544 -0.6897  1.6204
17953SOL    HW255102   0.271   4.636   4.266 -0.7282 -1.0874  0.1605
17954SOL     OW55103   0.050   7.963   6.620  0.3945  0.0472 -0.1470
17954SOL    HW155104   0.007   7.966   6.534  0.5763 -1.5128 -0.3034
17954SOL    HW255105   0.048   7.871   6.644 -0.3668  0.5691  1.8931
17955SOL     OW55106   3.901   4.163   1.965 -0.3099  0.1317 -0.5547
17955SOL    HW155107   3.953   4.132   1.891  0.2325  0.6717 -0.4057
17955SOL    HW255108   3.934   4.252   1.982  0.8548 -0.6389  1.4787
17956SOL     OW55109   2.684   7.539   6.536  0.4640 -0.2317 -0.7881
17956SOL    HW155110   2.660   7.540   6.444 -0.5388  1.2428 -0.5238
17956SOL    HW255111   2.605   7.510   6.581  1.4527 -2.6167 -0.5059
17957SOL     OW55112   5.463   3.164   1.244  0.7757  0.2978  0.0134
17957SOL    HW155113   5.414   3.134   1.168  1.3108  0.0955 -0.2552
17957SOL    HW255114   5.405   3.228   1.286  0.6763  0.7732 -0.8334
17958SOL     OW55115   0.296   6.377   0.598 -0.1260  0.1973  0.5731
17958SOL    HW155116   0.220   6.320   0.611 -0.4016  0.5407  0.5110
17958SOL    HW255117   0.338   6.344   0.519  0.6641 -0.9378  1.4555
17959SOL     OW55118   2.069   0.252   5.452  0.0207 -0.0829  0.0459
17959SOL    HW155119   2.088   0.161   5.477  0.6943  0.3494  1.1161
17959SOL    HW255120   1.975   0.261   5.466  0.1592 -0.2559  1.1365
17960SOL     OW55121   5.431   4.470   7.616  0.2145  0.2184 -0.3139
17960SOL    HW155122   5.400   4.388   7.656  0.6737  0.4813  0.5832
17960SOL    HW255123   5.351   4.520   7.601 -0.0256 -0.1744 -0.3739
17961SOL     OW55124   2.761   8.076   4.576 -0.2868  0.0133  0.2362
17961SOL    HW155125   2.786   8.079   4.484 -0.9701  0.4680  0.0606
17961SOL    HW255126   2.703   8.151   4.588 -1.0061 -0.6182  0.7885
17962SOL     OW55127   5.760   3.822   1.714 -0.4464  0.6013 -0.2037
17962SOL    HW155128   5.736   3.890   1.652  0.0793  0.6306 -0.3726
17962SOL    HW255129   5.690   3.824   1.780 -0.5170  1.1890 -0.2950
17963SOL     OW55130   6.672   0.563   6.281  0.6907 -0.3407 -0.3721
17963SOL    HW155131   6.736   0.580   6.212  0.2147  0.8192 -0.5462
17963SOL    HW255132   6.651   0.649   6.316 -0.6261 -0.7118 -0.1906
17964SOL     OW55133   3.739   1.633   3.104  0.1899 -0.3900 -0.6714
17964SOL    HW155134   3.653   1.673   3.095  0.3793 -0.1143 -1.2240
17964SOL    HW255135   3.799   1.706   3.112  0.1923 -0.5873  1.4868
17965SOL     OW55136   0.865   0.194   3.447  0.4500  0.1811 -0.1387
17965SOL    HW155137   0.846   0.108   3.484 -1.4830  0.5136 -0.2799
17965SOL    HW255138   0.865   0.253   3.523  1.8847  0.0546 -0.0274
17966SOL     OW55139   4.177   1.765   3.556 -0.0130  0.0182  0.6204
17966SOL    HW155140   4.135   1.724   3.631  0.9099 -0.7715  0.7056
17966SOL    HW255141   4.264   1.726   3.552 -0.2766 -0.4400 -1.2458
17967SOL     OW55142   6.172   0.416   8.197  0.0039 -0.0448  1.0868
17967SOL    HW155143   6.190   0.508   8.178  0.3186 -0.4488 -0.6866
17967SOL    HW255144   6.257   0.380   8.224  0.6755 -0.5868 -1.5805
17968SOL     OW55145   5.548   0.322   0.258  0.6958 -0.0484  0.6055
17968SOL    HW155146   5.624   0.285   0.214  0.0509 -0.0890 -0.4864
17968SOL    HW255147   5.563   0.417   0.257 -0.2960  0.1065 -1.5637
17969SOL     OW55148   3.161   6.354   0.609 -0.1521  0.5483 -0.3527
17969SOL    HW155149   3.189   6.280   0.663 -0.5587 -0.1254 -1.0621
17969SOL    HW255150   3.225   6.423   0.628  0.4810 -0.1262 -0.0253
17970SOL     OW55151   4.505   0.855   3.016 -0.0294 -0.0392 -0.2116
17970SOL    HW155152   4.505   0.948   3.037  1.3500 -0.6218  2.6047
17970SOL    HW255153   4.595   0.836   2.990 -0.4942 -0.4348 -1.5765
17971SOL     OW55154   5.620   5.630   2.822 -0.2796  0.0869  0.0831
17971SOL    HW155155   5.551   5.564   2.829 -0.1232 -0.3167 -2.0425
17971SOL    HW255156   5.686   5.601   2.885  0.1789 -2.2914 -1.4246
17972SOL     OW55157   5.724   5.546   6.932 -0.0937 -0.3406 -0.0109
17972SOL    HW155158   5.643   5.519   6.973 -0.6084  0.6056 -0.3732
17972SOL    HW255159   5.696   5.593   6.853  0.7731  0.6707  0.2706
17973SOL     OW55160   4.377   7.701   4.515  0.0238 -0.1585 -0.1503
17973SOL    HW155161   4.324   7.686   4.437 -0.5866 -0.2426  0.2738
17973SOL    HW255162   4.353   7.789   4.544  0.3913 -0.0520 -0.1670
17974SOL     OW55163   0.694   6.545   4.724 -0.1539  0.0478 -0.1730
17974SOL    HW155164   0.637   6.489   4.778 -0.9811 -0.1892 -1.2841
17974SOL    HW255165   0.768   6.565   4.781  1.3429 -4.1264 -0.5306
17975SOL     OW55166   6.486   0.179   2.804  0.2122  0.0133  0.3035
17975SOL    HW155167   6.469   0.209   2.715 -1.0909 -0.0203  0.5334
17975SOL    HW255168   6.539   0.248   2.843  1.5635 -0.3909 -0.7687
17976SOL     OW55169   0.871   1.738   0.247 -0.0588  0.5952 -0.1949
17976SOL    HW155170   0.831   1.667   0.297 -1.8136  1.4330 -0.3526
17976SOL    HW255171   0.916   1.791   0.313  0.1005  0.0882  0.1037
17977SOL     OW55172   2.580   0.121   6.115 -0.4318  0.5739  0.0997
17977SOL    HW155173   2.490   0.090   6.125 -0.2121  0.2125  1.0136
17977SOL    HW255174   2.601   0.107   6.023 -0.9074 -0.4270  0.1420
17978SOL     OW55175   4.685   7.531   2.467 -0.1130 -0.5487 -0.0430
17978SOL    HW155176   4.717   7.611   2.510  1.6585 -0.9942 -0.4808
17978SOL    HW255177   4.734   7.527   2.385 -1.2983 -1.2976 -0.7280
17979SOL     OW55178   1.369   7.890   4.760 -0.8224 -0.4418  0.1334
17979SOL    HW155179   1.297   7.894   4.823 -1.0233 -0.5812 -0.0859
17979SOL    HW255180   1.405   7.802   4.771  0.5048  0.2412  1.5478
17980SOL     OW55181   0.960   4.348   0.556 -0.4014  0.3357 -0.1183
17980SOL    HW155182   0.872   4.360   0.520 -0.6936 -1.8943 -0.2079
17980SOL    HW255183   1.001   4.434   0.547 -1.9948  0.9751 -1.6333
17981SOL     OW55184   0.445   5.705   1.689  0.2091  0.3019 -0.2216
17981SOL    HW155185   0.482   5.781   1.736 -1.4657  0.9205  0.1143
17981SOL    HW255186   0.504   5.693   1.614  0.1365  2.3257 -0.6314
17982SOL     OW55187   3.321   4.048   3.753 -0.5065 -0.4309  0.1276
17982SOL    HW155188   3.393   4.030   3.813 -0.1666 -1.2090 -0.5067
17982SOL    HW255189   3.361   4.050   3.666 -1.4703 -2.4389 -0.3970
17983SOL     OW55190   0.825   4.606   0.645  0.2854  0.1388  0.0147
17983SOL    HW155191   0.738   4.595   0.683  0.9083 -0.4391  1.3182
17983SOL    HW255192   0.809   4.634   0.555 -1.2224  1.9056  0.8168
17984SOL     OW55193   5.594   5.021   1.143  0.2859  0.3657  0.0903
17984SOL    HW155194   5.540   4.947   1.117  0.2496  0.2033  0.6298
17984SOL    HW255195   5.665   4.982   1.195  1.6346  0.4140 -1.6427
17985SOL     OW55196   2.558   3.899   1.736 -0.3257 -0.1695 -0.0379
17985SOL    HW155197   2.643   3.877   1.774  0.2801  1.6423 -0.3128
17985SOL    HW255198   2.525   3.969   1.791 -1.8113 -1.0858  0.2603
17986SOL     OW55199   0.774   1.598   1.378 -0.2373 -0.9424 -0.2184
17986SOL    HW155200   0.737   1.595   1.466  2.4800  1.8924  1.1385
17986SOL    HW255201   0.834   1.524   1.374  1.0198 -0.0083  1.0249
17987SOL     OW55202   0.394   1.692   2.241  0.5307  0.3471 -0.4035
17987SOL    HW155203   0.424   1.652   2.323 -0.7939  0.1508  0.0012
17987SOL    HW255204   0.420   1.783   2.248  3.0805 -0.2848 -1.0874
17988SOL     OW55205   6.712   5.636   4.394 -0.0385 -0.2832 -0.3191
17988SOL    HW155206   6.776   5.616   4.462 -2.0689 -0.3913  1.6010
17988SOL    HW255207   6.695   5.552   4.352 -0.6818 -0.6924  0.7466
17989SOL     OW55208   0.769   5.376   5.752 -0.8613 -0.0466  0.2671
17989SOL    HW155209   0.718   5.429   5.814 -1.6005  0.3344 -0.6537
17989SOL    HW255210   0.736   5.402   5.666 -0.4075 -1.1636 -0.2483
17990SOL     OW55211   3.331   2.192   6.559  0.3533 -0.3604 -0.1755
17990SOL    HW155212   3.352   2.223   6.471 -0.5047  0.0473 -0.2434
17990SOL    HW255213   3.241   2.158   6.552  1.0676 -2.3399  0.0324
17991SOL     OW55214   4.086   4.702   4.346  0.0206 -0.6765  0.1506
17991SOL    HW155215   4.131   4.681   4.428  1.9916 -0.4768 -0.8383
17991SOL    HW255216   4.085   4.620   4.298 -0.3318 -0.5890  0.0102
17992SOL     OW55217   0.563   3.506   7.850  0.0289  0.0385  0.0148
17992SOL    HW155218   0.505   3.432   7.833  0.6405 -0.3612 -0.3130
17992SOL    HW255219   0.535   3.573   7.788  0.5168 -0.4800 -0.7743
17993SOL     OW55220   0.140   4.127   1.206  0.0789 -0.6310  0.0632
17993SOL    HW155221   0.068   4.097   1.261  0.3611  0.6959  1.1983
17993SOL    HW255222   0.100   4.145   1.121 -0.7119 -0.9915  0.3607
17994SOL     OW55223   4.740   1.369   2.063 -0.7800 -0.0679 -0.3767
17994SOL    HW155224   4.763   1.449   2.108 -0.3389  1.9806 -4.0172
17994SOL    HW255225   4.644   1.373   2.055 -0.8259 -0.2672  0.0619
17995SOL     OW55226   4.595   4.809   1.075  0.4031 -0.2938 -0.6563
17995SOL    HW155227   4.537   4.814   0.999  1.5912  0.5101 -1.5382
17995SOL    HW255228   4.616   4.717   1.084 -0.8145 -0.5651 -0.4599
17996SOL     OW55229   6.975   5.011   2.035 -0.3086  0.5527 -0.2645
17996SOL    HW155230   6.883   5.025   2.059 -0.2743  0.1894  0.0882
17996SOL    HW255231   6.975   5.007   1.940 -0.3116  2.9882 -0.3873
17997SOL     OW55232   3.789   7.784   5.233 -0.1193 -0.1298  0.4076
17997SOL    HW155233   3.801   7.838   5.155  0.3985  0.3634  0.8299
17997SOL    HW255234   3.872   7.737   5.243  0.3239  0.8729  1.4799
17998SOL     OW55235   5.533   2.877   1.317 -0.2470 -0.4188  0.2363
17998SOL    HW155236   5.529   2.973   1.308  0.4974 -0.3978  0.1111
17998SOL    HW255237   5.612   2.852   1.269 -1.7791 -1.3717 -1.8686
17999SOL     OW55238   6.210   5.342   6.344  0.1173  0.0708  0.1290
17999SOL    HW155239   6.163   5.269   6.385  0.9675  1.2340  3.3418
17999SOL    HW255240   6.215   5.409   6.413  1.9770  1.9808 -1.7840
18000SOL     OW55241   3.507   7.483   0.710  0.5741 -0.2843  0.6098
18000SOL    HW155242   3.537   7.561   0.663 -0.1157 -0.7234 -0.5784
18000SOL    HW255243   3.422   7.462   0.670  0.4201 -1.2289  1.4108
18001SOL     OW55244   4.520   4.421   3.282  0.2387  0.7168  0.0649
18001SOL    HW155245   4.547   4.358   3.215 -2.0893  1.5376 -1.6904
18001SOL    HW255246   4.472   4.369   3.347 -1.3144  0.6187 -1.1619
18002SOL     OW55247   4.070   6.842   1.303 -0.1564 -0.4331  0.3067
18002SOL    HW155248   4.101   6.760   1.266 -0.5092 -0.0263 -0.9478
18002SOL    HW255249   4.117   6.852   1.385  1.0900 -1.1025 -0.3150
18003SOL     OW55250   0.321   1.067   1.360  0.1837  0.3024  0.7597
18003SOL    HW155251   0.361   1.148   1.391  0.1158  1.4987 -2.1161
18003SOL    HW255252   0.362   1.051   1.275 -1.9187 -1.0769 -0.0309
18004SOL     OW55253   3.693   1.537   7.955  0.4269  0.1985  0.0864
18004SOL    HW155254   3.620   1.598   7.958  0.2828  0.2775 -3.0532
18004SOL    HW255255   3.663   1.461   8.005 -0.7232  1.2972  1.1017
18005SOL     OW55256   6.895   4.801   0.372 -0.3567  0.4491 -0.5111
18005SOL    HW155257   6.868   4.837   0.456 -0.0404  0.3243 -0.3538
18005SOL    HW255258   6.867   4.866   0.307  0.7330  1.2505 -0.1851
18006SOL     OW55259   3.841   5.500   6.359 -0.5370  0.0281 -0.1155
18006SOL    HW155260   3.746   5.517   6.363 -0.5044  0.2680 -0.3232
18006SOL    HW255261   3.876   5.575   6.310 -0.1452  0.3134  0.5960
18007SOL     OW55262   7.626   5.372   4.551 -0.0673 -0.2681  0.2034
18007SOL    HW155263   7.591   5.461   4.558  0.3455 -0.1314  0.5813
18007SOL    HW255264   7.610   5.333   4.637 -1.0940 -0.8797 -0.2522
18008SOL     OW55265   4.404   7.994   4.564 -0.2032 -0.0626 -0.3671
18008SOL    HW155266   4.358   8.077   4.551 -2.0628 -0.6749  1.9501
18008SOL    HW255267   4.429   7.994   4.656  0.6825 -1.6544 -0.5826
18009SOL     OW55268   1.458   5.426   6.730  0.0385 -0.0987 -0.2752
18009SOL    HW155269   1.438   5.332   6.722 -0.4210 -0.2004  1.9641
18009SOL    HW255270   1.511   5.445   6.652  0.3188 -2.2610 -0.6560
18010SOL     OW55271   5.425   3.612   1.170  0.6720 -0.6450 -0.2563
18010SOL    HW155272   5.470   3.547   1.224  1.3985 -0.3695 -0.5278
18010SOL    HW255273   5.418   3.689   1.226  0.9201 -0.5468 -0.3593
18011SOL     OW55274   2.870   3.122   4.911  0.2315 -0.6608  0.1939
18011SOL    HW155275   2.869   3.115   5.007  2.0240 -0.1388  0.2690
18011SOL    HW255276   2.793   3.175   4.891  0.6209  0.4340  1.4685
18012SOL     OW55277   1.566   7.861   7.480  0.6205 -0.0656  0.1372
18012SOL    HW155278   1.505   7.934   7.482  1.3944  0.5890  0.3039
18012SOL    HW255279   1.630   7.885   7.412  1.2246 -0.2986  0.6208
18013SOL     OW55280   3.802   4.755   2.652  0.4629 -0.0608  0.1256
18013SOL    HW155281   3.709   4.736   2.639  0.4020 -0.0614  0.5683
18013SOL    HW255282   3.824   4.714   2.736  0.8027  0.1504  0.1415
18014SOL     OW55283   8.085   0.579   3.345 -0.0425  0.1432 -0.3523
18014SOL    HW155284   8.120   0.613   3.263 -0.3192 -1.8664 -1.3150
18014SOL    HW255285   8.112   0.487   3.347  1.0115  0.4635  2.3915
18015SOL     OW55286   3.363   3.847   5.427  0.0629 -0.1675 -0.1739
18015SOL    HW155287   3.420   3.918   5.400 -0.0782 -0.7944 -2.2066
18015SOL    HW255288   3.422   3.776   5.452  0.1856  0.1652  0.4962
18016SOL     OW55289   3.533   4.926   1.460  0.4736 -0.2372  0.5035
18016SOL    HW155290   3.473   4.881   1.401  0.5809 -0.1725  0.3423
18016SOL    HW255291   3.547   5.011   1.419 -0.2308  0.1916  1.1321
18017SOL     OW55292   0.954   3.017   7.566  0.1871 -0.3423 -0.2455
18017SOL    HW155293   0.901   3.093   7.541 -0.0473 -0.2339  0.5519
18017SOL    HW255294   0.919   2.991   7.651  0.4967 -1.1345 -0.3537
18018SOL     OW55295   0.746   1.288   3.198 -0.1282 -0.1855 -0.2687
18018SOL    HW155296   0.794   1.303   3.279 -0.3345  3.4037 -0.7355
18018SOL    HW255297   0.660   1.328   3.214  0.0294  1.1039 -2.4035
18019SOL     OW55298   2.377   6.550   7.089 -0.2533 -0.3298 -0.0290
18019SOL    HW155299   2.409   6.569   7.001 -1.3571 -1.3507 -0.6725
18019SOL    HW255300   2.388   6.632   7.137  1.2126 -0.0254 -0.8512
18020SOL     OW55301   0.427   5.359   7.100 -0.4126  0.4902 -0.5254
18020SOL    HW155302   0.349   5.309   7.126 -0.3409  0.8975  0.5242
18020SOL    HW255303   0.393   5.437   7.058 -0.5239 -0.5484 -2.4228
18021SOL     OW55304   6.793   3.108   4.098 -0.2265 -0.1157  0.5586
18021SOL    HW155305   6.787   3.012   4.099  0.4792 -0.1612  1.0074
18021SOL    HW255306   6.813   3.131   4.188  1.4959  0.3163  0.0821
18022SOL     OW55307   2.181   4.493   0.685  0.4465  0.0733 -0.4860
18022SOL    HW155308   2.182   4.579   0.645  0.5804  0.6328  0.6890
18022SOL    HW255309   2.271   4.461   0.677  0.4229  0.0854 -0.8171
18023SOL     OW55310   1.872   5.180   8.064  0.3317  0.0415 -0.1521
18023SOL    HW155311   1.933   5.254   8.068  2.4806 -1.6274 -1.0811
18023SOL    HW255312   1.866   5.149   8.154  1.6766 -0.4223 -0.2128
18024SOL     OW55313   4.250   1.357   5.156  0.3059  0.2013 -0.0228
18024SOL    HW155314   4.291   1.271   5.151  0.1717  0.1875 -1.1783
18024SOL    HW255315   4.321   1.417   5.178  0.7063 -0.0010 -0.7457
18025SOL     OW55316   6.645   7.745   1.760 -0.2008  0.7231  0.0576
18025SOL    HW155317   6.556   7.770   1.735  0.2228  2.0943 -0.1280
18025SOL    HW255318   6.635   7.661   1.805 -1.5102  0.5549 -0.5416
18026SOL     OW55319   7.025   4.025   5.875  0.5756  0.1432 -1.1447
18026SOL    HW155320   7.003   4.110   5.911  1.7855 -0.3286  0.7541
18026SOL    HW255321   7.101   3.995   5.925 -1.2418 -3.0732 -0.1375
18027SOL     OW55322   6.342   8.062   5.224 -0.0383 -0.3126 -0.2760
18027SOL    HW155323   6.352   8.100   5.137 -0.1833  0.8634  0.2146
18027SOL    HW255324   6.313   8.135   5.279 -0.8736 -1.2623  0.5542
18028SOL     OW55325   1.937   1.886   2.921  0.1234  0.4689 -0.2275
18028SOL    HW155326   1.915   1.823   2.853  0.4762  0.0615  0.0365
18028SOL    HW255327   1.852   1.920   2.951 -0.1745 -1.2897  0.9684
18029SOL     OW55328   2.336   5.508   3.263 -0.4971 -0.3099  0.6064
18029SOL    HW155329   2.342   5.589   3.213 -2.6143  1.2336  2.7437
18029SOL    HW255330   2.427   5.481   3.275  0.3156  2.3411  0.7330
18030SOL     OW55331   5.950   3.795   8.208  0.6312 -0.1751 -0.1720
18030SOL    HW155332   6.036   3.797   8.251  0.0684 -2.4502  1.1088
18030SOL    HW255333   5.962   3.736   8.134 -0.2360 -1.7971  0.9585
18031SOL     OW55334   0.181   0.815   7.064  0.5550  0.2709 -0.5074
18031SOL    HW155335   0.169   0.720   7.062  1.2547  0.1830 -0.4757
18031SOL    HW255336   0.162   0.843   6.975  1.9599 -0.0959 -0.9378
18032SOL     OW55337   2.327   3.417   2.404  0.1427 -0.6297  0.1522
18032SOL    HW155338   2.334   3.511   2.390 -0.6661 -0.6005 -0.0778
18032SOL    HW255339   2.352   3.404   2.495  0.6589 -0.2411  0.0658
18033SOL     OW55340   5.942   1.587   1.540  0.1483 -0.1293  0.5668
18033SOL    HW155341   5.924   1.669   1.585  0.5385 -0.4184  1.2589
18033SOL    HW255342   5.863   1.534   1.555 -0.4283  0.3914 -0.5341
18034SOL     OW55343   4.638   7.685   1.769 -0.7938  0.0318 -0.4786
18034SOL    HW155344   4.710   7.652   1.715 -0.9568 -0.5720 -0.3226
18034SOL    HW255345   4.563   7.687   1.710 -1.2497 -1.7135  0.0213
18035SOL     OW55346   5.643   2.990   1.025  0.3411 -0.3592 -0.1707
18035SOL    HW155347   5.645   2.971   1.118 -0.5775 -2.2228 -0.5177
18035SOL    HW255348   5.708   3.060   1.013 -1.4127  1.7682  2.2563
18036SOL     OW55349   8.176   0.934   7.287  0.3733  0.3428 -0.2471
18036SOL    HW155350   8.226   1.002   7.331  0.5573  0.0585 -0.0124
18036SOL    HW255351   8.221   0.852   7.310 -0.6679 -0.0052  0.6620
18037SOL     OW55352   5.445   4.373   0.962  0.2723  0.3516  0.3788
18037SOL    HW155353   5.383   4.300   0.948  0.1106  0.6124 -0.3080
18037SOL    HW255354   5.530   4.331   0.968  0.2672  0.1508 -0.7498
18038SOL     OW55355   2.516   2.151   2.053 -0.5641 -0.8687 -0.5747
18038SOL    HW155356   2.519   2.246   2.043 -3.5216 -1.0405 -3.9672
18038SOL    HW255357   2.468   2.137   2.135  0.4509  0.5473  0.2750
18039SOL     OW55358   0.106   2.808   7.993  0.0480  0.1987 -0.2130
18039SOL    HW155359   0.093   2.832   8.085 -1.3991  2.5428 -0.9854
18039SOL    HW255360   0.069   2.881   7.944  2.0248 -0.3968 -2.6733
18040SOL     OW55361   7.678   0.470   7.466  0.0618  0.3431  0.2005
18040SOL    HW155362   7.644   0.427   7.388 -0.6763  1.5680 -0.1595
18040SOL    HW255363   7.666   0.563   7.450 -0.4584  0.5979  1.9461
18041SOL     OW55364   6.259   0.156   2.457  0.1482 -0.4633  0.4590
18041SOL    HW155365   6.178   0.207   2.446  1.0327  1.0752  1.0928
18041SOL    HW255366   6.228   0.066   2.466 -1.4866  0.0579  0.3334
18042SOL     OW55367   3.467   6.114   6.751 -0.5917  0.0814 -0.6313
18042SOL    HW155368   3.408   6.190   6.745 -0.0835  0.5817  0.5155
18042SOL    HW255369   3.411   6.042   6.780 -0.9514  0.1679 -1.1041
18043SOL     OW55370   7.932   5.852   2.385 -0.0528  0.0486 -0.2389
18043SOL    HW155371   7.894   5.790   2.447  0.1157 -1.5553 -1.6888
18043SOL    HW255372   8.025   5.831   2.383  0.1103  0.7640 -0.2715
18044SOL     OW55373   1.376   3.993   6.321 -0.7846 -0.3641 -0.3928
18044SOL    HW155374   1.469   3.982   6.344 -0.4021 -0.9756 -2.1477
18044SOL    HW255375   1.333   4.008   6.405  0.9514  0.2643  0.4190
18045SOL     OW55376   3.073   7.926   6.209  0.1761 -0.0209  1.0318
18045SOL    HW155377   3.057   7.951   6.300 -1.1331  2.1613  0.2225
18045SOL    HW255378   3.005   7.970   6.159  0.9058 -1.1560 -1.0404
18046SOL     OW55379   1.896   2.661   4.959  0.0568 -0.4627  0.1013
18046SOL    HW155380   1.956   2.733   4.939  1.1221 -1.2170  0.5441
18046SOL    HW255381   1.824   2.702   5.006  0.4410  0.3857 -0.0362
18047SOL     OW55382   6.635   7.166   3.997  0.0923 -0.6244 -0.3509
18047SOL    HW155383   6.670   7.205   4.077 -0.6212 -2.5991  0.9753
18047SOL    HW255384   6.550   7.129   4.024 -1.0461  0.3359 -2.4739
18048SOL     OW55385   3.546   1.777   1.913  0.2676  0.2806  1.0027
18048SOL    HW155386   3.551   1.758   1.820  0.8269 -1.8504  1.4564
18048SOL    HW255387   3.454   1.799   1.928  0.0537  0.0240  0.0821
18049SOL     OW55388   3.309   4.603   7.109 -0.0355  0.0620 -0.0275
18049SOL    HW155389   3.341   4.582   7.022 -0.6681  1.2227 -0.5398
18049SOL    HW255390   3.304   4.698   7.111  0.0802  0.0497  1.3124
18050SOL     OW55391   7.488   2.182   6.196 -0.1233  0.1887 -0.5801
18050SOL    HW155392   7.426   2.255   6.192  0.3612  0.5856 -0.8412
18050SOL    HW255393   7.433   2.106   6.215 -0.6318  0.6182 -0.3018
18051SOL     OW55394   5.263   0.997   2.166  0.0367  0.6487  0.4181
18051SOL    HW155395   5.241   1.065   2.103  1.4028  0.9102  0.2109
18051SOL    HW255396   5.328   0.943   2.121 -2.1029 -1.7014 -0.0036
18052SOL     OW55397   0.361   4.735   5.582 -0.4598 -0.1010 -0.5537
18052SOL    HW155398   0.448   4.695   5.572 -0.9400 -1.0925 -0.7856
18052SOL    HW255399   0.315   4.677   5.642 -1.3716 -0.2370 -1.3808
18053SOL     OW55400   1.221   7.004   3.146  0.0305  0.2543  0.5641
18053SOL    HW155401   1.236   6.955   3.227 -0.7594  0.6595  0.9716
18053SOL    HW255402   1.210   6.937   3.079 -0.6429 -0.1256  1.0442
18054SOL     OW55403   2.198   0.136   7.182 -0.5005 -0.3865  0.2555
18054SOL    HW155404   2.155   0.080   7.117 -0.5008  0.7484 -0.7428
18054SOL    HW255405   2.210   0.220   7.137 -1.4273  0.7419  2.0637
18055SOL     OW55406   0.263   2.694   5.442  0.4528  0.2693 -0.6435
18055SOL    HW155407   0.232   2.654   5.523 -0.2539  1.1806 -0.4615
18055SOL    HW255408   0.358   2.680   5.443  0.3278 -0.5423 -0.1154
18056SOL     OW55409   4.235   2.521   5.840 -0.9665  0.0671  0.0185
18056SOL    HW155410   4.245   2.570   5.921  1.7039 -1.3165  0.5948
18056SOL    HW255411   4.240   2.586   5.771  0.3314  0.8716  0.8494
18057SOL     OW55412   2.669   7.752   5.795  0.3091 -0.1386  0.6196
18057SOL    HW155413   2.709   7.838   5.780  0.9692 -0.3950  0.8686
18057SOL    HW255414   2.697   7.700   5.720  0.2105 -0.2419  0.6547
18058SOL     OW55415   2.875   1.489   7.742  0.0102 -0.1664  0.1300
18058SOL    HW155416   2.820   1.495   7.820 -2.2144 -1.6904 -1.2609
18058SOL    HW255417   2.908   1.578   7.730 -4.5747  1.5873 -0.6476
18059SOL     OW55418   6.457   4.170   2.077 -0.1248 -0.1410 -0.4092
18059SOL    HW155419   6.519   4.154   2.005  2.5651 -1.3201  2.0364
18059SOL    HW255420   6.430   4.083   2.105 -2.1059  0.3462 -0.7375
18060SOL     OW55421   2.995   5.510   6.578  0.0185  0.3216  0.0494
18060SOL    HW155422   3.049   5.454   6.523 -2.0237 -0.5416 -1.1252
18060SOL    HW255423   2.963   5.578   6.519 -2.8959 -1.0963 -0.1099
18061SOL     OW55424   0.146   2.609   4.462  0.0989  0.2144 -0.6661
18061SOL    HW155425   0.092   2.601   4.541  0.1546 -1.4822 -0.7816
18061SOL    HW255426   0.139   2.523   4.419  0.5954  0.9043 -2.1652
18062SOL     OW55427   1.794   2.686   7.072  0.0808  0.5603 -0.4853
18062SOL    HW155428   1.878   2.658   7.107 -0.1330 -0.6353 -0.9391
18062SOL    HW255429   1.729   2.637   7.124 -0.3270  1.1049 -0.4719
18063SOL     OW55430   4.902   5.034   4.543  0.1583 -0.2657 -0.0504
18063SOL    HW155431   4.994   5.011   4.560 -0.0867  0.2910  2.1890
18063SOL    HW255432   4.906   5.123   4.509  0.3650  0.2739  1.3624
18064SOL     OW55433   2.486   0.601   6.422  0.3760  0.1696  0.4731
18064SOL    HW155434   2.579   0.585   6.442  0.2387 -1.1344  0.1268
18064SOL    HW255435   2.446   0.514   6.429 -0.4036  0.3615 -1.5894
18065SOL     OW55436   2.552   8.127   5.617 -0.5600  0.3121 -0.5675
18065SOL    HW155437   2.575   8.124   5.524  0.0060 -0.1262 -0.4174
18065SOL    HW255438   2.636   8.139   5.662 -0.8534  0.7069 -0.1241
18066SOL     OW55439   8.025   7.046   1.428 -0.4121  0.1532 -0.2244
18066SOL    HW155440   8.094   6.981   1.437  0.4148  1.1031  0.3592
18066SOL    HW255441   7.946   7.002   1.461  0.3347 -0.2357  1.0766
18067SOL     OW55442   3.177   3.615   4.092 -0.0534 -0.3804 -0.0947
18067SOL    HW155443   3.228   3.664   4.026 -0.3342 -0.8397 -0.6597
18067SOL    HW255444   3.093   3.598   4.049  0.1573 -1.6243 -0.0153
18068SOL     OW55445   7.444   1.478   2.545  0.0011  0.1468 -0.1214
18068SOL    HW155446   7.439   1.556   2.601 -1.5412  0.3047 -0.4595
18068SOL    HW255447   7.367   1.484   2.488  1.7182  0.1467 -2.4914
18069SOL     OW55448   6.284   0.742   7.100  0.3339  0.3886 -0.2685
18069SOL    HW155449   6.343   0.738   7.175  0.0879 -0.1600 -0.1028
18069SOL    HW255450   6.203   0.778   7.135  0.5111  0.9815 -0.4603
18070SOL     OW55451   8.030   3.642   0.493 -0.2862  0.2541 -0.0212
18070SOL    HW155452   8.104   3.586   0.471  0.6206  1.5989 -0.4913
18070SOL    HW255453   7.993   3.668   0.409 -0.8695  0.1319  0.1953
18071SOL     OW55454   0.097   4.544   5.144  0.5810 -0.6926  0.0159
18071SOL    HW155455   0.183   4.556   5.105 -0.3684  1.5297 -1.5178
18071SOL    HW255456   0.107   4.574   5.234  0.7787  2.2483 -0.9360
18072SOL     OW55457   4.504   2.831   5.719 -0.5745 -0.0341  0.2642
18072SOL    HW155458   4.456   2.815   5.638 -0.2052  0.0276  0.0303
18072SOL    HW255459   4.438   2.858   5.783 -0.8682 -0.1146 -0.0097
18073SOL     OW55460   3.933   6.281   6.670 -0.2864 -0.3547  0.5596
18073SOL    HW155461   3.851   6.295   6.718 -1.2178 -0.3014 -1.0007
18073SOL    HW255462   3.948   6.363   6.625  0.0475 -0.7364 -0.0263
18074SOL     OW55463   5.832   4.093   4.230  0.3582 -0.0928 -0.2840
18074SOL    HW155464   5.914   4.141   4.240 -0.5610  1.4084  0.0522
18074SOL    HW255465   5.779   4.146   4.171 -0.0320 -1.5154 -1.2487
18075SOL     OW55466   2.528   3.816   0.853 -0.7072 -0.6826 -0.7003
18075SOL    HW155467   2.521   3.737   0.799  1.6040 -1.2798 -0.1974
18075SOL    HW255468   2.532   3.887   0.789 -0.4612 -1.1707 -1.2385
18076SOL     OW55469   7.210   1.017   0.515  0.4748  0.4875 -0.2899
18076SOL    HW155470   7.234   1.102   0.553 -1.1276  0.7967  0.0650
18076SOL    HW255471   7.215   1.031   0.420  0.9192  0.7647 -0.2272
18077SOL     OW55472   0.032   3.863   2.481 -0.1956 -0.8914 -0.0298
18077SOL    HW155473   0.059   3.810   2.556 -0.0644 -2.2276 -0.9872
18077SOL    HW255474   0.086   3.830   2.408  1.4945  2.0805 -0.2072
18078SOL     OW55475   8.076   3.058   1.502 -0.7734 -0.0601  0.0811
18078SOL    HW155476   7.988   3.089   1.522  0.1587  2.7078  0.0775
18078SOL    HW255477   8.132   3.097   1.569  0.5570 -1.1424 -0.3627
18079SOL     OW55478   6.218   7.212   7.560 -0.7006  0.5817  0.1770
18079SOL    HW155479   6.144   7.176   7.609 -0.5719 -1.2444 -0.8998
18079SOL    HW255480   6.195   7.196   7.468  0.8374  0.3852 -0.1790
18080SOL     OW55481   6.476   4.604   5.861  0.1425  0.1174  0.1688
18080SOL    HW155482   6.484   4.666   5.934 -0.5708 -1.0017  1.2035
18080SOL    HW255483   6.537   4.638   5.795 -0.5371  2.1727  0.5364
18081SOL     OW55484   0.527   2.430   5.758 -0.0627 -0.0896  0.1922
18081SOL    HW155485   0.587   2.388   5.820 -1.1844  0.1484  1.4559
18081SOL    HW255486   0.473   2.359   5.723 -0.8490  0.0574  1.0888
18082SOL     OW55487   2.520   7.465   5.750 -0.5010 -0.1128  0.5865
18082SOL    HW155488   2.492   7.393   5.693  1.6981 -0.7366  0.2405
18082SOL    HW255489   2.488   7.544   5.706  1.4290 -0.5687 -1.7245
18083SOL     OW55490   2.911   5.878   2.533 -0.1750 -0.1564 -0.2172
18083SOL    HW155491   2.958   5.795   2.539 -1.1261 -0.5546  2.9254
18083SOL    HW255492   2.980   5.944   2.524  0.7610 -1.0625  0.2384
18084SOL     OW55493   3.196   0.917   5.879  0.0724  0.5273  0.0228
18084SOL    HW155494   3.278   0.936   5.833  1.6179 -2.8358  1.2368
18084SOL    HW255495   3.208   0.954   5.966 -0.8126  2.3410 -0.5845
18085SOL     OW55496   7.632   2.384   6.935 -0.5860  0.3476 -0.2963
18085SOL    HW155497   7.601   2.346   6.853 -0.2143 -0.5764 -0.0162
18085SOL    HW255498   7.582   2.465   6.945 -0.6140  0.4721 -1.4413
18086SOL     OW55499   6.697   7.777   6.519  0.1767  0.0619 -0.4891
18086SOL    HW155500   6.697   7.872   6.505 -0.9555  0.3122  1.0204
18086SOL    HW255501   6.606   7.751   6.503  0.2104 -0.5771  0.3616
18087SOL     OW55502   4.657   0.100   1.222  0.0855 -0.3375  0.0433
18087SOL    HW155503   4.690   0.072   1.308  4.1107  0.4987 -1.1259
18087SOL    HW255504   4.613   0.023   1.187  0.7035 -1.5013  1.7665
18088SOL     OW55505   1.105   1.994   5.727 -0.4021 -0.0205  0.2739
18088SOL    HW155506   1.107   1.898   5.732 -1.2550  0.0061  1.4873
18088SOL    HW255507   1.081   2.013   5.637 -1.3968 -0.9849  0.3185
18089SOL     OW55508   2.982   6.867   3.896  0.2417 -0.1460 -0.7995
18089SOL    HW155509   2.932   6.815   3.959 -0.3446 -0.7464 -1.7396
18089SOL    HW255510   2.939   6.952   3.895  0.3028 -0.1114 -0.3265
18090SOL     OW55511   1.271   3.605   2.868  0.2226  0.4898  0.1215
18090SOL    HW155512   1.300   3.526   2.822  0.0747  0.0738  0.7364
18090SOL    HW255513   1.180   3.587   2.892 -0.0423  1.1378 -0.3675
18091SOL     OW55514   6.521   2.101   1.530  0.3596  0.0004 -0.4611
18091SOL    HW155515   6.502   2.194   1.522 -0.5086 -0.2973 -2.2658
18091SOL    HW255516   6.615   2.095   1.514  0.5484  0.6480  0.4061
18092SOL     OW55517   0.239   2.308   7.389  0.1496 -0.2546 -0.0870
18092SOL    HW155518   0.323   2.319   7.345  2.0112 -1.7216  2.9525
18092SOL    HW255519   0.224   2.391   7.434  0.1075 -0.1084 -0.3671
18093SOL     OW55520   1.057   4.319   6.829 -0.9083 -0.2152 -0.8356
18093SOL    HW155521   1.050   4.375   6.751 -0.3230  0.0195 -0.7264
18093SOL    HW255522   1.025   4.374   6.901  0.7105  0.3874 -0.5496
18094SOL     OW55523   5.935   4.859   2.085  0.4754  0.2634  0.3851
18094SOL    HW155524   5.869   4.857   2.015 -0.1413 -1.0035  0.9823
18094SOL    HW255525   5.973   4.770   2.084  0.2277  0.1362  1.8782
18095SOL     OW55526   5.304   6.913   3.639 -0.2767 -0.4398 -0.1557
18095SOL    HW155527   5.365   6.963   3.584  1.0160 -1.6577  0.1450
18095SOL    HW255528   5.219   6.951   3.620  0.5363  1.1294 -0.7870
18096SOL     OW55529   0.793   0.888   6.275  0.5711 -0.6934  0.1364
18096SOL    HW155530   0.759   0.903   6.186  0.9597  1.5618  0.3375
18096SOL    HW255531   0.727   0.926   6.332  0.4868 -1.8520  0.8196
18097SOL     OW55532   7.253   7.975   6.225 -0.1061 -0.1112  0.4196
18097SOL    HW155533   7.335   8.022   6.210  0.4113 -1.2568 -0.3373
18097SOL    HW255534   7.186   8.043   6.219  0.7460  0.7662  0.6421
18098SOL     OW55535   0.271   7.891   3.040 -1.1647  0.3271 -0.3546
18098SOL    HW155536   0.319   7.829   3.095 -0.1989  0.9497 -0.4764
18098SOL    HW255537   0.337   7.925   2.980 -1.7798  1.1549 -0.5705
18099SOL     OW55538   3.956   3.358   7.925  0.4639  0.6888  0.6655
18099SOL    HW155539   4.008   3.433   7.955 -0.4944  1.1151  1.3244
18099SOL    HW255540   3.985   3.285   7.980  1.5343  0.5191 -0.1060
18100SOL     OW55541   1.485   4.538   2.002 -0.3290 -0.1893  0.4897
18100SOL    HW155542   1.424   4.540   1.929  1.0985 -0.2897 -0.7168
18100SOL    HW255543   1.534   4.620   1.995  0.7538 -0.8343  0.5228
18101SOL     OW55544   1.247   5.104   5.735  0.7691 -0.5349 -0.5489
18101SOL    HW155545   1.197   5.088   5.655  1.1326 -0.0596 -0.8748
18101SOL    HW255546   1.317   5.040   5.733 -0.6638 -2.1728  0.6387
18102SOL     OW55547   2.316   1.251   1.974  0.0630 -0.2100 -0.5833
18102SOL    HW155548   2.286   1.312   1.907  0.0020  0.3314 -0.0640
18102SOL    HW255549   2.393   1.209   1.935 -0.3542 -0.3579 -1.2404
18103SOL     OW55550   2.481   1.657   1.331 -0.2001  0.2020 -0.9008
18103SOL    HW155551   2.526   1.740   1.313 -0.9821  0.4702 -1.6925
18103SOL    HW255552   2.546   1.590   1.316  1.2924  0.7652  2.5032
18104SOL     OW55553   3.315   2.937   4.780  0.4466 -0.2591 -0.5922
18104SOL    HW155554   3.344   2.869   4.720  1.2486 -2.1995  1.9257
18104SOL    HW255555   3.394   2.961   4.829 -0.1168  1.5389 -0.5234
18105SOL     OW55556   1.798   2.260   8.113  0.1605 -0.2113 -0.6600
18105SOL    HW155557   1.875   2.308   8.083 -1.3334  1.5712 -1.7642
18105SOL    HW255558   1.724   2.318   8.094 -1.3517 -1.3337  1.5542
18106SOL     OW55559   2.684   5.413   0.020 -0.5994  0.3232  0.2092
18106SOL    HW155560   2.602   5.417  -0.030 -1.3690 -0.0017  1.4148
18106SOL    HW255561   2.658   5.379   0.106  0.9021 -0.3749  0.4051
18107SOL     OW55562   6.626   8.262   0.422 -0.3382  0.2397 -0.2332
18107SOL    HW155563   6.652   8.183   0.373  0.9173  0.6649 -0.2715
18107SOL    HW255564   6.536   8.279   0.392 -0.7998 -1.4299  0.1211
18108SOL     OW55565   6.457   1.289   1.104 -0.2874  0.3227 -0.0058
18108SOL    HW155566   6.425   1.220   1.163  2.5380  0.2883  1.5879
18108SOL    HW255567   6.452   1.369   1.156  0.6739  0.5639 -0.2740
18109SOL     OW55568   3.611   6.604   6.273  0.2969 -0.0588 -0.1687
18109SOL    HW155569   3.656   6.685   6.296  1.1015 -0.8093  0.9516
18109SOL    HW255570   3.519   6.620   6.296  0.4795  0.4909  0.1802
18110SOL     OW55571   6.628   8.043   4.900 -0.1681 -0.2748  0.3104
18110SOL    HW155572   6.710   8.022   4.856 -0.0617 -2.1644  1.3417
18110SOL    HW255573   6.654   8.064   4.990 -0.4438  2.9193 -0.3077
18111SOL     OW55574   3.297   5.638   1.618  0.8457  0.3351  0.4421
18111SOL    HW155575   3.268   5.729   1.612  1.4099  0.5041  0.2181
18111SOL    HW255576   3.376   5.635   1.564  0.6705 -0.3557  0.2157
18112SOL     OW55577   4.049   2.536   6.528  0.3257 -0.0650  0.2253
18112SOL    HW155578   4.038   2.514   6.621  0.3516  2.3654  0.8239
18112SOL    HW255579   3.979   2.487   6.484  0.1422 -1.0224  1.5389
18113SOL     OW55580   2.502   6.013   8.086 -0.3922  0.7674  0.7935
18113SOL    HW155581   2.488   5.961   8.166 -0.7190 -0.5399 -0.0958
18113SOL    HW255582   2.582   5.977   8.048 -0.5574  0.9973  0.2261
18114SOL     OW55583   7.703   6.674   3.221  0.5182 -0.5304  0.5380
18114SOL    HW155584   7.650   6.749   3.249  0.6844 -0.4499  0.6377
18114SOL    HW255585   7.642   6.600   3.220 -0.0362 -0.0839 -1.1166
18115SOL     OW55586   1.365   7.049   5.891  0.4880 -0.0550  0.4203
18115SOL    HW155587   1.309   7.047   5.969 -2.1480 -0.1988 -1.4312
18115SOL    HW255588   1.307   7.025   5.819  2.9762 -0.2941 -1.5623
18116SOL     OW55589   6.460   4.228   5.947  0.6695 -0.5026  0.3943
18116SOL    HW155590   6.521   4.301   5.962  2.0715 -1.5985  0.0987
18116SOL    HW255591   6.392   4.266   5.891  1.6835  0.4383 -0.2366
18117SOL     OW55592   8.072   5.983   0.502  0.4516  0.3587  0.0181
18117SOL    HW155593   8.131   5.979   0.427  0.6121  0.2955  0.1484
18117SOL    HW255594   8.101   6.060   0.552  2.0931 -1.1520  1.4719
18118SOL     OW55595   0.413   5.533   3.691  0.0755  0.4368 -0.5155
18118SOL    HW155596   0.382   5.476   3.762 -0.8317  0.0936 -1.1793
18118SOL    HW255597   0.381   5.620   3.715  0.0589  0.3831 -0.3380
18119SOL     OW55598   4.086   6.153   0.650 -0.3882 -0.1808 -0.2745
18119SOL    HW155599   4.049   6.190   0.570 -0.0130  0.2884 -0.2339
18119SOL    HW255600   4.040   6.070   0.662 -0.0622 -0.5113 -1.2781
18120SOL     OW55601   8.287   6.939   3.058  0.4049 -0.2079  0.9929
18120SOL    HW155602   8.361   6.879   3.056  1.4307  1.0068  1.6846
18120SOL    HW255603   8.262   6.950   2.966  1.2736 -0.3940  0.7329
18121SOL     OW55604   6.442   1.454   2.667 -0.6551 -0.2850 -0.0065
18121SOL    HW155605   6.415   1.451   2.759 -1.1970  1.8961 -0.0609
18121SOL    HW255606   6.534   1.477   2.670 -0.7795  0.2270 -0.0035
18122SOL     OW55607   0.347   4.675   6.799 -0.0767 -0.0454 -0.0629
18122SOL    HW155608   0.350   4.609   6.867  0.5935 -0.5899 -0.6057
18122SOL    HW255609   0.421   4.654   6.741  1.2599  2.2257  0.7284
18123SOL     OW55610   2.833   3.354   8.053 -0.4115  0.4410 -0.2248
18123SOL    HW155611   2.793   3.328   8.135  1.1602 -0.0184  0.4110
18123SOL    HW255612   2.907   3.409   8.078  0.3486 -0.0639 -1.3051
18124SOL     OW55613   1.951   6.274   3.646  0.4816  0.1315  0.1345
18124SOL    HW155614   1.909   6.321   3.718  0.3546 -0.9223  0.7582
18124SOL    HW255615   2.002   6.341   3.601  1.1117  0.6796  1.6148
18125SOL     OW55616   5.785   7.884   1.243 -0.4352 -0.0725 -0.0474
18125SOL    HW155617   5.708   7.874   1.299  0.6623 -0.6505  1.4091
18125SOL    HW255618   5.859   7.865   1.301  0.7767 -0.0136 -1.5418
18126SOL     OW55619   6.233   5.597   2.303 -0.0499  0.4076 -0.4882
18126SOL    HW155620   6.199   5.588   2.214  2.6702  0.0879 -1.5349
18126SOL    HW255621   6.255   5.690   2.311  2.3777 -0.0582 -1.2120
18127SOL     OW55622   7.292   1.077   6.291 -0.6914 -0.3540 -0.1299
18127SOL    HW155623   7.337   1.071   6.207  0.7908 -1.4830  0.7338
18127SOL    HW255624   7.351   1.127   6.348 -0.1817 -2.4441  1.2169
18128SOL     OW55625   1.799   6.261   1.338  0.6545 -0.0235  0.1463
18128SOL    HW155626   1.711   6.224   1.335  1.6957 -2.5361 -1.8652
18128SOL    HW255627   1.808   6.308   1.256  0.8844  0.9641  0.7375
18129SOL     OW55628   6.819   4.292   3.827 -0.3789  0.1712  0.0595
18129SOL    HW155629   6.836   4.382   3.856  1.1837  0.6677 -2.3113
18129SOL    HW255630   6.780   4.302   3.741  0.1836 -1.4470 -0.3883
18130SOL     OW55631   3.869   6.295   6.012  0.3436 -0.0883 -0.0063
18130SOL    HW155632   3.794   6.262   5.963 -0.2634  0.5286  0.4940
18130SOL    HW255633   3.893   6.222   6.070 -0.5828  0.1138  0.6374
18131SOL     OW55634   0.385   2.233   8.119 -0.3695 -0.3321 -0.4573
18131SOL    HW155635   0.428   2.199   8.198  1.2067  0.1919 -1.0751
18131SOL    HW255636   0.291   2.224   8.137 -0.0167 -0.7936  1.2206
18132SOL     OW55637   7.171   3.476   6.469 -0.5941  0.1389 -1.0716
18132SOL    HW155638   7.129   3.391   6.482 -1.2427  0.6918  0.5113
18132SOL    HW255639   7.262   3.463   6.498 -0.4691 -0.2329 -1.6212
18133SOL     OW55640   4.115   7.731   0.817  0.9983  0.2223  0.0773
18133SOL    HW155641   4.054   7.680   0.870 -0.4855  0.2833 -1.5052
18133SOL    HW255642   4.190   7.673   0.804  0.6792 -0.3820  0.9157
18134SOL     OW55643   2.374   0.582   1.571  0.0678 -0.3998  0.3905
18134SOL    HW155644   2.445   0.642   1.591 -0.4121 -0.5458  2.6825
18134SOL    HW255645   2.381   0.513   1.637 -1.2218 -1.2500 -0.3304
18135SOL     OW55646   1.797   0.187   3.055  0.3020 -0.6790 -0.1772
18135SOL    HW155647   1.842   0.131   2.992  0.0299 -0.0384 -0.9510
18135SOL    HW255648   1.733   0.130   3.097  0.0801 -0.9689 -0.9052
18136SOL     OW55649   1.853   0.717   1.875 -0.1512  0.6284  0.0380
18136SOL    HW155650   1.896   0.716   1.790 -0.2896  0.4865 -0.0293
18136SOL    HW255651   1.829   0.626   1.891  0.9818  0.4447  0.7920
18137SOL     OW55652   3.267   2.990   0.851 -0.5911 -0.5560  0.0059
18137SOL    HW155653   3.293   2.922   0.789 -1.6283  0.9536 -2.1299
18137SOL    HW255654   3.350   3.027   0.881 -0.0719 -1.2266 -0.5667
18138SOL     OW55655   6.236   4.528   7.770 -0.5954  0.1875 -0.4893
18138SOL    HW155656   6.215   4.533   7.864  0.9641  0.3590 -0.1381
18138SOL    HW255657   6.332   4.530   7.767 -0.6685  1.3841 -2.1728
18139SOL     OW55658   3.620   0.629   6.923 -0.1917 -0.0839 -0.2504
18139SOL    HW155659   3.691   0.653   6.864 -0.0940  0.5775  0.1237
18139SOL    HW255660   3.588   0.545   6.890  0.4553 -0.1574 -0.6965
18140SOL     OW55661   2.790   1.107   3.548 -0.2666 -0.2019 -0.0817
18140SOL    HW155662   2.712   1.159   3.529 -0.8177 -0.6604  0.8749
18140SOL    HW255663   2.773   1.022   3.506 -1.2235 -1.0122  1.8350
18141SOL     OW55664   0.224   8.033   7.949  0.0926 -0.3597  0.0822
18141SOL    HW155665   0.178   8.046   8.032  0.6795  1.4901  0.1236
18141SOL    HW255666   0.316   8.023   7.973  0.1821 -0.4757 -0.2945
18142SOL     OW55667   2.468   7.606   0.970 -0.3121  0.4558  0.5050
18142SOL    HW155668   2.372   7.606   0.969 -0.3133 -0.6879  0.3938
18142SOL    HW255669   2.491   7.699   0.964 -1.3959  0.6190 -2.2136
18143SOL     OW55670   5.726   4.311   0.930  0.4493 -0.0882 -0.3986
18143SOL    HW155671   5.813   4.286   0.960  0.2012  1.0792  1.3817
18143SOL    HW255672   5.734   4.404   0.907 -1.2654  1.1771  3.7369
18144SOL     OW55673   8.017   0.249   0.142 -0.2399 -0.4324 -0.0906
18144SOL    HW155674   8.086   0.183   0.139  1.2129  0.8667  2.6151
18144SOL    HW255675   7.985   0.245   0.233 -1.8367  0.8769 -0.5776
18145SOL     OW55676   2.550   2.730   4.547 -0.5521  0.2469  0.1374
18145SOL    HW155677   2.552   2.819   4.581  0.1720 -0.1684  1.2043
18145SOL    HW255678   2.541   2.675   4.625 -1.4702 -0.5931 -0.5440
18146SOL     OW55679   4.287   2.125   2.123  0.2084  0.3250  0.1087
18146SOL    HW155680   4.340   2.101   2.048  0.3453 -0.6944  0.5225
18146SOL    HW255681   4.214   2.174   2.086  1.0126  1.0349 -0.5405
18147SOL     OW55682   8.167   3.544   1.076  0.1128 -0.0278 -1.0881
18147SOL    HW155683   8.204   3.632   1.071 -0.1273  0.0945 -0.7134
18147SOL    HW255684   8.210   3.503   1.151 -1.6663  0.6642  0.3282
18148SOL     OW55685   6.337   1.159   2.180 -0.1805  0.0017  0.1692
18148SOL    HW155686   6.321   1.178   2.088 -1.7322 -1.1158  0.1849
18148SOL    HW255687   6.347   1.245   2.221 -0.3842  0.5319 -0.8707
18149SOL     OW55688   5.395   7.609   6.220 -0.3731  0.9301 -0.0857
18149SOL    HW155689   5.470   7.590   6.164 -0.2980 -0.0570  0.3464
18149SOL    HW255690   5.365   7.524   6.251  0.1287  1.5151  2.0842
18150SOL     OW55691   6.151   1.414   1.178 -0.0592  0.1941  0.0734
18150SOL    HW155692   6.112   1.488   1.224 -0.4391  0.4076 -0.5788
18150SOL    HW255693   6.134   1.339   1.235  0.2250  0.5886  0.6819
18151SOL     OW55694   4.609   0.446   8.213 -0.5877 -0.6113 -0.2846
18151SOL    HW155695   4.582   0.439   8.122  0.6621 -0.5700 -0.6646
18151SOL    HW255696   4.566   0.372   8.257  0.6820 -2.0201 -1.3644
18152SOL     OW55697   1.392   2.582   7.844 -0.4041  0.2842  0.4113
18152SOL    HW155698   1.370   2.489   7.852 -0.7125  0.0107 -2.9491
18152SOL    HW255699   1.485   2.583   7.821 -0.9630  0.6585 -1.9367
18153SOL     OW55700   5.432   5.206   2.095 -0.2426 -1.0085 -0.3114
18153SOL    HW155701   5.413   5.202   2.002  0.9087 -1.7726 -0.5234
18153SOL    HW255702   5.391   5.127   2.131  0.0770 -1.1748 -0.3118
18154SOL     OW55703   8.115   1.320   5.247 -0.2001  0.2355  0.1293
18154SOL    HW155704   8.124   1.406   5.206  0.0757  0.5439  0.8420
18154SOL    HW255705   8.084   1.338   5.335  1.3713 -0.2972  0.8101
18155SOL     OW55706   5.094   2.228   2.739  0.3260 -0.6784  0.1756
18155SOL    HW155707   5.078   2.291   2.810 -0.2710 -0.6179 -0.0170
18155SOL    HW255708   5.138   2.280   2.671  0.2736 -0.5805  0.2163
18156SOL     OW55709   5.096   4.705   3.561  0.0762  0.2703 -0.2943
18156SOL    HW155710   5.187   4.728   3.578  0.0603  0.6456 -0.7096
18156SOL    HW255711   5.071   4.758   3.485 -0.2787 -0.3336 -0.6059
18157SOL     OW55712   1.408   1.793   0.611 -0.1534  0.3006 -1.0989
18157SOL    HW155713   1.384   1.873   0.565  0.5353  0.8472 -0.5171
18157SOL    HW255714   1.488   1.815   0.659 -1.0150 -0.1430  0.6010
18158SOL     OW55715   6.518   6.329   4.496 -0.1968  0.1681 -0.4557
18158SOL    HW155716   6.429   6.341   4.463  0.0114 -1.3787 -1.6437
18158SOL    HW255717   6.529   6.234   4.498  1.4525  0.3624 -0.3998
18159SOL     OW55718   2.258   5.068   5.730 -0.6569  0.1817 -0.5155
18159SOL    HW155719   2.249   4.991   5.674 -1.3953 -0.5376  0.5826
18159SOL    HW255720   2.346   5.062   5.767 -0.8125 -0.2663 -0.2231
18160SOL     OW55721   5.198   0.860   4.769 -0.7808 -0.1194 -0.0277
18160SOL    HW155722   5.259   0.850   4.842 -1.0575 -1.2758  0.0473
18160SOL    HW255723   5.113   0.878   4.809 -0.3479  2.4391 -0.1498
18161SOL     OW55724   4.921   8.219   7.590  0.3397 -0.2436 -0.2402
18161SOL    HW155725   5.014   8.202   7.576  0.4933  1.0341 -0.7898
18161SOL    HW255726   4.910   8.217   7.685  0.8383 -0.8599 -0.1945
18162SOL     OW55727   6.334   0.836   3.952  0.0269  0.0817 -0.3478
18162SOL    HW155728   6.292   0.809   3.870  0.3937  0.7165 -0.7581
18162SOL    HW255729   6.353   0.929   3.939 -1.8036  0.7147  1.2789
18163SOL     OW55730   1.170   2.493   1.944  0.2021  0.2861  0.8615
18163SOL    HW155731   1.200   2.583   1.934  0.4305  0.1829  0.6161
18163SOL    HW255732   1.246   2.440   1.922 -0.3868  0.0006 -0.5516
18164SOL     OW55733   2.659   2.431   2.928  0.3821 -0.3410 -0.2025
18164SOL    HW155734   2.676   2.418   3.021 -1.0068 -0.0163  0.1151
18164SOL    HW255735   2.573   2.390   2.914  0.1629  0.4249 -1.1350
18165SOL     OW55736   7.457   3.936   1.732 -0.0580 -0.3182  0.1219
18165SOL    HW155737   7.539   3.967   1.695  0.0190  1.4398  1.6335
18165SOL    HW255738   7.480   3.858   1.783  0.8536  0.6587  1.2428
18166SOL     OW55739   3.753   2.722   1.265  0.2268  0.4032 -0.0936
18166SOL    HW155740   3.808   2.692   1.338 -0.4308 -0.5968  0.0026
18166SOL    HW255741   3.775   2.814   1.255 -0.6209  0.9112  2.2575
18167SOL     OW55742   6.347   6.756   2.134 -0.3279 -0.2770  0.3823
18167SOL    HW155743   6.435   6.773   2.168  0.0274 -0.2014 -0.5686
18167SOL    HW255744   6.339   6.815   2.059 -0.0778 -2.3908 -1.3610
18168SOL     OW55745   2.098   4.954   1.468  0.9107 -0.2200 -0.5865
18168SOL    HW155746   2.063   4.876   1.512  1.8597 -0.8573 -0.9476
18168SOL    HW255747   2.192   4.938   1.464  1.1309  1.0393 -0.4973
18169SOL     OW55748   4.584   0.673   4.731  0.0064  0.0910  0.5327
18169SOL    HW155749   4.637   0.751   4.750 -0.5175  0.6624 -0.3088
18169SOL    HW255750   4.548   0.690   4.644 -1.0829 -0.5514  0.8565
18170SOL     OW55751   3.710   3.230   4.975 -0.1431  0.3853 -0.3190
18170SOL    HW155752   3.703   3.278   4.893  0.1820  0.5580 -0.2462
18170SOL    HW255753   3.774   3.280   5.027  1.2750 -0.9077 -0.7955
18171SOL     OW55754   2.202   8.094   0.545  0.2169 -0.1850 -0.1388
18171SOL    HW155755   2.252   8.102   0.464  0.7815 -0.4544  0.1810
18171SOL    HW255756   2.246   8.153   0.607  0.6328 -1.0348  0.3832
18172SOL     OW55757   6.089   4.510   5.721 -0.1137  0.0133 -0.2540
18172SOL    HW155758   6.047   4.465   5.647  2.5455 -3.9643  0.5192
18172SOL    HW255759   6.027   4.499   5.793  0.0880 -1.7420 -0.3125
18173SOL     OW55760   5.303   0.507   6.878  0.6491 -0.9328 -0.2980
18173SOL    HW155761   5.256   0.478   6.800  1.0070  1.6060 -1.5068
18173SOL    HW255762   5.389   0.534   6.846  0.5191  0.8980  0.8183
18174SOL     OW55763   1.326   4.826   4.718  0.1545 -0.0337 -0.1593
18174SOL    HW155764   1.291   4.912   4.741  0.6666  0.1920 -0.2257
18174SOL    HW255765   1.248   4.770   4.711 -0.1132  0.1918  0.8515
18175SOL     OW55766   5.506   0.595   6.615 -0.4650  0.1409 -0.6955
18175SOL    HW155767   5.539   0.563   6.699  1.3188 -0.0236 -1.4301
18175SOL    HW255768   5.500   0.690   6.627  1.8742  0.3632 -1.0539
18176SOL     OW55769   6.901   3.506   6.036  0.1351 -0.1936 -0.0160
18176SOL    HW155770   6.825   3.470   6.082  1.7925 -2.3018  1.1181
18176SOL    HW255771   6.953   3.547   6.105  1.6798 -1.6923 -0.2669
18177SOL     OW55772   7.302   5.780   6.341  0.2789  0.0248 -0.3473
18177SOL    HW155773   7.385   5.738   6.323 -0.0716 -0.8733  0.1407
18177SOL    HW255774   7.264   5.731   6.414 -0.5792  0.5533 -0.4230
18178SOL     OW55775   5.371   8.249   7.795  0.0437 -0.6897  0.6355
18178SOL    HW155776   5.359   8.339   7.765  1.9905 -0.4957  0.3541
18178SOL    HW255777   5.284   8.220   7.821 -0.7927  0.8815 -0.3729
18179SOL     OW55778   6.182   7.724   1.924 -0.0310  0.1589 -0.0510
18179SOL    HW155779   6.231   7.805   1.939 -0.1809  0.6977 -2.2423
18179SOL    HW255780   6.127   7.714   2.002  0.9638  1.4469  0.8407
18180SOL     OW55781   4.340   6.675   4.634 -0.9249 -0.1923 -0.2403
18180SOL    HW155782   4.267   6.736   4.622 -0.8867 -0.1420 -0.2128
18180SOL    HW255783   4.340   6.655   4.728  0.0301  0.9720  0.0184
18181SOL     OW55784   4.448   7.665   7.430 -0.0159 -0.0232  0.1469
18181SOL    HW155785   4.469   7.734   7.367 -0.2513  0.2761  0.3926
18181SOL    HW255786   4.499   7.589   7.401  1.6378  0.7834  0.9108
18182SOL     OW55787   1.926   4.940   0.711 -0.0526 -0.0189  0.5054
18182SOL    HW155788   1.935   4.863   0.655  3.2315  1.3101 -0.9335
18182SOL    HW255789   1.948   4.910   0.799 -1.5657 -1.2979  0.4742
18183SOL     OW55790   7.348   1.729   0.374  0.2933  0.3665  0.0117
18183SOL    HW155791   7.430   1.776   0.357 -0.0226  0.6998 -0.6051
18183SOL    HW255792   7.375   1.652   0.424  0.9494  0.6224  0.0644
18184SOL     OW55793   8.263   2.029   7.661  0.1098  0.1519  0.0350
18184SOL    HW155794   8.358   2.019   7.671  0.1539 -0.7510 -1.1756
18184SOL    HW255795   8.252   2.078   7.580 -0.4806 -0.7871 -0.4628
18185SOL     OW55796   7.202   6.223   3.738  0.4537  0.1352  0.2551
18185SOL    HW155797   7.227   6.192   3.825 -2.5029 -1.0069  0.7344
18185SOL    HW255798   7.135   6.289   3.754 -1.6462 -1.5990 -1.2223
18186SOL     OW55799   1.732   6.157   3.008 -0.3245  0.2455 -0.4368
18186SOL    HW155800   1.778   6.175   3.090 -2.6426  1.3767  0.6642
18186SOL    HW255801   1.687   6.239   2.987 -0.6995 -0.3936 -2.2331
18187SOL     OW55802   5.059   7.973   1.770 -0.0077  0.0172  0.2252
18187SOL    HW155803   5.063   8.018   1.686 -0.9223  0.0965  0.2223
18187SOL    HW255804   4.982   7.916   1.764 -1.8263  2.1882  2.0739
18188SOL     OW55805   0.425   1.925   7.713  0.3847  0.2229  0.1013
18188SOL    HW155806   0.485   1.994   7.740 -0.1196  0.7314 -0.0543
18188SOL    HW255807   0.366   1.913   7.787  0.4606 -0.0384  0.1228
18189SOL     OW55808   6.380   0.665   7.799 -0.2885  0.2231  0.1624
18189SOL    HW155809   6.298   0.628   7.766 -0.2515  0.4152 -0.1575
18189SOL    HW255810   6.425   0.592   7.842 -0.9990  0.3105  1.0573
18190SOL     OW55811   8.031   7.018   8.140 -0.5542 -0.1389  0.5683
18190SOL    HW155812   8.099   7.012   8.074 -1.3640  0.1561 -0.3003
18190SOL    HW255813   7.966   6.952   8.115 -0.2769 -0.8852  1.7646
18191SOL     OW55814   3.949   0.365   2.451 -0.0936 -0.2879  0.1529
18191SOL    HW155815   4.030   0.357   2.401 -0.2760  1.0099 -0.3707
18191SOL    HW255816   3.880   0.339   2.390 -0.1199 -0.8590  0.4260
18192SOL     OW55817   3.660   5.528   5.121 -0.2748 -0.3252 -0.3528
18192SOL    HW155818   3.753   5.518   5.142  0.1587  0.2693 -1.9965
18192SOL    HW255819   3.657   5.532   5.026 -1.7482  2.1136 -0.2280
18193SOL     OW55820   6.794   3.675   4.072 -0.4280  0.1712 -0.3245
18193SOL    HW155821   6.878   3.630   4.059 -0.1743  0.3950  0.4919
18193SOL    HW255822   6.732   3.606   4.093 -0.5421 -0.0426 -1.3720
18194SOL     OW55823   0.815   0.313   6.821 -0.4811  0.1981  0.3461
18194SOL    HW155824   0.799   0.285   6.911 -1.8088  1.8136  0.6329
18194SOL    HW255825   0.799   0.235   6.768  1.4485 -1.0860  1.5764
18195SOL     OW55826   1.451   6.649   2.926 -0.3853  0.7470 -0.5911
18195SOL    HW155827   1.412   6.663   3.012  0.2800 -0.6116 -0.0530
18195SOL    HW255828   1.512   6.723   2.915  0.3270  0.3509  0.5822
18196SOL     OW55829   2.329   7.847   1.509  0.1658 -0.4998 -0.4073
18196SOL    HW155830   2.367   7.919   1.458 -0.8233  0.0575 -0.3691
18196SOL    HW255831   2.321   7.775   1.447 -0.0859 -0.1460 -0.7919
18197SOL     OW55832   7.552   1.012   3.483  0.0030  0.0808  0.0274
18197SOL    HW155833   7.633   0.965   3.500 -1.0165 -0.8887  2.4873
18197SOL    HW255834   7.497   0.950   3.437 -0.1428 -0.0408  0.3604
18198SOL     OW55835   4.452   8.065   7.654  0.4485  0.0605  0.1842
18198SOL    HW155836   4.503   8.012   7.717  0.1749 -0.3735  0.0439
18198SOL    HW255837   4.432   8.004   7.583 -0.6316  0.1168  0.4402
18199SOL     OW55838   4.184   1.077   7.341  0.4772  0.6411 -0.1402
18199SOL    HW155839   4.189   1.021   7.419  0.1740  0.7116 -0.0701
18199SOL    HW255840   4.129   1.029   7.280 -1.0371  1.5220  0.4852
18200SOL     OW55841   6.389   8.052   1.666 -0.5564 -0.3152  0.0505
18200SOL    HW155842   6.462   8.106   1.695 -0.2831 -0.5028 -0.2917
18200SOL    HW255843   6.322   8.063   1.734 -0.1280 -0.3174  0.4719
18201SOL     OW55844   4.830   2.681   5.045 -0.5819 -0.2558 -0.2715
18201SOL    HW155845   4.777   2.742   4.994  2.2834  2.0727 -0.6474
18201SOL    HW255846   4.836   2.721   5.132 -1.4689 -1.7700  0.5142
18202SOL     OW55847   2.451   0.665   8.238  0.0007  0.2014 -0.2637
18202SOL    HW155848   2.357   0.657   8.249 -0.1429  2.3283  0.3183
18202SOL    HW255849   2.489   0.612   8.308 -0.7579 -0.4000 -0.3099
18203SOL     OW55850   6.220   4.194   5.062 -0.2308 -0.1173  0.1117
18203SOL    HW155851   6.190   4.115   5.107 -0.6962 -0.5221 -0.8885
18203SOL    HW255852   6.303   4.169   5.022 -0.2296 -0.0098  0.0477
18204SOL     OW55853   1.290   0.912   4.409  0.1172 -0.2066  0.1074
18204SOL    HW155854   1.373   0.865   4.396  0.9629  1.3221 -0.1113
18204SOL    HW255855   1.288   0.931   4.503  0.3080  0.2805  0.0147
18205SOL     OW55856   0.906   0.917   5.419 -0.3722 -0.1075  0.2437
18205SOL    HW155857   0.869   0.960   5.495 -1.4778  1.7317 -1.2945
18205SOL    HW255858   0.864   0.959   5.344  2.3205 -0.3149 -1.4728
18206SOL     OW55859   3.772   0.726   0.151 -0.1757 -0.2219  0.0917
18206SOL    HW155860   3.684   0.712   0.186 -1.1405 -0.1950 -2.2488
18206SOL    HW255861   3.807   0.799   0.202 -1.6722  0.0415  0.7633
18207SOL     OW55862   5.455   0.249   7.054 -0.3196  0.4457  0.5182
18207SOL    HW155863   5.503   0.231   7.136  0.7297 -0.3258 -0.2452
18207SOL    HW255864   5.427   0.340   7.062  0.5123  0.6373  1.3900
18208SOL     OW55865   6.527   3.475   6.709  0.3338  0.6753 -0.0425
18208SOL    HW155866   6.505   3.556   6.757 -0.1227 -0.0658  1.0274
18208SOL    HW255867   6.589   3.430   6.766 -0.8658 -0.6222  0.2588
18209SOL     OW55868   4.790   4.256   0.466 -0.2105 -0.2283 -0.4403
18209SOL    HW155869   4.760   4.171   0.434 -2.1885  0.5247 -0.6708
18209SOL    HW255870   4.839   4.293   0.392  0.2428 -0.9619 -0.5091
18210SOL     OW55871   2.725   7.309   1.672 -0.0318  0.3257 -0.5835
18210SOL    HW155872   2.761   7.256   1.743  1.8731  0.2805 -1.5680
18210SOL    HW255873   2.671   7.248   1.622  2.7568 -0.9141 -2.1589
18211SOL     OW55874   5.416   3.033   3.695 -0.7533  0.4059  0.0863
18211SOL    HW155875   5.382   3.044   3.783  0.8081  1.2959  0.5910
18211SOL    HW255876   5.489   2.972   3.705 -2.5438 -2.0597 -1.0885
18212SOL     OW55877   5.128   1.367   2.734 -0.2285 -0.1500  0.0066
18212SOL    HW155878   5.038   1.368   2.700 -0.6241  0.9836  1.0434
18212SOL    HW255879   5.146   1.458   2.755  0.2564 -0.7340  2.1719
18213SOL     OW55880   0.980   3.834   2.151  0.3932 -0.4538  0.0543
18213SOL    HW155881   1.029   3.768   2.201 -0.5076 -1.8598 -0.8938
18213SOL    HW255882   1.005   3.818   2.060  3.0653  2.9566  0.0787
18214SOL     OW55883   1.985   6.246   3.933  0.0628 -0.1408  0.3381
18214SOL    HW155884   2.022   6.334   3.925  0.1630 -0.2304 -0.1871
18214SOL    HW255885   1.891   6.259   3.926  0.1094 -0.1376 -0.2755
18215SOL     OW55886   8.115   6.512   6.774  0.2805 -0.0563  0.2680
18215SOL    HW155887   8.156   6.522   6.688  0.2832  0.4782  0.3312
18215SOL    HW255888   8.086   6.421   6.776  2.6510 -0.8227  0.7538
18216SOL     OW55889   2.534   0.660   0.722  0.0549 -0.0028  0.1875
18216SOL    HW155890   2.531   0.673   0.627  3.0009 -2.7012 -0.3648
18216SOL    HW255891   2.606   0.717   0.752 -2.3700  2.6317  1.2136
18217SOL     OW55892   8.071   3.479   0.837 -0.5537 -0.0084  0.5275
18217SOL    HW155893   8.144   3.452   0.782 -0.9199 -1.0345  0.5377
18217SOL    HW255894   8.112   3.515   0.916 -0.0552 -0.6210  0.5497
18218SOL     OW55895   7.436   2.897   1.738  0.6545 -0.2892 -0.1637
18218SOL    HW155896   7.386   2.880   1.818  0.7918 -0.1646 -0.0484
18218SOL    HW255897   7.376   2.878   1.667  0.3499  0.1514 -0.0229
18219SOL     OW55898   3.048   5.285   4.782 -0.3184  0.3257  0.3018
18219SOL    HW155899   3.066   5.316   4.693 -0.8172  0.6763  0.3196
18219SOL    HW255900   3.063   5.191   4.779 -2.0655  0.0662 -0.6050
18220SOL     OW55901   7.601   5.730   2.298  0.0396  0.3526 -0.2775
18220SOL    HW155902   7.619   5.824   2.300 -0.5295  0.4640 -0.2607
18220SOL    HW255903   7.653   5.698   2.224 -0.2829  0.7970 -0.7091
18221SOL     OW55904   7.920   1.839   0.047  0.1261  0.3972 -0.5347
18221SOL    HW155905   7.961   1.763   0.088 -0.1251  0.1985 -0.6514
18221SOL    HW255906   7.830   1.811   0.029 -0.8674  1.7234  2.1732
18222SOL     OW55907   7.842   5.482   6.369  0.1069  0.7289  0.0486
18222SOL    HW155908   7.905   5.512   6.304  0.2150 -1.0768 -0.7274
18222SOL    HW255909   7.885   5.495   6.453  1.3902 -0.1767 -0.4567
18223SOL     OW55910   5.952   5.342   8.250  0.0972 -0.2763  0.2238
18223SOL    HW155911   5.867   5.304   8.271  0.6775 -1.2398  0.9144
18223SOL    HW255912   5.953   5.426   8.296 -0.6519 -0.0524 -0.1628
18224SOL     OW55913   6.290   5.041   6.237 -0.4097  0.3955 -0.0058
18224SOL    HW155914   6.236   4.984   6.291  0.9615 -0.8861  0.0595
18224SOL    HW255915   6.371   5.052   6.288 -0.4874  2.0525 -0.2113
18225SOL     OW55916   7.382   6.216   5.143  0.5389  0.8204 -0.0315
18225SOL    HW155917   7.320   6.224   5.071  1.1875  1.5501 -0.5296
18225SOL    HW255918   7.335   6.169   5.212  0.4290 -1.2840 -1.5185
18226SOL     OW55919   6.011   3.840   7.437  0.1709  0.1922  0.3365
18226SOL    HW155920   5.996   3.889   7.518 -0.4631 -0.1436  0.4252
18226SOL    HW255921   5.927   3.798   7.419  0.2094  0.5444 -0.6841
18227SOL     OW55922   5.765   4.650   4.975  0.4750  0.0335  0.2914
18227SOL    HW155923   5.753   4.647   4.880 -0.9486  1.3473  0.4120
18227SOL    HW255924   5.750   4.741   4.998 -2.6376 -0.8765  2.1912
18228SOL     OW55925   1.572   2.731   2.859 -0.0003 -0.3781  0.5636
18228SOL    HW155926   1.527   2.681   2.791  0.4542  1.5945 -1.2231
18228SOL    HW255927   1.529   2.816   2.859  1.0061  0.1458  1.7142
18229SOL     OW55928   6.347   8.050   6.013  0.5171  0.0764  0.3752
18229SOL    HW155929   6.397   7.977   5.976  1.5919  0.3030  1.3597
18229SOL    HW255930   6.410   8.099   6.066 -0.8855 -0.0234  2.1961
18230SOL     OW55931   6.121   4.391   3.008 -0.2209 -0.0821 -0.2155
18230SOL    HW155932   6.188   4.322   3.015 -0.2023 -0.0687 -0.2580
18230SOL    HW255933   6.039   4.347   3.031 -0.0659  0.1340  0.7342
18231SOL     OW55934   2.471   3.302   8.227 -0.2545  0.1773  0.1680
18231SOL    HW155935   2.437   3.274   8.312 -0.3283 -2.1930 -0.5906
18231SOL    HW255936   2.395   3.300   8.169  0.2858 -0.7473 -0.5231
18232SOL     OW55937   3.370   7.050   1.498  0.5222 -0.3320 -0.4691
18232SOL    HW155938   3.374   7.031   1.591 -2.4273  0.1273 -0.2079
18232SOL    HW255939   3.342   6.968   1.457 -0.6562  0.1646 -0.6656
18233SOL     OW55940   4.577   1.167   1.540 -0.0141  0.2222  0.1847
18233SOL    HW155941   4.604   1.079   1.567  1.7499  1.2393  1.8275
18233SOL    HW255942   4.584   1.166   1.444  0.1479 -1.3755  0.2028
18234SOL     OW55943   6.496   7.660   6.762  0.6666 -0.1668 -0.3757
18234SOL    HW155944   6.559   7.595   6.792  3.2051  2.3408 -0.0620
18234SOL    HW255945   6.479   7.714   6.839  1.3840  1.7208 -1.5190
18235SOL     OW55946   6.745   4.750   1.961  0.0496 -0.4641 -0.8884
18235SOL    HW155947   6.705   4.837   1.962  0.9942 -0.0347 -0.1403
18235SOL    HW255948   6.707   4.707   1.884 -1.8124 -0.0510 -0.2381
18236SOL     OW55949   6.379   0.734   2.227  0.2445  0.0932 -0.4904
18236SOL    HW155950   6.381   0.730   2.131 -0.0814  1.6499 -0.5643
18236SOL    HW255951   6.452   0.677   2.254  2.2333  1.9698 -1.7344
18237SOL     OW55952   2.616   6.962   1.807  0.3273 -0.5224 -0.2445
18237SOL    HW155953   2.692   6.940   1.861  1.5786  1.8933 -0.9353
18237SOL    HW255954   2.648   6.957   1.717 -0.1191  1.1461 -0.5193
18238SOL     OW55955   0.015   4.196   0.754  0.3923  0.1284  0.6267
18238SOL    HW155956   0.046   4.274   0.798 -0.8372  1.7092 -1.2288
18238SOL    HW255957   0.091   4.138   0.749  0.6020 -0.0372  4.5721
18239SOL     OW55958   0.903   3.579   1.216 -0.3928  0.1580  0.6489
18239SOL    HW155959   0.935   3.668   1.224  0.3497 -0.1505  1.1689
18239SOL    HW255960   0.965   3.526   1.266 -0.8178 -0.6520  0.3381
18240SOL     OW55961   2.825   0.451   1.718  0.2926 -0.1028  0.4473
18240SOL    HW155962   2.804   0.358   1.708  1.5001 -0.5040  1.4857
18240SOL    HW255963   2.873   0.456   1.801 -0.7069  1.6155  0.9492
18241SOL     OW55964   4.357   6.816   7.903  0.1587 -0.0314  0.0946
18241SOL    HW155965   4.423   6.784   7.842 -1.4243 -0.4481 -1.4477
18241SOL    HW255966   4.278   6.825   7.850 -0.5744  2.1906  1.4926
18242SOL     OW55967   4.507   3.895   6.990  0.3951 -0.1177 -0.4585
18242SOL    HW155968   4.468   3.971   6.945  0.4244 -0.6624 -1.4041
18242SOL    HW255969   4.577   3.933   7.043  0.2981  0.5412 -0.7868
18243SOL     OW55970   1.295   6.630   8.048  0.0817 -0.1251 -0.1295
18243SOL    HW155971   1.386   6.616   8.022  0.2362 -1.4098  0.9906
18243SOL    HW255972   1.248   6.646   7.967  1.2129 -0.0841 -0.7782
18244SOL     OW55973   2.185   2.874   4.660 -0.2633  0.0061 -0.0814
18244SOL    HW155974   2.225   2.789   4.641 -1.3946 -0.1117 -2.1061
18244SOL    HW255975   2.166   2.911   4.573 -2.5861  0.9764  0.8072
18245SOL     OW55976   2.790   6.136   4.405 -0.3800 -0.3188  0.5647
18245SOL    HW155977   2.741   6.180   4.474 -1.4823 -1.5218  0.5625
18245SOL    HW255978   2.724   6.093   4.352  0.5264 -0.1938 -0.7094
18246SOL     OW55979   5.579   6.271   5.391  0.0321  0.2493  0.0859
18246SOL    HW155980   5.650   6.214   5.362  0.3186  0.9461 -0.5834
18246SOL    HW255981   5.601   6.291   5.482 -0.5927 -1.5037  0.6489
18247SOL     OW55982   2.564   3.152   2.365  0.4021 -0.1095 -0.1333
18247SOL    HW155983   2.646   3.105   2.380  0.5064  0.2389  0.3900
18247SOL    HW255984   2.527   3.111   2.287  1.9595  0.9217 -1.4405
18248SOL     OW55985   4.433   4.759   1.455 -0.2926  0.1585  0.2876
18248SOL    HW155986   4.480   4.684   1.419  1.8017  1.9821 -0.9278
18248SOL    HW255987   4.375   4.722   1.521  2.7560 -2.2230  1.7517
18249SOL     OW55988   5.320   3.412   4.818  0.4527 -0.3598 -0.4228
18249SOL    HW155989   5.407   3.417   4.777  2.1498 -1.8916  2.7745
18249SOL    HW255990   5.339   3.401   4.911 -3.2286  1.2052  0.5775
18250SOL     OW55991   4.839   0.681   5.081 -0.0505  0.0065 -0.1266
18250SOL    HW155992   4.848   0.599   5.032 -2.3621 -0.5839  0.3913
18250SOL    HW255993   4.921   0.689   5.130  0.7847 -1.2501 -1.3000
18251SOL     OW55994   1.827   7.626   3.496  0.1923 -0.2178 -0.1252
18251SOL    HW155995   1.845   7.706   3.446 -2.7816  0.2449 -0.5311
18251SOL    HW255996   1.847   7.650   3.586  1.5727  0.2382 -0.5307
18252SOL     OW55997   7.411   0.099   6.169  0.0244  0.1166  0.2048
18252SOL    HW155998   7.382   0.181   6.209  1.3603  1.0253 -0.6420
18252SOL    HW255999   7.455   0.051   6.239 -0.8607  0.0735  0.7305
18253SOL     OW56000   2.969   3.734   1.649 -0.0585 -0.2002  0.1544
18253SOL    HW156001   2.920   3.812   1.675 -0.9927 -0.7432  0.0682
18253SOL    HW256002   2.984   3.745   1.555  1.3020  0.6759  0.4687
18254SOL     OW56003   6.407   0.741   6.863 -0.4492  0.7539 -0.2634
18254SOL    HW156004   6.371   0.724   6.950 -0.9897  0.4082 -0.5539
18254SOL    HW256005   6.466   0.667   6.847 -0.4490  0.7493 -0.2424
18255SOL     OW56006   0.996   4.110   6.709 -0.0500  0.1609  0.1090
18255SOL    HW156007   1.019   4.186   6.762 -1.8475  2.1421 -1.8344
18255SOL    HW256008   0.999   4.142   6.619 -2.4448 -1.6177 -0.6548
18256SOL     OW56009   7.685   6.133   4.150 -0.5461  0.0542  0.3647
18256SOL    HW156010   7.608   6.077   4.142 -0.9511  0.9379 -2.7956
18256SOL    HW256011   7.754   6.086   4.103 -0.7703  1.8744 -1.9042
18257SOL     OW56012   0.529   4.060   4.251 -0.1420 -0.0929  0.5604
18257SOL    HW156013   0.480   4.067   4.333  1.3872 -0.4853  1.5294
18257SOL    HW256014   0.605   4.006   4.273 -0.0794 -0.7835 -1.2986
18258SOL     OW56015   4.108   5.407   6.095  0.0732  0.4770  0.0853
18258SOL    HW156016   4.167   5.373   6.162  0.3398  1.2488  0.2422
18258SOL    HW256017   4.039   5.341   6.088  0.2346  0.2229  0.8633
18259SOL     OW56018   5.410   2.842   0.966 -0.2065  0.2572 -0.0915
18259SOL    HW156019   5.481   2.897   0.998 -0.9019 -0.2465  2.4531
18259SOL    HW256020   5.330   2.887   0.993 -0.8337 -0.2363 -1.0694
18260SOL     OW56021   2.198   4.475   6.512 -0.1030 -0.1098  0.0781
18260SOL    HW156022   2.258   4.547   6.495  0.8025 -0.9912 -0.5024
18260SOL    HW256023   2.220   4.445   6.601 -0.9438  0.7591  0.5907
18261SOL     OW56024   4.216   7.854   5.320 -0.4558  0.2467  0.3375
18261SOL    HW156025   4.185   7.941   5.346  0.0991  1.0413 -1.5742
18261SOL    HW256026   4.300   7.843   5.365 -0.3844  0.8209  0.3402
18262SOL     OW56027   5.351   0.889   0.664  0.5123 -0.1039 -0.1753
18262SOL    HW156028   5.416   0.948   0.703  0.7839  0.1112 -0.9539
18262SOL    HW256029   5.271   0.941   0.660  0.8869  0.3932 -1.3513
18263SOL     OW56030   3.655   2.057   2.015  0.0800  0.5987 -0.2490
18263SOL    HW156031   3.651   1.997   1.940 -0.1413 -0.1636  0.3708
18263SOL    HW256032   3.727   2.023   2.068 -2.6294 -1.5895  2.2005
18264SOL     OW56033   5.626   6.548   2.781 -0.1343  0.3452  0.4017
18264SOL    HW156034   5.533   6.542   2.758 -0.2933 -0.3275  1.2287
18264SOL    HW256035   5.633   6.632   2.827 -0.2586  0.5763  0.0047
18265SOL     OW56036   4.531   1.629   3.071  0.0571 -0.1498  0.6503
18265SOL    HW156037   4.436   1.637   3.060 -0.2646 -3.5907  0.0960
18265SOL    HW256038   4.541   1.558   3.135  2.2390 -0.3420  0.1303
18266SOL     OW56039   1.222   3.892   3.869 -0.2280  0.5502  0.3334
18266SOL    HW156040   1.203   3.804   3.900  1.5768  0.8554  2.4309
18266SOL    HW256041   1.190   3.893   3.779  2.5402 -3.2517 -0.8143
18267SOL     OW56042   5.121   4.145   6.798  0.1899  0.3662  0.4528
18267SOL    HW156043   5.043   4.197   6.780  0.3666  0.3995 -0.2352
18267SOL    HW256044   5.193   4.208   6.796  0.4297  0.0770 -0.5945
18268SOL     OW56045   5.544   3.655   7.544 -0.1378  0.1074  0.6032
18268SOL    HW156046   5.586   3.724   7.493 -1.0441  0.4021  0.2439
18268SOL    HW256047   5.455   3.687   7.560 -0.9168 -1.4112 -0.4953
18269SOL     OW56048   4.768   0.853   0.357  0.2895 -0.3320  0.0523
18269SOL    HW156049   4.775   0.883   0.267 -2.2557  0.5223  0.0825
18269SOL    HW256050   4.691   0.899   0.392  0.8339 -1.1391  2.4470
18270SOL     OW56051   1.258   1.460   7.409  0.6751 -0.6390  0.4049
18270SOL    HW156052   1.271   1.499   7.496 -1.6070 -3.4136  2.1164
18270SOL    HW256053   1.332   1.401   7.398  1.3247  0.2140  0.1444
18271SOL     OW56054   4.324   2.378   2.273  0.0175  0.3952  0.4027
18271SOL    HW156055   4.344   2.286   2.252 -0.4501  0.4229 -0.1543
18271SOL    HW256056   4.289   2.414   2.192 -3.5673  0.0197  1.6911
18272SOL     OW56057   3.869   4.015   3.541 -0.2390 -0.0399 -0.5956
18272SOL    HW156058   3.835   3.935   3.501 -1.6633  0.8966 -1.2762
18272SOL    HW256059   3.818   4.085   3.501  1.3847  1.2585 -0.4125
18273SOL     OW56060   4.373   2.665   0.997  0.7431  0.2439  0.1598
18273SOL    HW156061   4.291   2.690   0.954  0.3088 -2.6021 -0.7877
18273SOL    HW256062   4.438   2.662   0.926  0.6339 -1.8397  0.1178
18274SOL     OW56063   5.940   3.794   0.811  0.5450 -0.1681  0.5429
18274SOL    HW156064   5.894   3.860   0.758  0.8426 -0.6374 -0.3096
18274SOL    HW256065   5.899   3.801   0.898  0.3941  0.9545  0.3978
18275SOL     OW56066   4.489   2.824   1.460 -0.3949 -0.3900 -0.4213
18275SOL    HW156067   4.582   2.836   1.478 -0.5074 -1.7037  1.0825
18275SOL    HW256068   4.484   2.822   1.364  1.1405 -0.4894 -0.5218
18276SOL     OW56069   0.707   5.881   3.365  0.6972 -0.2316  0.0113
18276SOL    HW156070   0.661   5.808   3.322  0.9880 -0.2798 -0.2137
18276SOL    HW256071   0.645   5.954   3.360  0.7479 -0.2277 -0.5160
18277SOL     OW56072   1.250   7.902   0.411  0.1607 -0.5359  0.4281
18277SOL    HW156073   1.196   7.843   0.359  0.9933 -0.1096 -0.9350
18277SOL    HW256074   1.216   7.990   0.390 -0.2883 -0.4372  1.5292
18278SOL     OW56075   4.125   5.822   4.313  0.4579  0.3213 -0.3779
18278SOL    HW156076   4.097   5.771   4.237  0.1602  1.1265 -0.8238
18278SOL    HW256077   4.046   5.867   4.342  0.5815  0.0418  0.3889
18279SOL     OW56078   5.500   1.598   8.273  0.6283  0.4442 -0.4268
18279SOL    HW156079   5.454   1.595   8.356 -0.7417 -0.3937 -1.1868
18279SOL    HW256080   5.547   1.681   8.274 -1.4482  1.6510  0.1068
18280SOL     OW56081   3.093   5.405   4.232 -0.1575  0.0060 -0.0468
18280SOL    HW156082   3.058   5.480   4.184 -0.8036  0.0365  0.4653
18280SOL    HW256083   3.188   5.420   4.234 -0.2774  0.7799 -0.0079
18281SOL     OW56084   0.367   6.050   0.948  0.8637 -0.3027  0.3958
18281SOL    HW156085   0.395   6.002   1.027 -0.7684 -1.9421  0.0188
18281SOL    HW256086   0.405   6.000   0.876  0.8912  0.1774  0.0801
18282SOL     OW56087   4.243   4.949   2.990 -0.0351  0.4098  0.2148
18282SOL    HW156088   4.170   4.917   3.044 -1.8987  0.6676 -2.0819
18282SOL    HW256089   4.311   4.881   3.000 -1.8530 -1.5344 -0.2496
18283SOL     OW56090   4.318   4.804   5.695 -0.5327 -0.2159 -0.5605
18283SOL    HW156091   4.285   4.830   5.781  0.4845 -0.0247 -0.2194
18283SOL    HW256092   4.241   4.772   5.648 -0.8756 -1.5126  0.8697
18284SOL     OW56093   5.974   5.034   5.731 -0.0994  0.2868  0.0021
18284SOL    HW156094   5.905   5.023   5.797  2.5301 -0.4753  2.7413
18284SOL    HW256095   6.001   4.945   5.709  1.2742  0.5921  0.3778
18285SOL     OW56096   2.440   7.676   7.709  0.6528  0.2258  0.1219
18285SOL    HW156097   2.389   7.740   7.757  1.9119  0.9270  0.5627
18285SOL    HW256098   2.531   7.692   7.736  1.1402 -0.8115 -0.8237
18286SOL     OW56099   6.086   4.212   5.763  0.5377  0.3106  0.2868
18286SOL    HW156100   6.077   4.250   5.676  0.8932  0.1759  0.1945
18286SOL    HW256101   6.126   4.127   5.749 -2.1471 -1.0125  0.2934
18287SOL     OW56102   1.085   1.180   1.980  0.1769  0.2717  0.0031
18287SOL    HW156103   1.168   1.157   2.022  0.6654  0.6577 -0.7446
18287SOL    HW256104   1.019   1.130   2.029  0.7913  0.3295  0.8988
18288SOL     OW56105   2.222   0.684   5.562  0.0258  0.4015  0.2636
18288SOL    HW156106   2.165   0.616   5.527  0.7307  0.1570 -0.4361
18288SOL    HW256107   2.310   0.647   5.556  0.3361  1.0672  0.6171
18289SOL     OW56108   1.515   1.951   2.740  0.2938 -0.3655 -0.2759
18289SOL    HW156109   1.491   2.028   2.688  1.2691 -0.2639 -0.5869
18289SOL    HW256110   1.555   1.891   2.677  2.1869  0.0740  0.4837
18290SOL     OW56111   8.079   5.529   3.147 -0.2020 -0.0192  0.1984
18290SOL    HW156112   8.011   5.487   3.096 -1.2369  0.0752  1.4693
18290SOL    HW256113   8.032   5.590   3.204  1.0017  0.5713  0.5713
18291SOL     OW56114   0.432   5.380   6.293  0.2562  0.5893  0.2669
18291SOL    HW156115   0.478   5.461   6.270  0.3244  0.7442  0.9447
18291SOL    HW256116   0.341   5.397   6.269  0.4204  0.5600 -0.3753
18292SOL     OW56117   0.080   3.151   3.974 -0.0915  0.0472  0.3791
18292SOL    HW156118   0.072   3.174   4.067  1.5227 -0.2034  0.5856
18292SOL    HW256119   0.124   3.226   3.934  0.3455 -0.3891  0.0475
18293SOL     OW56120   4.552   4.568   2.957 -0.7081 -0.1507 -0.0742
18293SOL    HW156121   4.530   4.594   2.867  0.4875  0.6339 -0.1620
18293SOL    HW256122   4.554   4.651   3.006  1.6081 -0.2029 -0.0123
18294SOL     OW56123   6.035   3.057   2.757 -0.3872  0.5453  0.7638
18294SOL    HW156124   6.105   3.087   2.699 -1.2048  1.9343  0.4504
18294SOL    HW256125   5.970   3.128   2.754 -1.7706 -0.6752  1.0876
18295SOL     OW56126   2.115   1.119   2.903 -0.4705  0.0395 -0.4832
18295SOL    HW156127   2.172   1.195   2.888  0.9062 -0.8845  0.0244
18295SOL    HW256128   2.058   1.145   2.975 -1.2367  1.2554 -1.4959
18296SOL     OW56129   7.414   3.128   2.371  0.4560 -0.1693  0.5279
18296SOL    HW156130   7.496   3.079   2.380  1.5356  1.7544  1.4993
18296SOL    HW256131   7.436   3.203   2.316 -1.3842 -1.1974 -1.6806
18297SOL     OW56132   7.051   3.075   0.954  0.1137 -0.5372 -0.0397
18297SOL    HW156133   7.074   2.982   0.958 -0.2823 -0.6100  0.8069
18297SOL    HW256134   7.091   3.113   1.032 -0.5170 -0.1841  0.1218
18298SOL     OW56135   2.688   2.467   0.465 -0.0359  0.2464 -0.4588
18298SOL    HW156136   2.725   2.552   0.440 -0.1853  0.3645 -0.2814
18298SOL    HW256137   2.671   2.423   0.382 -0.3914  0.5777 -0.5659
18299SOL     OW56138   2.234   2.242   3.920  0.0027  0.1089  0.1833
18299SOL    HW156139   2.273   2.155   3.927  0.3545  0.2594  0.0632
18299SOL    HW256140   2.306   2.299   3.894  0.0745  0.6822  1.5882
18300SOL     OW56141   5.565   2.145   5.596 -0.0096  0.0479  0.2171
18300SOL    HW156142   5.577   2.050   5.604  1.6960  0.1447 -0.9350
18300SOL    HW256143   5.607   2.181   5.674  0.5160 -0.0744 -0.0058
18301SOL     OW56144   2.791   7.269   6.394  0.2236 -0.0509  0.5459
18301SOL    HW156145   2.836   7.287   6.476  1.3586  0.2565 -0.1463
18301SOL    HW256146   2.773   7.355   6.356  2.9975 -0.2214 -1.3082
18302SOL     OW56147   3.485   3.927   7.754 -0.2261  0.1149 -0.1391
18302SOL    HW156148   3.463   3.848   7.706 -1.0021  0.0176  0.3642
18302SOL    HW256149   3.485   3.900   7.846 -1.2328  0.8659  0.0877
18303SOL     OW56150   5.535   1.090   1.832 -0.0868  0.6673  0.4492
18303SOL    HW156151   5.443   1.117   1.839 -0.0634  1.3686 -1.5061
18303SOL    HW256152   5.537   1.029   1.758  0.8605 -0.1521  1.1323
18304SOL     OW56153   2.287   1.532   7.832  0.2400 -0.0470  0.1867
18304SOL    HW156154   2.317   1.508   7.745  0.8592  2.9548 -0.4702
18304SOL    HW256155   2.235   1.457   7.861  0.1575 -1.1507 -2.6782
18305SOL     OW56156   1.629   4.763   2.006 -0.0011 -0.2830  0.3627
18305SOL    HW156157   1.608   4.828   2.073 -0.5308 -1.0120  0.9150
18305SOL    HW256158   1.689   4.808   1.947 -2.5730  1.6578 -0.8736
18306SOL     OW56159   7.962   2.728   0.844  0.0861 -0.4486 -0.7874
18306SOL    HW156160   7.948   2.787   0.918 -0.6093 -2.2298  0.5170
18306SOL    HW256161   8.009   2.653   0.881 -0.5845 -1.5208 -2.0730
18307SOL     OW56162   6.647   5.981   5.257  0.8286  0.2220  0.2803
18307SOL    HW156163   6.652   6.071   5.225  0.4732  0.0477 -0.2565
18307SOL    HW256164   6.556   5.955   5.243  1.4027 -0.9206 -1.4685
18308SOL     OW56165   2.156   1.304   4.388  0.2073 -0.5259  0.4422
18308SOL    HW156166   2.214   1.290   4.313  0.3260  0.1393  0.4036
18308SOL    HW256167   2.160   1.398   4.404 -0.5709 -0.5269  0.6804
18309SOL     OW56168   2.636   1.009   6.569  0.5906 -0.2903 -0.1481
18309SOL    HW156169   2.720   0.975   6.536  0.4387  0.1878 -1.0679
18309SOL    HW256170   2.651   1.103   6.578  0.1039 -0.1818 -0.4670
18310SOL     OW56171   3.779   3.368   3.405  0.4302 -0.6876  0.4515
18310SOL    HW156172   3.847   3.422   3.446 -0.2359 -0.3914  1.1745
18310SOL    HW256173   3.822   3.285   3.388  2.4597  1.0589 -3.6869
18311SOL     OW56174   4.194   1.626   7.251 -0.8558  0.0693 -0.7072
18311SOL    HW156175   4.195   1.533   7.227 -3.6547  0.1261 -1.2804
18311SOL    HW256176   4.164   1.670   7.171  0.5854  1.4745 -0.4725
18312SOL     OW56177   5.310   5.909   2.757 -0.0212 -0.1219 -0.2095
18312SOL    HW156178   5.283   5.964   2.831  1.2787 -0.7943  0.7721
18312SOL    HW256179   5.367   5.966   2.705  0.2796 -0.1259  0.1148
18313SOL     OW56180   1.586   4.893   2.253  0.4140  0.3444  0.1718
18313SOL    HW156181   1.552   4.936   2.331  1.9972 -2.3249  2.3895
18313SOL    HW256182   1.508   4.868   2.203 -0.5979  2.3050  0.7074
18314SOL     OW56183   1.940   2.658   5.685  0.6852  0.2730  0.5289
18314SOL    HW156184   1.996   2.732   5.660  0.2040  0.1387 -0.9893
18314SOL    HW256185   1.852   2.684   5.657  0.6460 -1.2319 -0.7678
18315SOL     OW56186   7.575   4.433   3.617  0.2656 -0.1250  0.0443
18315SOL    HW156187   7.565   4.497   3.546  0.8116  0.8166  0.8121
18315SOL    HW256188   7.494   4.442   3.668  0.5066  0.2207  0.3669
18316SOL     OW56189   5.755   5.177   1.713 -0.7322  0.4433  0.3246
18316SOL    HW156190   5.704   5.102   1.744  0.1764  0.1562  1.1494
18316SOL    HW256191   5.703   5.214   1.642 -0.8789 -1.3577 -0.5259
18317SOL     OW56192   7.022   3.821   3.794  0.0288  0.1604  0.8952
18317SOL    HW156193   7.109   3.846   3.822  0.3328 -0.3797  0.4538
18317SOL    HW256194   7.025   3.725   3.789 -0.5433  0.1466  0.7447
18318SOL     OW56195   6.959   2.154   7.991  0.4511 -0.4745  0.0519
18318SOL    HW156196   6.918   2.240   7.990 -0.1392 -0.7429  0.7723
18318SOL    HW256197   7.053   2.172   7.994  0.3780  0.1425 -1.2651
18319SOL     OW56198   0.803   4.595   4.327 -0.4869  0.5582 -0.9033
18319SOL    HW156199   0.857   4.590   4.406  0.2945  0.5056 -1.4346
18319SOL    HW256200   0.742   4.667   4.345 -0.7245  0.1488 -0.0106
18320SOL     OW56201   6.783   1.063   5.859 -0.2159  0.1166 -0.3695
18320SOL    HW156202   6.769   1.157   5.866  0.5294  0.3512 -1.8073
18320SOL    HW256203   6.817   1.038   5.945  2.0106  1.6160 -0.7594
18321SOL     OW56204   8.265   6.028   6.431 -0.5713  0.4893 -0.3068
18321SOL    HW156205   8.196   5.973   6.468 -0.0245  0.6489  0.9933
18321SOL    HW256206   8.219   6.103   6.394 -1.3135 -0.7208 -1.9290
18322SOL     OW56207   1.520   4.703   5.274  0.4543  0.6920 -0.0176
18322SOL    HW156208   1.466   4.624   5.272  1.0717  0.2840 -0.8446
18322SOL    HW256209   1.481   4.762   5.210  0.0856  0.9984  0.4878
18323SOL     OW56210   4.309   7.366   5.122  0.0451 -0.5537  0.0529
18323SOL    HW156211   4.282   7.447   5.079 -0.4117 -0.8958 -0.3199
18323SOL    HW256212   4.347   7.313   5.053 -1.1438 -1.3064 -0.0510
18324SOL     OW56213   1.729   5.221   7.535  0.3013 -0.1614 -0.0826
18324SOL    HW156214   1.717   5.131   7.564 -0.0432  0.2736  1.1355
18324SOL    HW256215   1.752   5.269   7.615  2.8640  0.3930 -1.0936
18325SOL     OW56216   0.020   4.347   7.795 -0.3573  0.0228  0.5714
18325SOL    HW156217   0.046   4.409   7.725 -1.0188 -0.7634 -0.3784
18325SOL    HW256218  -0.071   4.368   7.813 -0.8965 -1.3513 -0.4834
18326SOL     OW56219   3.664   6.245   3.688  0.0435 -0.1974 -0.5208
18326SOL    HW156220   3.735   6.190   3.657 -0.9402 -0.4967 -2.2839
18326SOL    HW256221   3.664   6.321   3.629 -2.0225 -0.9054 -1.4812
18327SOL     OW56222   8.199   5.892   4.124 -0.0859  0.6089  0.1969
18327SOL    HW156223   8.248   5.955   4.177  0.6485  0.8196 -0.7148
18327SOL    HW256224   8.262   5.862   4.058 -1.0696  0.6061 -0.7707
18328SOL     OW56225   0.919   4.513   7.340  0.1216 -0.3286  0.1095
18328SOL    HW156226   0.967   4.430   7.341 -0.8011 -0.8824 -0.6561
18328SOL    HW256227   0.843   4.497   7.396  0.4885  0.3461  0.8154
18329SOL     OW56228   4.506   3.219   2.819  0.2795 -0.2855 -0.1172
18329SOL    HW156229   4.516   3.199   2.913 -0.3297 -1.3270 -0.2699
18329SOL    HW256230   4.440   3.287   2.816 -1.8687 -2.3056  0.0276
18330SOL     OW56231   1.387   6.961   3.984  0.2841 -0.1186 -0.7194
18330SOL    HW156232   1.409   6.963   3.891  0.4965  0.2645 -0.6627
18330SOL    HW256233   1.447   6.897   4.022  1.0820  0.6734 -0.6254
18331SOL     OW56234   5.211   7.361   8.001 -0.8551  0.1958  0.4727
18331SOL    HW156235   5.236   7.324   8.085  0.9687  0.7607  0.2104
18331SOL    HW256236   5.215   7.456   8.014  0.0173  0.2939 -0.3751
18332SOL     OW56237   7.335   5.141   6.288 -0.2216 -0.0202  0.2693
18332SOL    HW156238   7.344   5.123   6.381 -0.6112 -1.5490  0.0303
18332SOL    HW256239   7.281   5.069   6.255 -0.5166  0.7833 -1.0400
18333SOL     OW56240   7.780   5.598   5.576 -0.6608  0.3036  0.3190
18333SOL    HW156241   7.873   5.578   5.588 -0.5538  0.9009  0.4976
18333SOL    HW256242   7.765   5.673   5.633 -0.7571  1.5555 -1.3297
18334SOL     OW56243   3.661   7.793   2.171 -0.1323  0.1049 -0.1411
18334SOL    HW156244   3.602   7.868   2.163  0.5387  0.5941 -0.5532
18334SOL    HW256245   3.723   7.819   2.239 -1.1030 -0.8920  1.1459
18335SOL     OW56246   0.883   5.488   7.405 -0.4155 -0.4666 -0.3472
18335SOL    HW156247   0.877   5.524   7.317  0.5923  0.6374  0.0250
18335SOL    HW256248   0.822   5.541   7.457  0.6564  0.3588  0.0851
18336SOL     OW56249   5.167   4.532   6.722  0.3481  0.2447 -0.5196
18336SOL    HW156250   5.113   4.518   6.800 -0.5580 -0.1652 -1.2224
18336SOL    HW256251   5.257   4.531   6.756 -0.0983  1.8636  0.8017
18337SOL     OW56252   3.538   5.998   6.042 -0.1111 -1.1051 -0.4568
18337SOL    HW156253   3.563   5.906   6.052 -0.7069 -0.9849  2.6940
18337SOL    HW256254   3.585   6.043   6.112  1.7300  1.3609 -3.1548
18338SOL     OW56255   8.116   2.133   5.976  0.0390 -0.0084  0.2075
18338SOL    HW156256   8.169   2.105   5.902  0.1491  0.6706  0.0355
18338SOL    HW256257   8.069   2.053   6.003  0.7404 -0.4814  0.0337
18339SOL     OW56258   1.992   6.574   2.054  0.2082 -0.6896  0.1826
18339SOL    HW156259   1.946   6.601   2.134  1.1576 -0.8400  0.8010
18339SOL    HW256260   2.004   6.655   2.005 -0.9007 -0.6855 -0.0930
18340SOL     OW56261   1.565   7.207   3.022 -0.1491  0.2101 -0.0235
18340SOL    HW156262   1.601   7.276   2.967 -1.8954  0.1990 -1.2227
18340SOL    HW256263   1.483   7.182   2.979 -0.3329 -1.4997  1.2576
18341SOL     OW56264   5.552   3.510   8.241  0.1123  0.2490  0.3044
18341SOL    HW156265   5.504   3.497   8.323  0.4249  2.0825  0.7937
18341SOL    HW256266   5.509   3.585   8.200  1.0553  0.4240 -0.3722
18342SOL     OW56267   6.390   6.309   1.567 -0.2395 -0.7048  0.6463
18342SOL    HW156268   6.371   6.221   1.534 -1.7827  0.0981 -0.6826
18342SOL    HW256269   6.316   6.330   1.624 -0.0407 -0.1393  0.7037
18343SOL     OW56270   0.526   2.046   5.173 -0.1595 -0.1594  0.5215
18343SOL    HW156271   0.488   2.030   5.086  0.5138 -1.9082  0.5119
18343SOL    HW256272   0.470   1.997   5.233  2.3803 -3.3934  0.4186
18344SOL     OW56273   5.042   6.995   3.636  0.3552 -0.2929  0.0646
18344SOL    HW156274   5.032   6.918   3.692 -0.8438 -0.6227 -0.5933
18344SOL    HW256275   4.972   6.988   3.572  0.2803  1.3047 -0.0580
18345SOL     OW56276   5.524   7.191   1.076 -0.9073 -0.0983  0.0792
18345SOL    HW156277   5.583   7.258   1.113 -0.0708  0.0320 -1.4343
18345SOL    HW256278   5.579   7.113   1.068 -2.1794 -1.3757  2.9026
18346SOL     OW56279   0.056   5.322   1.301 -0.5775 -0.1834 -0.2891
18346SOL    HW156280   0.137   5.336   1.349 -0.7054  1.0141 -0.4159
18346SOL    HW256281   0.054   5.228   1.284 -1.0104 -0.7765  2.8755
18347SOL     OW56282   1.307   4.282   1.583 -0.1902  0.2520 -0.2025
18347SOL    HW156283   1.347   4.348   1.526 -0.8520  0.0303 -0.9350
18347SOL    HW256284   1.355   4.289   1.665  0.1104  1.2724 -0.4571
18348SOL     OW56285   3.394   8.013   4.149  0.2321  0.6260 -0.5348
18348SOL    HW156286   3.312   7.981   4.111 -0.1335  1.1791 -0.2124
18348SOL    HW256287   3.408   8.098   4.108  0.7917  0.4200 -0.7893
18349SOL     OW56288   5.041   3.896   1.186  0.1686  0.3163 -0.3035
18349SOL    HW156289   5.087   3.953   1.248  0.9677 -0.5660 -0.0715
18349SOL    HW256290   4.951   3.893   1.218  0.1088  1.5055 -0.3587
18350SOL     OW56291   2.746   3.808   1.442 -0.1944 -0.1708  0.3330
18350SOL    HW156292   2.704   3.805   1.356  0.1631 -0.6158  0.1721
18350SOL    HW256293   2.837   3.784   1.424  0.1913  1.0582  0.6310
18351SOL     OW56294   6.810   4.355   2.642 -0.1150 -0.0627  0.0524
18351SOL    HW156295   6.836   4.263   2.640 -0.7004 -0.2226 -0.2879
18351SOL    HW256296   6.778   4.373   2.554 -1.4750  0.0345  0.5556
18352SOL     OW56297   8.048   0.018   4.768  0.3223 -0.1268 -0.2139
18352SOL    HW156298   8.028  -0.061   4.719 -0.8566  0.2008 -0.2778
18352SOL    HW256299   7.963   0.045   4.805  0.6638  1.2376 -0.4112
18353SOL     OW56300   4.312   3.733   4.390 -0.4713  0.5786  0.0605
18353SOL    HW156301   4.324   3.668   4.321  0.0010  1.3875 -0.6328
18353SOL    HW256302   4.321   3.817   4.346 -1.6952  1.1269  0.8352
18354SOL     OW56303   1.376   0.536   6.764  0.3262  0.3809 -0.3335
18354SOL    HW156304   1.459   0.530   6.717  0.4074 -1.3474 -0.0016
18354SOL    HW256305   1.310   0.514   6.698  0.3779 -1.2442  0.1406
18355SOL     OW56306   2.462   4.941   2.939 -0.3410  0.6566  0.3183
18355SOL    HW156307   2.398   4.919   2.871 -0.9191 -1.1083  1.4031
18355SOL    HW256308   2.529   4.992   2.893 -1.6638  1.0671 -1.1865
18356SOL     OW56309   5.764   2.986   2.084 -0.1622 -0.4774 -0.0206
18356SOL    HW156310   5.838   3.032   2.044 -0.2765 -0.7121 -0.5058
18356SOL    HW256311   5.698   3.054   2.097  0.3766 -0.1382  1.0190
18357SOL     OW56312   2.537   3.565   3.217  0.3756 -0.0516 -0.2249
18357SOL    HW156313   2.585   3.493   3.177  0.2481 -0.1013 -0.2888
18357SOL    HW256314   2.598   3.639   3.216 -0.3545  0.5492 -2.4643
18358SOL     OW56315   8.308   2.557   4.669 -0.1391 -0.4076 -0.0854
18358SOL    HW156316   8.270   2.480   4.626  1.2388 -0.3022 -1.5055
18358SOL    HW256317   8.346   2.523   4.750  0.8876 -1.3108 -0.9362
18359SOL     OW56318   6.791   8.081   4.660 -0.3926  0.1278  0.5602
18359SOL    HW156319   6.712   8.093   4.607  0.1072 -1.3128 -0.5582
18359SOL    HW256320   6.859   8.057   4.596  0.3157 -1.2559  1.8119
18360SOL     OW56321   4.400   1.694   2.319  0.1888 -0.9887 -0.0519
18360SOL    HW156322   4.418   1.731   2.233 -0.7064 -0.4425 -0.0089
18360SOL    HW256323   4.356   1.765   2.366 -0.4192 -1.7017  0.4472
18361SOL     OW56324   3.976   7.361   2.399  0.6846  0.1422 -0.4585
18361SOL    HW156325   3.890   7.348   2.360 -0.2989  0.5673  1.4913
18361SOL    HW256326   4.009   7.273   2.414 -0.8881 -0.0921  1.8730
18362SOL     OW56327   0.227   4.209   5.885 -0.1129  0.1244 -0.3110
18362SOL    HW156328   0.286   4.278   5.914 -0.8149  0.5034  0.2561
18362SOL    HW256329   0.141   4.252   5.882 -0.8509 -1.1141  1.6583
18363SOL     OW56330   5.542   4.735   7.186  0.1465  0.4493 -0.2909
18363SOL    HW156331   5.634   4.738   7.157  0.3665  0.6397  0.4109
18363SOL    HW256332   5.516   4.644   7.175  0.8571  0.0987  0.8287
18364SOL     OW56333   1.138   1.113   6.113 -0.5038  0.4929  0.0577
18364SOL    HW156334   1.144   1.179   6.182 -2.5493 -0.5836  1.3240
18364SOL    HW256335   1.045   1.093   6.107 -0.2073 -0.4636 -2.0721
18365SOL     OW56336   6.809   6.679   0.861 -0.7547  0.5300 -0.8504
18365SOL    HW156337   6.825   6.652   0.952 -0.1335 -1.1558 -1.4347
18365SOL    HW256338   6.870   6.752   0.847  0.5161 -0.4245 -0.4752
18366SOL     OW56339   0.603   4.590   2.946 -0.3156 -0.2173  0.1639
18366SOL    HW156340   0.666   4.613   2.879 -2.4628  1.2495 -1.3924
18366SOL    HW256341   0.525   4.562   2.898 -1.3726 -0.5868  2.0302
18367SOL     OW56342   4.515   6.070   4.091 -0.1288 -0.3606 -0.5024
18367SOL    HW156343   4.610   6.078   4.103  0.1713 -2.5503 -1.1012
18367SOL    HW256344   4.489   6.002   4.153 -0.9137 -1.4210 -1.9756
18368SOL     OW56345   8.018   1.326   1.986 -0.0720 -0.1360 -0.0561
18368SOL    HW156346   8.081   1.388   1.950  0.7421 -0.4539  0.7711
18368SOL    HW256347   7.963   1.378   2.044 -0.7407  0.1933 -0.9918
18369SOL     OW56348   1.409   4.236   1.837 -0.6237  0.0638 -0.2632
18369SOL    HW156349   1.415   4.157   1.892 -1.5310 -0.7042 -1.2466
18369SOL    HW256350   1.406   4.308   1.900  0.3562 -0.6718  0.6489
18370SOL     OW56351   3.961   1.910   7.265 -0.3026  0.1718  0.2885
18370SOL    HW156352   3.895   1.910   7.196  0.1401 -0.3837 -0.1417
18370SOL    HW256353   4.045   1.907   7.218  0.0033 -0.1080  0.8462
18371SOL     OW56354   8.226   5.111   4.773 -0.2063  0.0852 -0.6000
18371SOL    HW156355   8.227   5.028   4.726  2.0860 -0.8484  1.0305
18371SOL    HW256356   8.316   5.122   4.805 -1.4546  1.1271  2.7692
18372SOL     OW56357   7.493   5.016   2.947  0.1196  0.7655  0.8104
18372SOL    HW156358   7.550   5.048   3.017  0.9871  1.2419 -0.1113
18372SOL    HW256359   7.550   4.961   2.893 -1.1136 -1.6015  1.8285
18373SOL     OW56360   5.194   6.479   6.057  0.8529 -0.0472 -0.2313
18373SOL    HW156361   5.156   6.434   6.132  1.9874  1.7930  1.5035
18373SOL    HW256362   5.194   6.572   6.081  0.3127  0.6973 -2.9310
18374SOL     OW56363   1.975   1.760   7.567 -0.2087  0.9564  0.1315
18374SOL    HW156364   1.952   1.700   7.496  1.9522  0.3058 -0.0630
18374SOL    HW256365   1.898   1.759   7.625 -0.8503 -0.7659 -0.7043
18375SOL     OW56366   5.689   5.844   4.823 -0.3440 -0.1210 -0.3181
18375SOL    HW156367   5.707   5.935   4.798 -1.2886 -0.2991 -1.7269
18375SOL    HW256368   5.704   5.794   4.743 -0.4029 -1.1342  0.2985
18376SOL     OW56369   3.215   2.104   4.987  0.0404  0.1907  0.3280
18376SOL    HW156370   3.265   2.056   4.921  0.9438 -2.3876  2.7819
18376SOL    HW256371   3.135   2.054   4.999  0.7451 -0.4689  2.5303
18377SOL     OW56372   3.618   3.016   6.959  0.2998 -0.3290 -0.0706
18377SOL    HW156373   3.658   3.097   6.991 -1.8803  0.5217  0.5748
18377SOL    HW256374   3.541   3.004   7.014  0.5980 -2.8643 -0.1585
18378SOL     OW56375   3.558   3.267   2.536 -0.5939  0.3012 -0.1990
18378SOL    HW156376   3.623   3.226   2.478 -0.2404  0.6746 -0.0673
18378SOL    HW256377   3.591   3.355   2.550 -0.2862 -0.0300  1.1967
18379SOL     OW56378   2.676   5.803   6.235 -0.1051  0.2887 -0.6994
18379SOL    HW156379   2.581   5.812   6.230 -0.0371  1.3710 -0.0478
18379SOL    HW256380   2.700   5.755   6.155 -1.1745  0.1197 -0.9176
18380SOL     OW56381   3.913   5.963   5.362  0.1314 -0.5291  0.3844
18380SOL    HW156382   3.844   5.964   5.296  0.8996 -1.5985 -0.4539
18380SOL    HW256383   3.913   5.873   5.395  2.1749 -0.9743 -0.7578
18381SOL     OW56384   7.093   1.398   4.705  0.6352  0.0465 -0.0024
18381SOL    HW156385   7.149   1.463   4.748  1.2940 -0.2562 -0.3893
18381SOL    HW256386   7.033   1.449   4.651  1.2878  0.3252 -0.4657
18382SOL     OW56387   3.371   3.205   7.343 -0.2706 -0.0514 -0.2812
18382SOL    HW156388   3.425   3.264   7.397  2.0141  0.4030 -2.9435
18382SOL    HW256389   3.332   3.263   7.277 -2.2350 -0.7380  0.2732
18383SOL     OW56390   5.748   5.597   8.110 -0.4597  0.0358 -0.1605
18383SOL    HW156391   5.786   5.511   8.090 -1.2658 -0.7991  1.7653
18383SOL    HW256392   5.662   5.576   8.145 -0.8354  1.6804 -0.1016
18384SOL     OW56393   1.461   7.345   4.924  0.2682  0.0255 -0.3855
18384SOL    HW156394   1.493   7.292   4.996  1.2996  1.2031  0.0403
18384SOL    HW256395   1.533   7.345   4.860  0.1109  0.5474 -0.5665
18385SOL     OW56396   7.160   4.756   0.440 -0.2270  0.2153 -0.3214
18385SOL    HW156397   7.141   4.663   0.451 -0.3421  0.3952  1.0719
18385SOL    HW256398   7.076   4.795   0.418 -0.6181  0.3010  1.2348
18386SOL     OW56399   6.433   6.256   2.225  0.3065  0.1061 -0.4381
18386SOL    HW156400   6.471   6.290   2.144 -1.7261  0.7233 -1.1626
18386SOL    HW256401   6.344   6.293   2.228  0.8954  1.4425  2.8956
18387SOL     OW56402   5.542   4.130   4.243  0.2569 -0.0915 -0.1282
18387SOL    HW156403   5.542   4.056   4.303  1.3907  0.5870  0.7314
18387SOL    HW256404   5.503   4.096   4.162 -0.3398 -1.2796  0.6549
18388SOL     OW56405   0.286   3.602   5.739 -0.3915 -0.4521 -0.0792
18388SOL    HW156406   0.372   3.617   5.699  0.7171 -0.8817  2.0540
18388SOL    HW256407   0.245   3.689   5.740 -0.1308 -0.3053 -1.4146
18389SOL     OW56408   7.913   3.742   7.050  0.0596 -0.5920 -0.2138
18389SOL    HW156409   7.915   3.661   7.101  0.3647 -0.9549 -0.7952
18389SOL    HW256410   8.004   3.773   7.051 -0.0789 -0.1883  0.1102
18390SOL     OW56411   1.306   2.263   7.284  0.0494 -0.0902  0.3456
18390SOL    HW156412   1.379   2.296   7.231 -1.9909  2.6159 -0.9568
18390SOL    HW256413   1.319   2.303   7.370  1.6421 -1.9292  0.9719
18391SOL     OW56414   7.915   0.928   7.605 -0.0581 -0.1139 -0.1671
18391SOL    HW156415   7.828   0.963   7.621  0.5843  0.3038  2.7796
18391SOL    HW256416   7.904   0.833   7.605 -0.4348 -0.0705  0.7618
18392SOL     OW56417   3.976   0.403   3.258  0.2437 -0.0454  0.1209
18392SOL    HW156418   3.924   0.469   3.304  2.4961 -0.8220  4.0075
18392SOL    HW256419   3.927   0.322   3.271 -1.3076  0.3855 -2.6406
18393SOL     OW56420   6.285   0.400   2.067  0.4544 -0.2717 -0.0254
18393SOL    HW156421   6.223   0.472   2.060 -0.7403 -1.1217  1.6315
18393SOL    HW256422   6.367   0.435   2.030  0.1588  2.2319  1.6164
18394SOL     OW56423   1.450   7.836   4.234  0.2124 -0.4155  0.2993
18394SOL    HW156424   1.414   7.759   4.276 -0.2043 -0.1071  0.5069
18394SOL    HW256425   1.536   7.808   4.202  0.2306 -0.8465  0.7290
18395SOL     OW56426   3.918   7.865   7.623  0.1236  0.4247 -0.2416
18395SOL    HW156427   3.917   7.792   7.561 -2.5050  0.3485 -0.1702
18395SOL    HW256428   4.007   7.866   7.657  0.2762 -2.5848 -0.4326
18396SOL     OW56429   7.700   0.798   7.075  0.2425  0.3737  0.4727
18396SOL    HW156430   7.680   0.864   7.141 -0.6726 -0.2790  0.8569
18396SOL    HW256431   7.617   0.783   7.030  0.2576 -1.0557  0.8987
18397SOL     OW56432   6.881   6.234   1.752  0.3195 -0.1297  0.6371
18397SOL    HW156433   6.858   6.273   1.667  0.7915 -0.2645  0.4510
18397SOL    HW256434   6.885   6.309   1.812  3.0761  0.3473 -0.1072
18398SOL     OW56435   8.243   7.389   4.724 -0.4709 -0.7911 -0.4129
18398SOL    HW156436   8.238   7.308   4.674 -0.4924 -0.5508 -0.7988
18398SOL    HW256437   8.317   7.375   4.784  0.0662 -0.7661 -1.0650
18399SOL     OW56438   1.872   6.973   0.964 -0.0301  0.0752 -0.3091
18399SOL    HW156439   1.935   6.961   0.892  1.2218 -0.7105  0.8783
18399SOL    HW256440   1.837   6.885   0.979  0.1427  0.1281  0.4080
18400SOL     OW56441   1.352   1.970   6.671  0.6727  0.3168  0.7776
18400SOL    HW156442   1.416   1.918   6.624  0.9596  1.0023  0.3964
18400SOL    HW256443   1.350   2.054   6.624 -1.0555  0.0358  0.3328
18401SOL     OW56444   0.418   6.328   4.297  0.3632 -0.0852 -0.3439
18401SOL    HW156445   0.510   6.348   4.313  0.2606  1.0201 -1.0952
18401SOL    HW256446   0.419   6.248   4.245  0.9319  0.4560 -1.1646
18402SOL     OW56447   5.379   3.763   2.208  0.5582 -0.3904 -0.1935
18402SOL    HW156448   5.336   3.717   2.136  1.4519  0.0331 -1.0094
18402SOL    HW256449   5.470   3.735   2.204  1.1340  1.5024 -0.7720
18403SOL     OW56450   5.818   7.255   6.529  0.3792 -0.4123 -0.1535
18403SOL    HW156451   5.789   7.338   6.568 -1.3052 -1.4615  0.8705
18403SOL    HW256452   5.763   7.245   6.451 -1.0068 -1.6785  0.9763
18404SOL     OW56453   2.174   0.080   2.441  0.2362  0.3182  0.3315
18404SOL    HW156454   2.091   0.046   2.409  0.8443 -1.2380  0.3898
18404SOL    HW256455   2.150   0.138   2.513 -0.7400 -0.9643  1.0591
18405SOL     OW56456   6.487   1.458   1.316 -0.5634  0.0212  0.1303
18405SOL    HW156457   6.430   1.531   1.340  0.7668  0.7434  1.1832
18405SOL    HW256458   6.478   1.396   1.388  0.6564  0.5465  0.7467
18406SOL     OW56459   1.191   2.472   0.712 -0.4753  0.0011 -0.5007
18406SOL    HW156460   1.253   2.516   0.770 -0.7256 -0.8894  0.4519
18406SOL    HW256461   1.106   2.483   0.755 -0.6210 -0.8996 -0.5529
18407SOL     OW56462   1.190   5.047   1.408 -0.3576 -0.3636  0.0821
18407SOL    HW156463   1.122   4.989   1.444 -0.5180 -1.0958 -1.3647
18407SOL    HW256464   1.224   4.999   1.333  1.7861 -0.0064  0.7965
18408SOL     OW56465   4.115   0.022   3.313  0.7996  0.0034  0.1260
18408SOL    HW156466   4.199   0.068   3.324  0.5477  0.4531  0.2057
18408SOL    HW256467   4.088   0.042   3.224  0.8605 -0.2805  0.0450
18409SOL     OW56468   7.748   5.377   5.750  0.6423 -0.0537  0.1893
18409SOL    HW156469   7.704   5.433   5.814  1.5149  0.3380  0.4648
18409SOL    HW256470   7.748   5.429   5.669 -1.8327 -1.1695 -0.5822
18410SOL     OW56471   8.055   4.248   2.438 -0.4868 -0.6854  0.3131
18410SOL    HW156472   8.048   4.291   2.524 -1.5723 -1.3516  0.5729
18410SOL    HW256473   7.985   4.287   2.386  0.1087 -0.3545 -0.2495
18411SOL     OW56474   4.118   1.413   4.900  0.7276 -0.2210 -0.4637
18411SOL    HW156475   4.041   1.412   4.958 -0.4573 -2.8680 -1.9606
18411SOL    HW256476   4.189   1.378   4.955  0.0223 -1.0710 -0.0622
18412SOL     OW56477   2.894   2.401   2.091 -0.3877  0.7891 -0.3660
18412SOL    HW156478   2.802   2.397   2.066 -0.4979  1.4700 -0.0887
18412SOL    HW256479   2.892   2.411   2.186  0.0183 -1.6047 -0.0593
18413SOL     OW56480   4.196   1.009   2.485 -0.0764  0.0607  0.5226
18413SOL    HW156481   4.276   1.049   2.517  0.1384  1.3338 -1.4893
18413SOL    HW256482   4.218   0.916   2.474  0.9858  0.3181  0.4448
18414SOL     OW56483   6.551   6.158   3.780 -0.4757  0.3238 -0.2888
18414SOL    HW156484   6.577   6.167   3.688  1.2952  2.8329  0.3987
18414SOL    HW256485   6.482   6.224   3.792 -0.6104  0.0968  0.2094
18415SOL     OW56486   5.290   0.382   8.088  0.0594 -0.1535 -0.6657
18415SOL    HW156487   5.241   0.439   8.146  0.0073 -1.9560  1.1168
18415SOL    HW256488   5.237   0.302   8.081  2.0084 -1.5756  0.1808
18416SOL     OW56489   0.855   6.122   0.501  0.6443  0.4699  0.5674
18416SOL    HW156490   0.851   6.029   0.519  2.0116  0.2720 -0.0834
18416SOL    HW256491   0.902   6.159   0.575  1.4163  0.4259  0.1056
18417SOL     OW56492   5.673   7.019   3.207  0.0315  0.4028 -0.4739
18417SOL    HW156493   5.765   7.046   3.210 -0.3196  1.5750 -0.0573
18417SOL    HW256494   5.638   7.060   3.128  0.0310 -0.6402 -1.0353
18418SOL     OW56495   5.755   7.902   4.595 -0.1689  0.0335  0.3991
18418SOL    HW156496   5.765   7.841   4.521  1.0711  0.2524  0.3733
18418SOL    HW256497   5.822   7.876   4.657 -1.6479 -0.5609  1.7578
18419SOL     OW56498   2.181   7.255   7.035 -0.3896 -0.5296  0.0556
18419SOL    HW156499   2.180   7.272   7.129 -1.0749 -0.1239 -0.0266
18419SOL    HW256500   2.251   7.190   7.024  0.3403  0.1297  0.7184
18420SOL     OW56501   1.069   5.010   0.012  0.0631  0.0658 -0.0325
18420SOL    HW156502   1.027   5.022   0.097  0.8399 -1.4850  0.5912
18420SOL    HW256503   1.063   5.096  -0.030 -0.3986  0.8344  1.5549
18421SOL     OW56504   0.510   2.916   4.940  0.1470 -0.3844 -0.0457
18421SOL    HW156505   0.521   2.912   5.035  2.2473 -1.4647 -0.3017
18421SOL    HW256506   0.529   3.007   4.917 -0.5237 -0.0826  0.5801
18422SOL     OW56507   0.470   3.148   7.144  0.2918  0.0517 -0.3973
18422SOL    HW156508   0.512   3.219   7.095 -0.7915  1.2591  0.3829
18422SOL    HW256509   0.380   3.145   7.111 -0.4574  0.8938  1.4877
18423SOL     OW56510   4.845   0.088   3.696  0.0842 -0.4166 -0.0795
18423SOL    HW156511   4.898   0.058   3.770  1.5891 -1.8536 -1.7014
18423SOL    HW256512   4.762   0.041   3.705  1.2267 -2.6121 -0.7632
18424SOL     OW56513   8.272   4.217   3.524  0.3518 -0.3796  0.1103
18424SOL    HW156514   8.247   4.140   3.473  1.5801 -1.0315  0.4800
18424SOL    HW256515   8.196   4.234   3.580 -0.2431 -0.8285 -0.5423
18425SOL     OW56516   3.338   6.285   2.691 -0.3748 -0.1828  0.0475
18425SOL    HW156517   3.251   6.245   2.701 -0.6145  0.3171 -0.0246
18425SOL    HW256518   3.348   6.339   2.770 -0.4706  0.3919 -0.3297
18426SOL     OW56519   6.734   5.794   1.427  0.2780  0.8045 -0.2788
18426SOL    HW156520   6.730   5.765   1.336  0.1107  0.9239 -0.3086
18426SOL    HW256521   6.801   5.738   1.467  1.0871  1.4448 -0.7285
18427SOL     OW56522   3.328   4.243   5.666 -0.6346 -0.0221  0.8978
18427SOL    HW156523   3.292   4.324   5.632  0.7978  0.5887  0.7887
18427SOL    HW256524   3.261   4.177   5.648 -0.7242  0.6512 -1.3747
18428SOL     OW56525   0.096   2.958   8.210 -0.3417  0.3813  0.6840
18428SOL    HW156526   0.067   3.048   8.198 -1.5573  0.2024  2.1501
18428SOL    HW256527   0.190   2.964   8.223 -0.3208  1.3697  0.0843
18429SOL     OW56528   4.096   6.015   1.264  0.0571 -0.0075 -0.6499
18429SOL    HW156529   4.044   5.952   1.215 -3.5699  1.0282  1.6858
18429SOL    HW256530   4.034   6.084   1.288  2.4008  1.0506  2.6783
18430SOL     OW56531   0.091   6.073   1.091  0.3219 -0.5033  0.0281
18430SOL    HW156532   0.058   6.156   1.124  0.2154 -0.6103  0.1930
18430SOL    HW256533   0.140   6.096   1.012  0.9442 -0.1972  0.4978
18431SOL     OW56534   5.353   5.139   5.501 -0.1599  0.0325 -0.4829
18431SOL    HW156535   5.342   5.065   5.441 -1.1861 -0.2689  0.0695
18431SOL    HW256536   5.315   5.214   5.454 -1.5617 -0.3354  0.0508
18432SOL     OW56537   6.827   1.058   5.610  0.6753 -0.1853 -0.1917
18432SOL    HW156538   6.812   1.020   5.696 -0.9806  1.2898  0.1927
18432SOL    HW256539   6.862   1.145   5.627 -2.1024  1.1355 -0.9219
18433SOL     OW56540   2.796   5.167   4.924 -0.2137 -0.0095  0.3050
18433SOL    HW156541   2.825   5.100   4.862  0.3941 -0.3224  0.9129
18433SOL    HW256542   2.819   5.250   4.882 -0.7883 -0.1901 -0.3619
18434SOL     OW56543   5.681   4.193   1.201 -0.2658  0.3667 -0.3819
18434SOL    HW156544   5.701   4.208   1.108 -0.3283  3.2819  0.0264
18434SOL    HW256545   5.678   4.281   1.239  0.7060 -0.8456  2.5959
18435SOL     OW56546   6.695   2.592   7.720  0.2886 -0.1423 -0.3479
18435SOL    HW156547   6.709   2.621   7.810  0.7016 -0.6028 -0.2659
18435SOL    HW256548   6.605   2.618   7.701  0.7488  1.4542 -0.3754
18436SOL     OW56549   7.477   2.714   4.154 -0.1840  0.2002 -0.2741
18436SOL    HW156550   7.430   2.744   4.232  0.0467 -0.0833 -0.0248
18436SOL    HW256551   7.440   2.627   4.135  0.1438  0.0321 -0.1540
18437SOL     OW56552   3.246   6.688   1.992 -0.2678 -0.5966 -0.3755
18437SOL    HW156553   3.234   6.661   2.084 -0.8136  0.9300  0.0151
18437SOL    HW256554   3.309   6.761   1.997 -0.3257 -0.4923 -1.2145
18438SOL     OW56555   5.098   4.989   5.320  0.1028 -0.0485  0.0759
18438SOL    HW156556   5.186   4.970   5.288  0.8418 -0.7412  2.4142
18438SOL    HW256557   5.042   4.979   5.243  1.4201 -4.5454 -0.4524
18439SOL     OW56558   4.391   2.302   0.577 -0.4862 -0.2646 -0.1671
18439SOL    HW156559   4.451   2.375   0.593  0.2663 -0.5926 -1.3787
18439SOL    HW256560   4.313   2.323   0.627  0.7554  0.0299  1.7081
18440SOL     OW56561   3.051   6.488   6.162  0.5006  0.3912 -0.1432
18440SOL    HW156562   3.134   6.484   6.210  0.1682 -1.6517  0.3244
18440SOL    HW256563   3.055   6.412   6.103 -0.3057  1.2686 -1.3601
18441SOL     OW56564   5.404   0.013   0.088 -0.4191  0.1914  0.2880
18441SOL    HW156565   5.426  -0.014   0.177  1.6993  0.0436 -0.2404
18441SOL    HW256566   5.368  -0.066   0.047  1.5098 -0.6246  0.1057
18442SOL     OW56567   7.881   2.283   0.266 -0.3830  0.4987 -0.1113
18442SOL    HW156568   7.880   2.276   0.361 -0.9900 -0.1530 -0.1611
18442SOL    HW256569   7.793   2.257   0.239 -0.2933  0.9302 -0.8313
18443SOL     OW56570   6.873   4.701   0.763  0.2957  0.1825 -0.0307
18443SOL    HW156571   6.874   4.624   0.705  1.8735 -0.7909  1.2306
18443SOL    HW256572   6.965   4.711   0.789  0.0459  2.3265  0.0740
18444SOL     OW56573   1.723   0.848   6.572  0.0295 -0.2112 -0.7672
18444SOL    HW156574   1.736   0.756   6.593  1.2262  0.4175  1.4502
18444SOL    HW256575   1.693   0.888   6.654  0.8127  1.6097 -1.3300
18445SOL     OW56576   1.045   4.877   0.474  0.6076  0.2268 -0.5272
18445SOL    HW156577   1.098   4.940   0.425  1.6375 -0.1866  0.0435
18445SOL    HW256578   1.067   4.893   0.566 -0.0692 -0.1135 -0.3031
18446SOL     OW56579   7.740   6.540   7.949 -0.3329 -0.0316 -0.6923
18446SOL    HW156580   7.702   6.607   8.005  2.3808 -0.2638  1.5518
18446SOL    HW256581   7.696   6.459   7.976  1.1263 -0.1881  1.3800
18447SOL     OW56582   1.073   3.595   6.622  0.0630 -0.5161 -0.0924
18447SOL    HW156583   1.063   3.622   6.713  0.7821 -0.0626 -0.1400
18447SOL    HW256584   1.002   3.533   6.607  0.3192 -1.0719  0.9649
18448SOL     OW56585   8.165   2.672   0.572 -0.1148 -0.0018 -0.4144
18448SOL    HW156586   8.079   2.708   0.551 -0.6086 -1.5909 -1.1940
18448SOL    HW256587   8.148   2.607   0.640  0.4951 -0.2197 -0.4685
18449SOL     OW56588   5.133   4.432   5.824 -0.0159  0.1004  0.0718
18449SOL    HW156589   5.103   4.510   5.778 -0.5548 -1.5122 -2.3614
18449SOL    HW256590   5.218   4.411   5.785 -0.0588 -0.7584  0.4108
18450SOL     OW56591   4.810   0.478   0.085  0.4924 -0.6362  0.3427
18450SOL    HW156592   4.883   0.426   0.051  0.9300  1.2526 -1.7649
18450SOL    HW256593   4.735   0.453   0.031  0.2038 -0.5927  0.7166
18451SOL     OW56594   6.682   1.344   0.223 -0.1424 -0.1272  0.5524
18451SOL    HW156595   6.735   1.304   0.154 -0.4898 -0.6414  0.5839
18451SOL    HW256596   6.665   1.273   0.284 -1.0147 -0.0045  0.4582
18452SOL     OW56597   4.155   0.871   4.443  0.2412 -0.7913  0.4254
18452SOL    HW156598   4.209   0.840   4.516  0.7077 -1.7509 -0.3078
18452SOL    HW256599   4.202   0.948   4.410  1.7739 -2.2461 -0.8891
18453SOL     OW56600   0.711   3.537   8.261 -0.1666  0.2352  0.1122
18453SOL    HW156601   0.626   3.492   8.263 -1.4739  2.5925 -0.3897
18453SOL    HW256602   0.753   3.511   8.343 -1.7695 -0.2646  0.8107
18454SOL     OW56603   1.150   6.082   2.949  0.1468 -0.8758 -0.1270
18454SOL    HW156604   1.111   6.012   2.895 -2.0058 -0.5819  0.9712
18454SOL    HW256605   1.199   6.035   3.016  0.3586 -1.2900 -0.5605
18455SOL     OW56606   0.971   8.026   5.055  0.1994 -0.1190 -0.5577
18455SOL    HW156607   0.945   8.072   5.135  1.1980 -0.3478 -0.1038
18455SOL    HW256608   0.925   8.073   4.985 -1.0252 -0.1822  0.1798
18456SOL     OW56609   3.058   7.955   6.529  0.1321 -0.0172  0.2280
18456SOL    HW156610   2.967   7.965   6.559 -0.7735  1.3600 -2.7286
18456SOL    HW256611   3.091   8.045   6.524  0.4754 -0.2224 -1.9777
18457SOL     OW56612   5.928   7.259   8.135 -0.3553 -0.7156  0.0433
18457SOL    HW156613   5.984   7.205   8.190 -2.0318 -1.6682  0.8369
18457SOL    HW256614   5.901   7.331   8.191  0.4413  0.0105 -0.4858
18458SOL     OW56615   7.627   4.285   6.717  0.2506  0.2771  0.0789
18458SOL    HW156616   7.606   4.373   6.747  3.0335  1.2916 -0.8012
18458SOL    HW256617   7.670   4.297   6.632  0.6877 -1.9227 -0.0645
18459SOL     OW56618   1.067   0.058   6.525  0.2155  0.9760  0.1380
18459SOL    HW156619   1.146   0.111   6.529  0.7214  0.1977  0.6489
18459SOL    HW256620   1.098  -0.033   6.528 -0.6683  0.6540 -0.0948
18460SOL     OW56621   3.756   0.900   5.951 -0.4591 -0.5831 -0.2590
18460SOL    HW156622   3.665   0.918   5.975 -0.6659 -2.0845  0.1722
18460SOL    HW256623   3.750   0.860   5.864 -0.0997  0.5243 -0.7939
18461SOL     OW56624   0.070   5.267   2.309  0.3551 -0.1162  0.5502
18461SOL    HW156625   0.015   5.260   2.387  0.5039 -0.0434  0.6619
18461SOL    HW256626   0.090   5.360   2.302 -0.7066  0.0451 -0.3036
18462SOL     OW56627   5.136   0.608   6.290 -0.3938  0.2757  0.9489
18462SOL    HW156628   5.179   0.643   6.368  0.2059 -0.8418  1.1342
18462SOL    HW256629   5.181   0.525   6.273 -0.5024  0.5280 -0.6115
18463SOL     OW56630   7.350   5.407   8.175  0.0939  0.2124  0.2893
18463SOL    HW156631   7.265   5.445   8.197  0.8503  1.9772  0.2613
18463SOL    HW256632   7.363   5.428   8.083  0.5640 -0.0253  0.3004
18464SOL     OW56633   2.970   5.592   8.036  0.0222  0.0747  0.5387
18464SOL    HW156634   3.030   5.525   8.067 -0.9116 -1.2205 -0.4061
18464SOL    HW256635   2.958   5.572   7.943 -1.3669  0.7030  0.5773
18465SOL     OW56636   6.906   6.843   7.739  0.0603  0.5228  0.3960
18465SOL    HW156637   6.813   6.821   7.737  0.3746 -1.0840  1.8500
18465SOL    HW256638   6.909   6.936   7.763 -1.1783  0.8327 -0.6086
18466SOL     OW56639   3.365   6.544   3.751  0.2197 -0.2265 -0.2009
18466SOL    HW156640   3.311   6.600   3.806 -1.0674  0.0169 -1.6850
18466SOL    HW256641   3.366   6.459   3.796  0.5559  0.4206  1.0379
18467SOL     OW56642   4.738   6.267   5.156  0.0134 -0.0041  0.3792
18467SOL    HW156643   4.682   6.190   5.146 -0.1584 -0.3381  3.4842
18467SOL    HW256644   4.826   6.231   5.168  0.1697  0.3581  0.3242
18468SOL     OW56645   5.604   3.952   3.520 -0.4206  0.5553  0.3072
18468SOL    HW156646   5.564   3.977   3.604  0.7072 -1.2842  1.4175
18468SOL    HW256647   5.583   3.859   3.510  2.0786 -0.0225  0.0762
18469SOL     OW56648   2.953   0.069   7.443 -0.4992  0.0646  0.2697
18469SOL    HW156649   2.937  -0.018   7.479 -0.8597  1.4686  3.6773
18469SOL    HW256650   3.047   0.082   7.452 -0.5013  0.1733  0.1350
18470SOL     OW56651   8.227   6.620   4.833 -0.1538 -0.0416  0.3311
18470SOL    HW156652   8.136   6.598   4.850  0.3618  0.0033  3.3892
18470SOL    HW256653   8.270   6.615   4.919  2.7264 -0.0934 -1.0355
18471SOL     OW56654   7.258   5.809   1.642 -0.1079  0.0072  0.1705
18471SOL    HW156655   7.313   5.745   1.597  0.1638  0.4708 -0.1609
18471SOL    HW256656   7.179   5.760   1.666  0.3806 -0.6200  0.5134
18472SOL     OW56657   7.635   4.570   6.119  0.2481  0.1055 -0.3656
18472SOL    HW156658   7.578   4.548   6.192 -0.7341  1.2094 -0.7860
18472SOL    HW256659   7.724   4.554   6.153 -0.2668 -1.2332  0.4171
18473SOL     OW56660   2.928   0.577   0.526 -0.5633  0.6917 -0.6545
18473SOL    HW156661   2.895   0.663   0.554 -1.1970  0.6637 -1.2969
18473SOL    HW256662   3.023   0.587   0.527 -0.6386  1.5938 -1.2984
18474SOL     OW56663   7.491   4.734   4.105 -0.2149 -0.0740  0.3534
18474SOL    HW156664   7.455   4.820   4.082  0.3427  0.5853  1.8937
18474SOL    HW256665   7.477   4.681   4.026  0.1062  1.6276 -0.8878
18475SOL     OW56666   6.439   3.348   6.381 -0.3627 -0.0163 -0.2688
18475SOL    HW156667   6.524   3.381   6.411 -0.8011  0.9120 -0.0378
18475SOL    HW256668   6.386   3.426   6.366 -1.6020 -0.6117  0.8172
18476SOL     OW56669   7.811   2.606   7.808 -0.5457 -0.2503  0.3172
18476SOL    HW156670   7.789   2.527   7.757 -0.9894  0.0656  0.0104
18476SOL    HW256671   7.857   2.662   7.746  0.5239 -0.6217  0.7741
18477SOL     OW56672   6.922   3.432   2.291  0.5925  0.1926 -0.6665
18477SOL    HW156673   7.005   3.410   2.334  1.3129  1.2737 -1.4659
18477SOL    HW256674   6.856   3.383   2.339  1.7540 -1.0247 -0.2902
18478SOL     OW56675   5.694   2.348   5.746 -0.3451 -0.5470  0.1236
18478SOL    HW156676   5.697   2.412   5.675  0.4152 -0.5743  0.1282
18478SOL    HW256677   5.672   2.400   5.824 -0.1554 -0.3593  0.0524
18479SOL     OW56678   1.489   0.080   8.093 -0.0871  0.5123  0.5034
18479SOL    HW156679   1.516   0.093   8.002  0.3909 -0.5439  0.4826
18479SOL    HW256680   1.394   0.071   8.089 -0.3374  2.9499  0.4129
18480SOL     OW56681   8.228   3.729   5.635  0.6892 -0.1145  0.3245
18480SOL    HW156682   8.178   3.803   5.602  0.5084 -0.2686  0.2484
18480SOL    HW256683   8.175   3.696   5.708  0.5093 -0.4920  0.0219
18481SOL     OW56684   4.076   3.800   5.085  0.1172 -0.0789 -0.6351
18481SOL    HW156685   4.010   3.733   5.069  0.3099  0.0137 -1.8974
18481SOL    HW256686   4.103   3.828   4.997  0.4366  1.2450 -0.1298
18482SOL     OW56687   0.010   7.959   3.828 -0.2004 -0.0416  0.3297
18482SOL    HW156688   0.040   7.982   3.916 -0.5933 -1.5408  0.8688
18482SOL    HW256689   0.035   7.868   3.818 -1.0423 -0.1568 -0.7439
18483SOL     OW56690   8.106   3.913   0.508  0.8946  0.2458 -0.1041
18483SOL    HW156691   8.098   3.820   0.485 -0.8237  0.1095  0.9696
18483SOL    HW256692   8.148   3.953   0.432  1.9036 -1.4560 -0.4641
18484SOL     OW56693   3.988   0.420   1.287  0.0719 -0.0088 -0.0780
18484SOL    HW156694   3.948   0.335   1.305  0.1096 -0.3326 -1.4554
18484SOL    HW256695   4.069   0.399   1.240 -0.0368  0.7845 -0.6333
18485SOL     OW56696   4.656   0.932   4.430 -0.2089 -0.0681  0.0417
18485SOL    HW156697   4.721   0.976   4.375 -1.5250  0.8226 -0.8099
18485SOL    HW256698   4.707   0.896   4.503  0.9732  2.3455  0.4508
18486SOL     OW56699   2.608   7.721   8.279 -0.2143  0.0593 -0.5152
18486SOL    HW156700   2.680   7.742   8.339 -2.1331  1.8044  1.2681
18486SOL    HW256701   2.581   7.633   8.303 -1.5391  1.0636  1.8845
18487SOL     OW56702   2.591   2.489   2.072 -0.1784 -0.2517 -0.1958
18487SOL    HW156703   2.579   2.519   1.982 -2.0752  1.1046  0.4832
18487SOL    HW256704   2.616   2.568   2.120  1.6039 -1.1147  0.3567
18488SOL     OW56705   2.371   4.049   4.234 -0.4661 -0.3284  0.2676
18488SOL    HW156706   2.382   3.971   4.179 -0.0463 -0.2640  0.2555
18488SOL    HW256707   2.309   4.022   4.302 -0.7066 -0.5190 -0.0264
18489SOL     OW56708   6.015   1.760   4.127  0.1269 -0.2642  0.2544
18489SOL    HW156709   6.075   1.756   4.054  1.1292  0.1689  1.0486
18489SOL    HW256710   6.032   1.844   4.169 -0.3158 -0.5721  1.0798
18490SOL     OW56711   2.528   2.400   2.329 -0.2680 -0.3684  0.2604
18490SOL    HW156712   2.590   2.333   2.357  0.3784  0.3071  0.4464
18490SOL    HW256713   2.564   2.436   2.249  0.0718  0.6769  0.8728
18491SOL     OW56714   6.356   0.024   5.332  0.2370 -0.0258 -0.0912
18491SOL    HW156715   6.396   0.031   5.245 -1.6684  0.4745 -0.9638
18491SOL    HW256716   6.334   0.114   5.356 -1.7127 -0.4209 -0.3120
18492SOL     OW56717   0.897   2.147   0.343 -0.1381 -0.2342 -0.0380
18492SOL    HW156718   0.971   2.193   0.383 -0.9129  0.9977  0.0048
18492SOL    HW256719   0.903   2.168   0.250 -1.5513  1.4779  0.2424
18493SOL     OW56720   4.408   3.428   3.675 -0.2931  0.2451 -0.1614
18493SOL    HW156721   4.354   3.453   3.600 -1.3289 -3.5955 -0.8155
18493SOL    HW256722   4.495   3.416   3.639 -0.1245  1.3077 -0.1313
18494SOL     OW56723   5.574   3.707   3.094  0.0424 -0.4613 -0.5204
18494SOL    HW156724   5.634   3.682   3.165 -0.0179 -0.3872 -0.4412
18494SOL    HW256725   5.499   3.745   3.140 -0.4298 -1.3100 -0.5857
18495SOL     OW56726   2.567   6.063   2.697  0.6269  0.0391  0.5997
18495SOL    HW156727   2.540   5.974   2.675  3.3778 -0.4381 -1.1888
18495SOL    HW256728   2.618   6.054   2.777  0.6292  0.0254  0.5968
18496SOL     OW56729   4.049   7.561   5.520  0.5319 -0.0457 -0.1977
18496SOL    HW156730   3.997   7.562   5.600 -0.8020 -1.0987 -1.0406
18496SOL    HW256731   4.091   7.475   5.520 -2.0040 -1.3418 -2.2113
18497SOL     OW56732   6.371   7.694   6.142  0.5387  0.5010 -0.4452
18497SOL    HW156733   6.338   7.648   6.220  1.7562 -0.9590 -0.7598
18497SOL    HW256734   6.297   7.744   6.111 -0.1011  0.7474  1.4073
18498SOL     OW56735   3.708   2.611   3.474  0.2810 -0.4300  1.0122
18498SOL    HW156736   3.713   2.516   3.468  0.5525 -0.3333 -0.5461
18498SOL    HW256737   3.762   2.634   3.550  2.3340 -1.3313 -0.1558
18499SOL     OW56738   6.628   7.012   4.384  0.3261 -0.3048 -0.2251
18499SOL    HW156739   6.704   7.033   4.439  0.6995 -0.7995 -0.5418
18499SOL    HW256740   6.648   6.925   4.350 -0.6951 -0.7171  0.2155
18500SOL     OW56741   2.932   5.585   7.755 -0.0442  0.1094 -0.0505
18500SOL    HW156742   2.888   5.606   7.673 -2.3538 -2.9117  0.3438
18500SOL    HW256743   2.979   5.503   7.737  1.1312  0.5144  1.0778
18501SOL     OW56744   7.260   4.660   2.099 -0.2259 -0.7082  0.0321
18501SOL    HW156745   7.203   4.712   2.156 -0.2426 -0.4939 -0.1803
18501SOL    HW256746   7.247   4.570   2.128 -1.3382 -0.7525 -0.5904
18502SOL     OW56747   0.704   0.323   0.496 -0.0969  0.2490 -1.0640
18502SOL    HW156748   0.774   0.387   0.510 -0.1130  0.3011 -1.2164
18502SOL    HW256749   0.729   0.278   0.415  1.0190 -1.4031  0.1796
18503SOL     OW56750   4.584   6.276   3.884  0.4101 -0.0840  0.2283
18503SOL    HW156751   4.668   6.264   3.840  0.1022  0.4599 -0.5119
18503SOL    HW256752   4.594   6.229   3.966  0.6599 -1.9468 -0.8359
18504SOL     OW56753   7.369   7.997   0.438 -0.3735  0.0361 -0.2029
18504SOL    HW156754   7.376   8.033   0.526  1.3405 -0.1022 -0.2637
18504SOL    HW256755   7.435   7.928   0.435 -0.1666  0.2838 -1.7120
18505SOL     OW56756   2.078   0.300   6.846  0.1266 -0.1936  0.2066
18505SOL    HW156757   2.145   0.345   6.897 -2.0482  2.2985  0.9813
18505SOL    HW256758   2.085   0.337   6.758  0.0808 -0.2678  0.1718
18506SOL     OW56759   0.798   2.218   7.747 -0.1644 -0.4559  0.3091
18506SOL    HW156760   0.748   2.297   7.768  0.1028 -0.6440  1.7184
18506SOL    HW256761   0.867   2.215   7.814  0.8157 -1.0102 -0.7092
18507SOL     OW56762   7.862   1.577   2.956 -0.0332  0.1828 -0.8343
18507SOL    HW156763   7.802   1.549   2.887 -0.6104 -0.5885 -0.0360
18507SOL    HW256764   7.945   1.592   2.911 -0.0398 -1.6463 -1.4838
18508SOL     OW56765   1.735   0.636   5.338  0.1257  0.8726  0.2803
18508SOL    HW156766   1.663   0.577   5.316  0.3005  0.5342  0.6169
18508SOL    HW256767   1.756   0.680   5.255  0.6432 -0.2375 -0.1908
18509SOL     OW56768   8.235   7.974   6.872 -0.5867  0.3032  0.1407
18509SOL    HW156769   8.199   8.061   6.889 -0.9636  0.4721 -1.4748
18509SOL    HW256770   8.283   7.983   6.790  0.2527 -0.7649  0.4990
18510SOL     OW56771   7.448   3.781   7.499  0.4472 -0.1852  0.0170
18510SOL    HW156772   7.454   3.864   7.452  0.7362  0.2198  0.7602
18510SOL    HW256773   7.432   3.805   7.590 -0.0452 -0.9625  0.1451
18511SOL     OW56774   4.342   7.218   2.563 -0.6813 -0.3135  0.3461
18511SOL    HW156775   4.383   7.232   2.477  1.6786 -0.1488  1.4390
18511SOL    HW256776   4.256   7.258   2.556 -0.7084 -0.7233 -2.0982
18512SOL     OW56777   4.704   5.757   6.211  0.3125 -0.7074  0.0978
18512SOL    HW156778   4.618   5.716   6.217  0.8430 -1.6150  1.9079
18512SOL    HW256779   4.763   5.695   6.253  1.5451  0.7344  0.5482
18513SOL     OW56780   3.637   1.772   5.169  0.3198 -0.1157  0.3273
18513SOL    HW156781   3.690   1.833   5.221  0.9254  0.1880 -0.6202
18513SOL    HW256782   3.688   1.691   5.169  1.1509  0.3943 -1.1850
18514SOL     OW56783   0.482   4.372   3.130 -0.1993  0.3164  0.1792
18514SOL    HW156784   0.540   4.313   3.178 -1.2005 -0.3264  0.6164
18514SOL    HW256785   0.541   4.431   3.084  0.8004 -0.2125  0.7598
18515SOL     OW56786   7.215   0.824   1.656 -0.3054 -0.1892 -0.4266
18515SOL    HW156787   7.210   0.919   1.644 -0.9482 -0.3081 -1.1039
18515SOL    HW256788   7.199   0.788   1.569  0.6174 -0.9062 -0.3112
18516SOL     OW56789   7.711   2.644   3.475 -0.0133  0.0586 -0.5119
18516SOL    HW156790   7.658   2.611   3.403 -0.7790 -1.4062  0.6855
18516SOL    HW256791   7.736   2.565   3.524 -0.0741  1.0634  1.1883
18517SOL     OW56792   3.651   3.477   4.804  0.3059  0.4614  0.0010
18517SOL    HW156793   3.566   3.438   4.827  0.2865  0.9416  0.7769
18517SOL    HW256794   3.629   3.544   4.739  0.0912  0.5504  0.1615
18518SOL     OW56795   3.032   6.707   6.414  0.1916  1.0963  0.3741
18518SOL    HW156796   2.962   6.771   6.400  0.2629  0.7776 -1.5146
18518SOL    HW256797   3.067   6.728   6.501 -1.3187  2.1388  0.7490
18519SOL     OW56798   1.513   0.712   7.020  0.3281 -0.2679  0.2828
18519SOL    HW156799   1.540   0.765   7.095 -0.8600  0.3523  0.2866
18519SOL    HW256800   1.425   0.681   7.043 -0.0862  0.0159 -0.8845
18520SOL     OW56801   6.501   6.059   7.931 -0.0613 -0.1506  0.3056
18520SOL    HW156802   6.525   6.035   7.841 -1.7149  1.0233 -0.4821
18520SOL    HW256803   6.549   6.140   7.948 -1.6091  0.9613 -0.4450
18521SOL     OW56804   3.564   8.241   6.272  0.4154 -0.0330  0.2634
18521SOL    HW156805   3.499   8.176   6.246 -0.7862  1.0593  0.5232
18521SOL    HW256806   3.581   8.222   6.364  0.8491 -0.6351  0.0645
18522SOL     OW56807   1.260   4.138   7.697 -0.6057 -0.0929  0.0953
18522SOL    HW156808   1.302   4.136   7.783 -0.2963 -0.0426 -0.0549
18522SOL    HW256809   1.313   4.079   7.643  0.2339  1.2393 -0.5434
18523SOL     OW56810   5.354   5.980   6.826  0.1197  0.3063  0.0356
18523SOL    HW156811   5.327   6.008   6.914  0.4346 -2.9690  1.2459
18523SOL    HW256812   5.445   5.953   6.837 -0.0365 -0.7150 -1.1786
18524SOL     OW56813   6.828   6.673   6.112 -0.1936 -0.0823  0.0181
18524SOL    HW156814   6.893   6.610   6.141 -1.2544 -0.8626  0.7473
18524SOL    HW256815   6.763   6.622   6.064 -0.9615  0.4732  0.4468
18525SOL     OW56816   6.573   1.939   7.662 -0.0029  0.1533  0.0681
18525SOL    HW156817   6.496   1.894   7.697  0.4410 -0.2944  0.4745
18525SOL    HW256818   6.607   1.880   7.595  0.9066 -0.3868  0.9932
18526SOL     OW56819   3.369   3.112   3.204  0.0106  0.2316 -0.2533
18526SOL    HW156820   3.303   3.141   3.141  2.5651  0.6940 -2.8192
18526SOL    HW256821   3.327   3.039   3.250 -2.7967  1.4332 -0.7723
18527SOL     OW56822   1.787   2.175   6.392  0.0602  0.5698 -0.0960
18527SOL    HW156823   1.714   2.184   6.453  0.8160 -0.5846  1.0053
18527SOL    HW256824   1.746   2.162   6.306 -1.0220 -0.1385  0.5227
18528SOL     OW56825   6.066   7.235   6.858  0.4579 -0.1096 -0.1350
18528SOL    HW156826   6.121   7.258   6.933 -0.1077 -0.9624  0.5437
18528SOL    HW256827   5.995   7.299   6.860  1.1909  0.7470 -0.7820
18529SOL     OW56828   4.659   7.216   1.571 -0.5941  0.3993  0.3869
18529SOL    HW156829   4.576   7.232   1.616 -0.8197  0.8785 -0.1975
18529SOL    HW256830   4.635   7.206   1.479  0.1235  1.7401  0.0419
18530SOL     OW56831   4.810   6.861   4.202  0.1565 -0.0822  0.4549
18530SOL    HW156832   4.755   6.791   4.169  0.1975 -0.5986  1.4722
18530SOL    HW256833   4.811   6.926   4.132 -0.5769 -0.7110 -0.1406
18531SOL     OW56834   2.909   3.270   0.643  0.2402  0.0456  0.1789
18531SOL    HW156835   2.903   3.311   0.557  3.0351 -1.3539 -0.7359
18531SOL    HW256836   2.876   3.181   0.629  3.5317 -1.1561 -0.1977
18532SOL     OW56837   7.503   3.327   2.197 -0.4123 -0.0144  0.2059
18532SOL    HW156838   7.418   3.322   2.154 -0.3213  3.5134 -0.5248
18532SOL    HW256839   7.564   3.354   2.128  1.0771 -1.2212  1.0072
18533SOL     OW56840   1.249   4.345   0.284  0.6881  0.4273 -0.8658
18533SOL    HW156841   1.266   4.272   0.344  2.0384  1.5860  0.1830
18533SOL    HW256842   1.182   4.311   0.224 -1.2050 -0.5345  1.7004
18534SOL     OW56843   6.272   4.595   2.686 -0.1688  0.3582  0.0523
18534SOL    HW156844   6.229   4.510   2.697 -0.0208  0.2242 -0.4076
18534SOL    HW256845   6.239   4.648   2.758 -0.5934  0.0453  0.0864
18535SOL     OW56846   0.345   3.264   0.305 -0.3194  0.3767 -0.4407
18535SOL    HW156847   0.302   3.261   0.390 -1.5734 -0.0668 -1.0720
18535SOL    HW256848   0.432   3.228   0.320 -1.1210 -1.2609  0.3266
18536SOL     OW56849   2.146   6.879   7.097  0.7001 -0.2023 -0.1068
18536SOL    HW156850   2.158   6.809   7.161  0.4575  0.0921  0.2651
18536SOL    HW256851   2.090   6.841   7.030  0.1505 -0.2028  0.3520
18537SOL     OW56852   8.197   5.624   6.503 -0.0718 -0.4177  0.7701
18537SOL    HW156853   8.286   5.624   6.467 -1.0430  2.3255 -1.7761
18537SOL    HW256854   8.171   5.532   6.502  2.1033 -1.0614 -0.0082
18538SOL     OW56855   4.345   6.069   0.702  0.6818  0.4004  0.5848
18538SOL    HW156856   4.318   6.025   0.783  0.8336  1.3269  1.1500
18538SOL    HW256857   4.270   6.123   0.677 -0.4302 -1.9821 -1.4445
18539SOL     OW56858   8.272   1.990   5.807 -0.6873  0.1593 -0.1023
18539SOL    HW156859   8.233   1.921   5.752 -0.0590  0.0801 -0.4520
18539SOL    HW256860   8.353   1.951   5.840 -1.4380 -0.0860  1.5262
18540SOL     OW56861   3.810   1.913   5.919 -0.3329 -0.0997 -0.0827
18540SOL    HW156862   3.733   1.925   5.976  0.3666  0.4914  0.7570
18540SOL    HW256863   3.874   1.869   5.975  0.7139  1.3710 -0.1008
18541SOL     OW56864   6.550   4.521   2.644  0.2534 -0.2488 -0.2844
18541SOL    HW156865   6.580   4.602   2.604  0.1602  1.2369  2.5679
18541SOL    HW256866   6.463   4.542   2.679 -0.5397 -2.0979 -1.0498
18542SOL     OW56867   0.330   0.513   6.236  0.5721 -0.7692  0.2992
18542SOL    HW156868   0.389   0.505   6.161  1.5891  1.2578  0.8490
18542SOL    HW256869   0.245   0.533   6.198  1.3306  1.4433 -0.2923
18543NA      NA56870   2.958   0.058   3.046 -0.1763 -0.1329  0.4423
18544NA      NA56871   3.170   0.937   4.228  0.3842 -0.5096 -0.2621
18545NA      NA56872   0.343   7.070   8.260  0.3012  0.1388  0.4605
18546NA      NA56873   3.632   5.684   3.190 -0.4052  0.2382  0.6255
18547NA      NA56874   6.322   3.573   0.925  0.2897  0.5970  0.7113
18548NA      NA56875   2.801   4.359   0.758  0.4352  0.4650  0.4463
18549NA      NA56876   0.020   1.432   3.964 -0.0618 -0.5888  0.2016
18550NA      NA56877   4.651   8.096   4.274 -0.2868 -0.2349  0.5059
18551NA      NA56878   6.247   3.323   8.210  0.3720 -0.0085 -0.7192
18552NA      NA56879   4.406   6.495   6.967 -0.3907  0.6475 -0.3112
18553NA      NA56880   5.513   6.201   2.496  0.2616  0.4132 -0.2412
18554NA      NA56881   5.293   1.528   6.144  0.6241 -0.5899 -0.5333
18555NA      NA56882   6.980   4.373   2.987  0.0911 -0.0084 -0.1950
18556NA      NA56883   5.578   0.760   0.149 -0.1523 -0.3605 -0.0327
18557NA      NA56884   1.303   4.134   5.890  0.0094 -0.2491 -0.1865
18558NA      NA56885   2.175   3.660   1.135 -0.1815  0.1673  0.0455
18559NA      NA56886   2.924   1.492   5.517  0.1574 -0.0390 -0.0238
18560NA      NA56887   4.234   1.731   4.651 -0.0103  0.3910  0.3794
18561NA      NA56888   2.869   8.255   1.461 -0.2916 -0.2251  0.1369
18562NA      NA56889   6.364   0.961   4.644  0.0731 -0.2925  0.2053
18563NA      NA56890   3.316   0.113   6.861 -0.2775  0.4503 -0.1407
18564NA      NA56891   6.467   6.330   1.148 -0.5225  0.3585 -0.4265
18565NA      NA56892   4.347   7.603   6.940 -0.6351 -0.0838  0.4374
18566NA      NA56893   0.027   7.538   7.824  0.0035 -0.2785  0.2819
18567NA      NA56894   3.544   2.640   1.244 -0.4296  0.7860 -0.0407
18568NA      NA56895   3.301   0.950   6.941 -0.2310 -0.4987 -0.3110
18569NA      NA56896   6.254   4.598   4.959  0.7356  0.3106 -0.0609
18570NA      NA56897   7.058   6.758   7.622 -0.1751  0.7754  0.2409
18571NA      NA56898   2.878   2.882   4.917 -0.0431 -0.0774 -0.4668
18572NA      NA56899   3.841   1.488   7.774  0.0030  0.5428  0.3409
18573NA      NA56900   7.508   1.617   6.976  0.6317 -0.2675  0.1597
18574NA      NA56901   3.287   2.211   4.019 -0.3984 -0.3786  0.2853
18575NA      NA56902   6.154   3.520   6.477 -0.1255 -0.0655 -0.1257
18576NA      NA56903   5.667   6.528   3.239 -0.1844 -0.6779  0.3341
18577NA      NA56904   5.283   7.481   5.680  0.6009 -0.1433 -0.3525
18578NA      NA56905   3.129   5.761   7.223  0.1227 -0.2554 -0.0059
18579NA      NA56906   0.141   7.868   1.164 -0.2168  0.1594 -0.4229
18580NA      NA56907   1.998   5.244   2.987  0.0392  0.2439  0.1416
18581NA      NA56908   3.618   4.260   7.210  0.2359  0.1095 -0.2763
18582NA      NA56909   7.789   5.713   4.972  0.2473 -0.3649  0.6580
18583NA      NA56910   0.670   7.496   4.965 -0.4252 -0.6788 -0.0635
18584NA      NA56911   0.418   8.174   6.173 -0.3383  0.0964 -0.3901
18585NA      NA56912   7.904   1.689   4.633  0.0993  0.0921 -0.4276
18586NA      NA56913   3.306   7.578   6.181  0.3892  0.1083  0.5405
18587NA      NA56914   4.602   5.336   4.466 -0.3663 -0.0824  0.0026
18588NA      NA56915   7.030   0.900   5.201 -0.0217 -0.4980  0.2520
18589NA      NA56916   1.962   2.703   2.577  0.0625  0.0316 -0.2730
18590NA      NA56917   1.668   0.176   3.570  0.1405  0.0361  0.1959
18591NA      NA56918   5.385   2.850   4.692  0.4899 -0.1634 -0.6717
18592NA      NA56919   4.736   5.929   6.069  0.0522 -0.0140  0.2679
18593NA      NA56920   6.704   1.520   1.256  0.1884 -0.1377 -0.5395
18594NA      NA56921   0.306   7.784   4.287 -0.0793 -0.3498 -0.1978
18595NA      NA56922   4.708   3.585   6.895 -0.3429  0.2943  0.1244
18596CL      CL56923   6.778   2.739   8.024  0.0954  0.5944  0.1197
18597CL      CL56924   6.120   5.476   5.183  0.3466 -0.3917 -0.0367
18598CL      CL56925   3.995   0.479   3.750 -0.2097 -0.1469  0.2887
18599CL      CL56926   4.144   0.625   7.634 -0.4588 -0.1986 -0.1191
18600CL      CL56927   6.370   1.410   2.976  0.1442  0.3757 -0.0404
18601CL      CL56928   7.949   4.677   6.628 -0.4280  0.0170  0.2037
18602CL      CL56929   6.986   2.774   1.127  0.0004  0.1840 -0.0179
18603CL      CL56930   7.431   2.950   3.473 -0.2784 -0.4101  0.3835
18604CL      CL56931   3.345   0.297   6.711  0.2204  0.7108  0.2393
18605CL      CL56932   0.364   8.083   5.109  0.1982 -0.2731  0.2103
18606CL      CL56933   3.193   1.080   6.156 -0.2269 -0.2774 -0.1716
18607CL      CL56934   7.275   0.305   6.663  0.2167  0.3325  0.3316
18608CL      CL56935   7.607   2.007   2.776 -0.3368 -0.1190 -0.1732
18609CL      CL56936   3.595   7.043   7.593  0.5464 -0.1953 -0.3306
18610CL      CL56937   5.626   4.394   1.539 -0.1007 -0.0481  0.1153
18611CL      CL56938   3.626   3.376   7.485  0.1442 -0.5650 -0.0775
18612CL      CL56939   3.281   2.981   1.654 -0.4837  0.1940  0.5216
18613CL      CL56940   1.515   3.911   4.690  0.1619 -0.5585  0.1241
18614CL      CL56941   3.967   0.899   5.488  0.1149 -0.1732 -0.0136
18615CL      CL56942   3.101   3.832   1.071 -0.1453 -0.0589  0.1375
18616CL      CL56943   1.730   7.677   5.600  0.6618  0.0650 -0.0171
18617CL      CL56944   7.875   0.367   5.644  0.1677  0.0570  0.0239
18618CL      CL56945   3.523   4.572   7.532 -0.0087 -0.0229 -0.0144
18619CL      CL56946   6.589   0.036   6.904 -0.1790  0.1953  0.1825
18620CL      CL56947   5.114   4.962   7.813 -0.0797 -0.0113  0.0804
18621CL      CL56948   0.530   8.004   2.921  0.5920  0.0004  0.1791
18622CL      CL56949   5.671   5.661   4.536  0.0062 -0.0998 -0.3063
18623CL      CL56950   2.451   1.893   0.888  0.0994 -0.3289 -0.1507
18624CL      CL56951   1.717   6.799   0.175 -0.4110  0.2783 -0.3533
18625CL      CL56952   7.801   2.358   3.581 -0.1819  0.1901  0.0876
18626CL      CL56953   3.900   4.771   6.223 -0.2291 -0.1941 -0.0879
18627CL      CL56954   4.780   0.860   7.236  0.2571  0.1899  0.0556
18628CL      CL56955   8.145   0.815   0.760  0.2885  0.7357  0.0642
18629CL      CL56956   0.762   5.709   0.866 -0.0536 -0.5261  0.2623
18630CL      CL56957   8.294   5.539   3.811 -0.0381 -0.3801 -0.1488
18631CL      CL56958   0.819   2.355   4.279  0.0899  0.1925  0.2628
18632CL      CL56959   3.237   8.104   0.386 -0.3452 -0.1060 -0.0236
18633CL      CL56960   7.407   3.661   6.123  0.3733  0.1768  0.0577
18634CL      CL56961   0.294   7.733   6.935 -0.0911  0.1637 -0.5414
18635CL      CL56962   5.903   3.369   2.758  0.4078  0.0007  0.2402
18636CL      CL56963   4.195   7.971   4.139 -0.3278 -0.1535  0.3208
18637CL      CL56964   3.053   6.145   2.808  0.0188  0.0685  0.0374
18638CL      CL56965   5.210   0.043   6.244 -0.5389 -0.4183  0.4156
18639CL      CL56966   7.890   2.702   7.091 -0.0028  0.2201 -0.2475
18640CL      CL56967   0.065   0.282   4.548 -0.5401  0.1064  0.4364
18641CL      CL56968   2.869   3.736   3.940 -0.4171  0.1350  0.7363
18642CL      CL56969   4.667   7.452   6.499 -0.2339  0.0862  0.2089
18643CL      CL56970   0.090   0.234   4.090  0.1200  0.1486  0.5252
18644CL      CL56971   5.892   0.690   1.830  0.2667  0.1316 -0.4202
18645CL      CL56972   1.195   4.583   8.270  0.5724  0.0503  0.3219
18646CL      CL56973   6.517   4.266   1.180  0.2198 -0.0431  0.1140
18647CL      CL56974   2.410   0.315   6.538  0.3237 -0.4162 -0.1216
18648CL      CL56975   0.941   0.704   3.622  0.1051  0.0336 -0.4332
   8.30761   8.30761   8.30761
